Title
81342
    1CHL1    C3    1   0.831   4.382  10.194 -0.6905  0.2130  0.6934
    1CHL1    H3    2   0.843   4.492  10.193  1.8491 -0.0037 -0.1315
    1CHL1    O3    3   0.755   4.338  10.307 -0.4822  0.1633 -0.3318
    1CHL1   H3'    4   0.726   4.250  10.283 -0.5702 -0.1797  0.9321
    1CHL1    C4    5   0.761   4.332  10.070  0.2509 -0.1046  0.0378
    1CHL1   H4A    6   0.749   4.222  10.082  1.4090 -0.4377 -1.5194
    1CHL1   H4B    7   0.654   4.357  10.057  0.2832 -0.4169 -0.9400
    1CHL1    C5    8   0.832   4.342   9.941  0.5201 -0.7721  0.2092
    1CHL1    C6    9   0.775   4.399   9.829 -0.5051 -0.3680  0.7629
    1CHL1    H6   10   0.670   4.434   9.828 -0.1477  0.8719  2.4499
    1CHL1    C7   11   0.845   4.415   9.695  0.0806  0.5211 -0.7167
    1CHL1   H7A   12   0.774   4.391   9.613  1.0058  1.4359 -1.8132
    1CHL1   H7B   13   0.863   4.524   9.685 -2.3492  0.9889 -0.6002
    1CHL1    C8   14   0.976   4.341   9.685 -0.4063  0.4340 -0.5249
    1CHL1    H8   15   0.951   4.234   9.669 -3.0567  0.5667  1.8336
    1CHL1   C14   16   1.062   4.395   9.571  0.2756 -0.2834  0.4200
    1CHL1   H14   17   1.085   4.498   9.605 -1.2415 -0.3659  1.8322
    1CHL1   C15   18   0.995   4.411   9.435 -0.1247 -0.4393  0.4452
    1CHL1  H15A   19   0.941   4.316   9.418 -0.9603  0.2865 -1.1655
    1CHL1  H15B   20   0.929   4.499   9.420  0.7291  0.5512  2.1067
    1CHL1   C16   21   1.114   4.409   9.336 -0.2821  0.1449 -0.2525
    1CHL1  H16A   22   1.108   4.321   9.268 -0.9336 -0.0018 -0.0096
    1CHL1  H16B   23   1.127   4.508   9.287 -0.4300  0.1000 -0.3854
    1CHL1   C17   24   1.244   4.394   9.420  0.6129 -0.1778  0.0481
    1CHL1   H17   25   1.267   4.498   9.451  1.1161  0.1001 -1.1954
    1CHL1   C13   26   1.187   4.320   9.548 -0.5153  0.4056 -0.0436
    1CHL1   C18   27   1.176   4.172   9.506 -0.4775  0.5176 -0.4806
    1CHL1  H18A   28   1.280   4.133   9.511 -0.7981 -0.5636 -1.7076
    1CHL1  H18B   29   1.122   4.114   9.585 -1.3371 -0.7632 -1.9610
    1CHL1  H18C   30   1.138   4.148   9.405  1.3224 -0.7579 -0.9049
    1CHL1   C12   31   1.273   4.346   9.673  0.2178  0.5883 -0.0982
    1CHL1  H12A   32   1.375   4.304   9.662  0.3734  1.6102 -4.9296
    1CHL1  H12B   33   1.282   4.454   9.700  1.0471  0.7111 -0.8141
    1CHL1   C11   34   1.195   4.289   9.792  0.4811  0.4626  0.1483
    1CHL1  H11A   35   1.189   4.180   9.774  0.0687  0.3937  0.6892
    1CHL1  H11B   36   1.253   4.310   9.884  0.2932 -0.4489  0.4808
    1CHL1    C9   37   1.055   4.352   9.809  0.1804  0.1297 -0.2023
    1CHL1    H9   38   1.077   4.459   9.830 -1.1581  0.5715 -0.9555
    1CHL1   C10   39   0.980   4.300   9.941 -0.2616  0.4791  0.2823
    1CHL1   C19   40   0.980   4.144   9.939  0.0762 -0.2341 -1.3291
    1CHL1  H19A   41   0.928   4.095  10.024  3.7671  1.2309  2.0685
    1CHL1  H19B   42   0.940   4.108   9.841 -0.3574  0.1921 -1.3109
    1CHL1  H19C   43   1.084   4.103   9.942 -0.4096 -1.4543 -0.1472
    1CHL1    C1   44   1.043   4.366  10.065  0.2560 -0.0400  0.6244
    1CHL1   H1A   45   1.141   4.315  10.074  1.3018  1.6288 -0.6809
    1CHL1   H1B   46   1.053   4.474  10.041  0.9363 -0.1414  0.4265
    1CHL1    C2   47   0.978   4.331  10.196  0.1120 -0.2821 -0.7792
    1CHL1   H2A   48   1.019   4.379  10.288 -2.4502 -2.4374  1.6409
    1CHL1   H2B   49   0.977   4.221  10.208 -0.6815 -0.0580  1.8492
    1CHL1   C20   50   1.370   4.337   9.345  0.0883 -0.3357  0.3548
    1CHL1   H20   51   1.362   4.227   9.338  2.5288 -0.6439  1.3863
    1CHL1   C21   52   1.497   4.364   9.427 -0.1212 -0.5087  0.4319
    1CHL1  H21A   53   1.595   4.346   9.379  0.2662  1.6555  0.3383
    1CHL1  H21B   54   1.500   4.296   9.515 -0.9706  0.0329  0.8890
    1CHL1  H21C   55   1.490   4.465   9.471 -1.6111 -0.8084  0.9654
    1CHL1   C22   56   1.385   4.369   9.197  0.1095 -0.3399  0.7149
    1CHL1  H22A   57   1.296   4.347   9.134 -1.1356  3.6604  0.8511
    1CHL1  H22B   58   1.399   4.478   9.187  0.1022 -0.4282 -0.5034
    1CHL1   C23   59   1.498   4.301   9.127  1.1075 -0.3556 -0.7329
    1CHL1  H23A   60   1.588   4.357   9.160 -0.3474  1.2701  0.6632
    1CHL1  H23B   61   1.500   4.194   9.156  1.6811 -0.2601 -0.3952
    1CHL1   C24   62   1.482   4.309   8.981 -0.6657  0.6027  1.2729
    1CHL1  H24A   63   1.387   4.271   8.937  0.6428 -1.3332 -0.0530
    1CHL1  H24B   64   1.486   4.418   8.957 -0.3661  0.2087 -0.6285
    1CHL1   C25   65   1.592   4.237   8.897  0.3785  0.2514 -0.1670
    1CHL1   H25   66   1.555   4.242   8.793  1.8958 -1.9030 -0.8881
    1CHL1   C26   67   1.725   4.318   8.903  0.8495  0.7856 -0.6716
    1CHL1  H26A   68   1.792   4.248   8.849  1.2472  2.0933 -1.9312
    1CHL1  H26B   69   1.722   4.418   8.855  1.0882  1.6049  0.9631
    1CHL1  H26C   70   1.754   4.333   9.009 -0.4984  1.5117 -0.3899
    1CHL1   C27   71   1.602   4.085   8.938 -0.2590 -0.6278 -0.4584
    1CHL1  H27A   72   1.658   4.080   9.034  0.1188 -0.0381 -0.6399
    1CHL1  H27B   73   1.502   4.042   8.957 -0.1780 -0.6835 -0.1395
    1CHL1  H27C   74   1.656   4.028   8.860  2.0660 -0.9492  1.2653
    2CHL1    C3   75   2.467   1.695  10.041 -0.3030 -0.1827  0.2645
    2CHL1    H3   76   2.563   1.642  10.022  0.3873  0.2091  2.3619
    2CHL1    O3   77   2.453   1.697  10.183  0.5314  0.1092  0.3256
    2CHL1   H3'   78   2.364   1.732  10.197  1.0258  1.2943  0.5808
    2CHL1    C4   79   2.466   1.838   9.998 -0.2281  0.5580  0.3719
    2CHL1   H4A   80   2.369   1.872  10.040 -0.1445 -0.5052  1.4684
    2CHL1   H4B   81   2.546   1.898  10.046  2.1518  0.6369 -3.3131
    2CHL1    C5   82   2.481   1.847   9.846  0.2107 -0.2808  0.0005
    2CHL1    C6   83   2.579   1.901   9.779  0.4496 -0.3006  0.4540
    2CHL1    H6   84   2.658   1.948   9.839  1.7032  0.0894 -1.4193
    2CHL1    C7   85   2.598   1.905   9.634 -0.9092 -0.1199 -0.2882
    2CHL1   H7A   86   2.622   2.010   9.606 -2.2699  0.8653  1.9688
    2CHL1   H7B   87   2.686   1.845   9.604  0.1388  0.4566  1.4656
    2CHL1    C8   88   2.465   1.857   9.557 -0.3928  0.6781 -0.1500
    2CHL1    H8   89   2.397   1.945   9.556  0.5393  1.4468  0.7730
    2CHL1   C14   90   2.502   1.829   9.405  0.1720 -0.2737 -1.0762
    2CHL1   H14   91   2.568   1.741   9.420  1.9284  1.1162 -0.0898
    2CHL1   C15   92   2.582   1.930   9.320  0.0907  0.0509 -0.0066
    2CHL1  H15A   93   2.547   2.035   9.333 -3.4044 -0.7811 -1.4887
    2CHL1  H15B   94   2.691   1.921   9.338  0.9331  2.9361 -2.6683
    2CHL1   C16   95   2.540   1.897   9.176  0.0342  0.6445 -0.4772
    2CHL1  H16A   96   2.497   1.990   9.133  1.7087  1.0217 -1.4002
    2CHL1  H16B   97   2.627   1.882   9.109  1.0018  1.3594  0.5933
    2CHL1   C17   98   2.439   1.780   9.184 -0.3417 -0.1988 -0.0033
    2CHL1   H17   99   2.500   1.687   9.176 -1.2470 -0.7739 -0.3939
    2CHL1   C13  100   2.384   1.789   9.329  0.0308 -0.6210  0.4658
    2CHL1   C18  101   2.279   1.904   9.325  0.9261  0.0786  0.1803
    2CHL1  H18A  102   2.196   1.888   9.253  2.8156  0.1971 -2.1531
    2CHL1  H18B  103   2.232   1.921   9.425 -2.0535 -2.0124 -0.7218
    2CHL1  H18C  104   2.330   1.998   9.294  0.9891  0.2332  0.7358
    2CHL1   C12  105   2.311   1.660   9.388 -0.5221  0.3793  0.9178
    2CHL1  H12A  106   2.222   1.627   9.331  0.1930 -0.6652  0.3558
    2CHL1  H12B  107   2.384   1.576   9.382 -2.4733 -1.4148  1.1622
    2CHL1   C11  108   2.278   1.679   9.543  0.4328  0.0655  0.2473
    2CHL1  H11A  109   2.187   1.744   9.543  0.7502  0.6460 -2.5885
    2CHL1  H11B  110   2.254   1.584   9.595  3.2462  0.6450  2.9144
    2CHL1    C9  111   2.391   1.741   9.628 -0.9890 -0.5004 -0.5562
    2CHL1    H9  112   2.472   1.665   9.632 -2.8544 -2.5122  1.4317
    2CHL1   C10  113   2.365   1.766   9.778 -0.5236  0.2094  1.4309
    2CHL1   C19  114   2.233   1.855   9.784  0.4306 -0.0656 -0.7253
    2CHL1  H19A  115   2.194   1.871   9.887 -0.5960  1.4804 -1.3193
    2CHL1  H19B  116   2.243   1.953   9.732  0.8273  0.3252  0.0729
    2CHL1  H19C  117   2.154   1.798   9.731  0.5747 -0.1861 -0.8103
    2CHL1    C1  118   2.344   1.631   9.844 -0.3347  0.6223  0.7621
    2CHL1   H1A  119   2.251   1.585   9.803  1.4474 -1.5579 -1.1518
    2CHL1   H1B  120   2.426   1.563   9.812  0.4616  1.3601  1.2196
    2CHL1    C2  121   2.346   1.623   9.993  0.0554 -0.0631  0.4006
    2CHL1   H2A  122   2.363   1.517  10.019 -0.1677 -0.4355 -0.9070
    2CHL1   H2B  123   2.256   1.659  10.047 -0.3332 -1.1866  0.5147
    2CHL1   C20  124   2.343   1.782   9.064  0.4437  0.2142  0.2314
    2CHL1   H20  125   2.277   1.872   9.063  0.0428 -0.0758 -1.2248
    2CHL1   C21  126   2.253   1.661   9.070 -0.5819 -0.0707  0.4696
    2CHL1  H21A  127   2.313   1.571   9.097 -1.2745 -0.7678 -0.2169
    2CHL1  H21B  128   2.212   1.647   8.967  1.9939  0.8597 -0.7519
    2CHL1  H21C  129   2.164   1.678   9.134  0.1362  0.0226  1.4622
    2CHL1   C22  130   2.406   1.798   8.922 -0.5774  0.1694 -0.9389
    2CHL1  H22A  131   2.325   1.836   8.856  0.3392 -1.6577 -3.2659
    2CHL1  H22B  132   2.492   1.869   8.927  1.0565 -1.7841  0.2084
    2CHL1   C23  133   2.471   1.671   8.863  1.0937  0.3927 -0.8392
    2CHL1  H23A  134   2.543   1.630   8.937  0.8144 -0.1362 -0.8586
    2CHL1  H23B  135   2.384   1.603   8.849  0.3617  0.9822  0.6884
    2CHL1   C24  136   2.544   1.688   8.719  0.3671 -0.3688 -0.5722
    2CHL1  H24A  137   2.619   1.768   8.734  0.0502  0.0654 -1.2443
    2CHL1  H24B  138   2.599   1.593   8.703 -1.5219 -1.6490  0.2100
    2CHL1   C25  139   2.466   1.746   8.601 -0.0586 -0.1254  0.0912
    2CHL1   H25  140   2.411   1.838   8.632  0.7791  1.1014 -1.8835
    2CHL1   C26  141   2.555   1.796   8.485 -0.4157 -0.5777 -0.0446
    2CHL1  H26A  142   2.502   1.854   8.406  1.4242 -0.4228 -1.2248
    2CHL1  H26B  143   2.628   1.867   8.529  0.3029 -1.7482  0.6626
    2CHL1  H26C  144   2.609   1.716   8.431 -2.5064 -2.6086  0.7395
    2CHL1   C27  145   2.367   1.644   8.552 -0.0426  0.4611 -0.1317
    2CHL1  H27A  146   2.280   1.634   8.620 -1.3009 -1.1815 -1.8730
    2CHL1  H27B  147   2.331   1.681   8.454  2.4226  1.0896 -0.8630
    2CHL1  H27C  148   2.416   1.545   8.538  1.5818  1.3276 -0.7452
    3CHL1    C3  149   2.178   3.350  10.455 -0.3536 -0.4379  0.5170
    3CHL1    H3  150   2.271   3.410  10.449  0.6605 -2.0119 -0.1451
    3CHL1    O3  151   2.163   3.285  10.579  0.1348  0.0068  0.0865
    3CHL1   H3'  152   2.241   3.232  10.593 -0.5998 -0.9549  0.6923
    3CHL1    C4  153   2.070   3.458  10.437  0.7678 -0.8471  0.2487
    3CHL1   H4A  154   1.971   3.417  10.466 -0.8057  1.9483 -0.7851
    3CHL1   H4B  155   2.077   3.539  10.513 -5.9122  1.7066 -1.1410
    3CHL1    C5  156   2.033   3.509  10.297 -0.0226  0.0770 -0.5724
    3CHL1    C6  157   2.023   3.644  10.275 -0.2574 -0.6432  0.3318
    3CHL1    H6  158   2.050   3.712  10.357 -0.2839  0.5323 -0.6100
    3CHL1    C7  159   2.000   3.705  10.142  0.5463  0.6750  0.0733
    3CHL1   H7A  160   1.920   3.783  10.145  1.3561  1.6158 -1.5556
    3CHL1   H7B  161   2.089   3.747  10.091  0.5666  0.9934  0.3659
    3CHL1    C8  162   1.952   3.593  10.039  0.6166  0.1912 -0.0573
    3CHL1    H8  163   1.844   3.574  10.055  0.6043 -0.0340 -0.3975
    3CHL1   C14  164   1.974   3.642   9.886 -0.1192 -0.4280  0.4830
    3CHL1   H14  165   2.082   3.638   9.859 -0.5910  3.2786 -2.9088
    3CHL1   C15  166   1.914   3.780   9.850  0.2383 -0.1966  0.6344
    3CHL1  H15A  167   1.813   3.795   9.893  1.1457  6.2106  1.4443
    3CHL1  H15B  168   1.965   3.870   9.891  0.1240 -0.7565  2.0471
    3CHL1   C16  169   1.905   3.783   9.699  0.5077 -0.2300  0.6967
    3CHL1  H16A  170   1.800   3.807   9.673  0.7436 -0.3528 -0.4128
    3CHL1  H16B  171   1.977   3.847   9.643 -0.0541 -1.8886 -2.0988
    3CHL1   C17  172   1.940   3.642   9.655 -0.5532  0.3944  0.0932
    3CHL1   H17  173   2.048   3.636   9.632 -0.8693  0.7604 -1.6448
    3CHL1   C13  174   1.921   3.549   9.776  0.4112 -0.3667 -0.5744
    3CHL1   C18  175   1.769   3.518   9.784 -0.0289 -0.6483  0.7183
    3CHL1  H18A  176   1.747   3.524   9.892  1.2769 -0.3215  0.9795
    3CHL1  H18B  177   1.713   3.594   9.726  1.5795 -1.3481 -1.9463
    3CHL1  H18C  178   1.743   3.420   9.739  0.9457 -0.7240  0.3040
    3CHL1   C12  179   1.999   3.421   9.789 -0.6304 -0.1461 -0.1850
    3CHL1  H12A  180   1.961   3.341   9.722  1.3649  0.1044 -1.7351
    3CHL1  H12B  181   2.098   3.445   9.743 -0.4431 -2.3398 -1.0192
    3CHL1   C11  182   1.998   3.366   9.935  0.8914  0.6175 -0.1837
    3CHL1  H11A  183   1.893   3.331   9.949  1.1270  0.8609  2.9655
    3CHL1  H11B  184   2.062   3.276   9.941 -0.2647 -0.2684 -0.7040
    3CHL1    C9  185   2.027   3.462  10.049 -0.1576  0.8542 -0.5714
    3CHL1    H9  186   2.135   3.479  10.029  0.9055 -1.1446  2.7321
    3CHL1   C10  187   2.023   3.400  10.193  0.4950 -0.0482  0.2907
    3CHL1   C19  188   1.889   3.325  10.212  0.5318 -0.5441 -0.0978
    3CHL1  H19A  189   1.806   3.386  10.173  0.7770  1.3044  2.0994
    3CHL1  H19B  190   1.892   3.233  10.149  1.1999 -1.5837  1.4058
    3CHL1  H19C  191   1.873   3.293  10.317  0.4712 -0.0109  0.0574
    3CHL1    C1  192   2.146   3.308  10.200  0.6649 -0.1646  0.3115
    3CHL1   H1A  193   2.143   3.217  10.135 -1.5912  0.7530 -1.0025
    3CHL1   H1B  194   2.230   3.365  10.157  1.2302  0.8342  2.5924
    3CHL1    C2  195   2.169   3.249  10.337  0.0011  0.1151 -0.3339
    3CHL1   H2A  196   2.263   3.191  10.340 -0.8432 -1.3314 -0.8048
    3CHL1   H2B  197   2.078   3.188  10.358 -0.1713  0.7528  0.8559
    3CHL1   C20  198   1.878   3.611   9.516  0.3099  0.1315  0.3982
    3CHL1   H20  199   1.770   3.638   9.515 -0.4191 -2.3865  1.4376
    3CHL1   C21  200   1.879   3.461   9.477 -0.0364 -0.6823  0.1025
    3CHL1  H21A  201   1.804   3.441   9.397  0.1418 -0.8308 -0.0265
    3CHL1  H21B  202   1.857   3.395   9.563  0.2715 -1.5897 -0.5072
    3CHL1  H21C  203   1.981   3.427   9.449  0.8697  1.9614 -0.0752
    3CHL1   C22  204   1.953   3.686   9.404  0.2820  0.4745  0.2052
    3CHL1  H22A  205   1.980   3.790   9.432 -0.6024  0.7748 -0.0489
    3CHL1  H22B  206   2.048   3.631   9.383 -0.2378 -0.6664  0.7308
    3CHL1   C23  207   1.884   3.699   9.270  0.3193  0.1940  0.1055
    3CHL1  H23A  208   1.883   3.599   9.223 -0.8359  0.5343 -0.6425
    3CHL1  H23B  209   1.784   3.747   9.271  0.9916  1.8204 -2.0791
    3CHL1   C24  210   1.958   3.781   9.156 -1.0128  0.3006 -0.4252
    3CHL1  H24A  211   1.984   3.882   9.195 -0.2985  0.1413 -0.4662
    3CHL1  H24B  212   2.056   3.728   9.146  1.3747  4.3199 -0.5145
    3CHL1   C25  213   1.904   3.780   9.011  0.7584  0.0086 -0.8219
    3CHL1   H25  214   1.800   3.816   9.014  0.6410 -0.3880  0.8039
    3CHL1   C26  215   1.991   3.870   8.920  0.0622  0.5212 -0.3104
    3CHL1  H26A  216   2.009   3.972   8.961  0.8159  0.8398 -1.3734
    3CHL1  H26B  217   2.091   3.825   8.900  0.6033  2.1170 -1.3567
    3CHL1  H26C  218   1.939   3.877   8.823 -2.8621  1.0671  1.1813
    3CHL1   C27  219   1.899   3.634   8.959 -0.3028 -0.3617  1.0849
    3CHL1  H27A  220   2.002   3.592   8.968 -0.0084 -0.0491 -0.5471
    3CHL1  H27B  221   1.835   3.580   9.031  0.7021 -1.0520  1.4917
    3CHL1  H27C  222   1.851   3.619   8.860  0.6081  2.1647  0.1854
    4CHL1    C3  223   2.273   2.354  10.485  0.1053 -0.5365  0.7652
    4CHL1    H3  224   2.187   2.287  10.505  2.0772 -3.5561 -0.1842
    4CHL1    O3  225   2.359   2.367  10.604 -0.3494 -0.0143  0.9551
    4CHL1   H3'  226   2.370   2.273  10.623  0.3192 -0.4319 -1.2161
    4CHL1    C4  227   2.341   2.297  10.365 -0.1744 -0.3291 -0.1908
    4CHL1   H4A  228   2.433   2.354  10.339  0.2986  0.3873  2.6456
    4CHL1   H4B  229   2.368   2.197  10.405  0.1311 -0.6192 -1.0950
    4CHL1    C5  230   2.262   2.292  10.237 -0.3610  0.4253  0.5556
    4CHL1    C6  231   2.240   2.172  10.164 -0.4164 -0.0535 -0.4595
    4CHL1    H6  232   2.297   2.082  10.191  1.1990  0.8011 -0.8987
    4CHL1    C7  233   2.185   2.175  10.027  0.0793  0.0325  0.9172
    4CHL1   H7A  234   2.243   2.121   9.949 -1.2882  3.4320 -2.8017
    4CHL1   H7B  235   2.083   2.135  10.046 -0.6883  1.4327 -0.0285
    4CHL1    C8  236   2.160   2.317   9.966 -0.5206 -0.1121  0.0769
    4CHL1    H8  237   2.255   2.353   9.922 -0.6676  0.3602  0.1401
    4CHL1   C14  238   2.057   2.322   9.847  0.4935  0.2661 -0.0197
    4CHL1   H14  239   1.961   2.287   9.890 -1.2880  2.3009 -2.0783
    4CHL1   C15  240   2.087   2.215   9.739  0.0228 -0.2980  1.0473
    4CHL1  H15A  241   2.198   2.211   9.737  0.1960  2.2743  1.4575
    4CHL1  H15B  242   2.056   2.111   9.761 -1.2074 -0.8334 -2.5252
    4CHL1   C16  243   2.027   2.274   9.609 -0.2782  0.4937  0.3188
    4CHL1  H16A  244   2.106   2.272   9.531 -1.7476  3.4210 -1.3856
    4CHL1  H16B  245   1.944   2.210   9.573 -1.3551  2.4551 -0.8389
    4CHL1   C17  246   1.960   2.412   9.649  0.0197  0.0597 -0.1285
    4CHL1   H17  247   1.853   2.388   9.666 -0.5693  2.1959 -0.5136
    4CHL1   C13  248   2.031   2.454   9.779  0.1060  0.0978 -0.6097
    4CHL1   C18  249   2.170   2.521   9.744  0.3993 -0.2926  0.1568
    4CHL1  H18A  250   2.154   2.612   9.682  2.4640  0.1036  0.1287
    4CHL1  H18B  251   2.223   2.541   9.839  1.6777 -2.7902  0.0377
    4CHL1  H18C  252   2.231   2.449   9.685 -1.5222 -1.9926  0.1097
    4CHL1   C12  253   1.959   2.533   9.886  0.2849  0.0901 -0.5322
    4CHL1  H12A  254   1.930   2.640   9.879  2.2683  1.0195  3.1161
    4CHL1  H12B  255   1.866   2.472   9.894 -1.8038  2.5179 -3.7730
    4CHL1   C11  256   2.037   2.542  10.016 -0.2660 -0.1674  0.0798
    4CHL1  H11A  257   2.112   2.621   9.997 -1.1173  0.6835  0.1992
    4CHL1  H11B  258   1.977   2.588  10.097  3.0392  0.7551  2.2171
    4CHL1    C9  259   2.104   2.411  10.075 -0.1100  0.2795  0.5323
    4CHL1    H9  260   2.014   2.353  10.105 -0.3806  0.0467 -0.6628
    4CHL1   C10  261   2.199   2.427  10.194  0.2985  0.7870 -0.9222
    4CHL1   C19  262   2.316   2.517  10.150  0.1167 -0.8379  0.7038
    4CHL1  H19A  263   2.404   2.518  10.218  0.5034  0.2530  0.2118
    4CHL1  H19B  264   2.360   2.481  10.055  0.6741 -1.3109  1.1311
    4CHL1  H19C  265   2.294   2.626  10.153  1.0656 -0.5829 -0.6905
    4CHL1    C1  266   2.131   2.492  10.319  0.0381 -0.0839 -0.4289
    4CHL1   H1A  267   2.104   2.597  10.294  0.1367 -0.3426 -1.6796
    4CHL1   H1B  268   2.032   2.441  10.327 -2.3548  4.0699 -0.3640
    4CHL1    C2  269   2.216   2.493  10.446 -0.1492 -0.3062 -0.8830
    4CHL1   H2A  270   2.155   2.536  10.529 -0.8087 -0.3641 -1.3300
    4CHL1   H2B  271   2.301   2.562  10.430 -1.0147  0.3976 -2.6892
    4CHL1   C20  272   1.959   2.504   9.526 -0.5908 -0.6966  0.1393
    4CHL1   H20  273   2.068   2.516   9.507 -0.7134  2.2948  0.8039
    4CHL1   C21  274   1.902   2.640   9.556  0.2900  0.0072 -0.9239
    4CHL1  H21A  275   1.972   2.715   9.513 -0.5499  0.8953 -0.7946
    4CHL1  H21B  276   1.905   2.659   9.665  1.9563  0.3448 -1.0039
    4CHL1  H21C  277   1.798   2.655   9.520 -1.4648 -3.6911  1.9549
    4CHL1   C22  278   1.895   2.444   9.403 -0.4697  0.2044  0.0170
    4CHL1  H22A  279   1.931   2.343   9.372  1.1427  0.5904  0.5553
    4CHL1  H22B  280   1.786   2.429   9.419 -0.6002  0.8472 -0.2382
    4CHL1   C23  281   1.913   2.523   9.268 -0.1686  0.1757 -0.3471
    4CHL1  H23A  282   1.867   2.623   9.284  1.1905  0.6988  0.4103
    4CHL1  H23B  283   2.021   2.545   9.254 -0.2730  1.5948  0.8350
    4CHL1   C24  284   1.837   2.468   9.146  0.6903 -0.5242  0.0147
    4CHL1  H24A  285   1.868   2.370   9.105 -0.7372  0.1740 -3.0122
    4CHL1  H24B  286   1.738   2.450   9.193  0.7578 -0.9466  0.0019
    4CHL1   C25  287   1.822   2.572   9.036 -0.0476 -0.2499 -0.1093
    4CHL1   H25  288   1.766   2.657   9.080  1.2779  0.9290 -0.6154
    4CHL1   C26  289   1.957   2.641   8.993  0.5659 -0.2248  1.1191
    4CHL1  H26A  290   2.040   2.571   8.968  2.1172  1.9018  0.0500
    4CHL1  H26B  291   1.945   2.719   8.916 -2.1184  0.3662  2.0345
    4CHL1  H26C  292   1.988   2.698   9.083  0.0505 -2.1761  2.6144
    4CHL1   C27  293   1.732   2.521   8.922 -0.8140  0.0701 -0.0680
    4CHL1  H27A  294   1.797   2.451   8.865  3.0110  1.4005  2.2929
    4CHL1  H27B  295   1.644   2.469   8.965 -0.8129  0.2702  0.1794
    4CHL1  H27C  296   1.701   2.597   8.847  0.3692 -0.3089 -0.9729
    5CHL1    C3  297   3.073   2.978  10.223  0.1519 -0.1668  0.3547
    5CHL1    H3  298   3.177   2.975  10.181 -0.7403  0.0831 -2.0458
    5CHL1    O3  299   3.082   2.968  10.367  0.4152  0.3879 -0.2740
    5CHL1   H3'  300   3.034   3.037  10.414  0.1398 -1.0097  1.6384
    5CHL1    C4  301   3.012   3.118  10.171  0.0625 -0.6122  0.4275
    5CHL1   H4A  302   2.918   3.135  10.228 -0.4933  1.3383 -0.9764
    5CHL1   H4B  303   3.084   3.196  10.205 -0.5469 -0.5712  1.6831
    5CHL1    C5  304   2.974   3.134  10.029  0.4886  0.5431 -0.1421
    5CHL1    C6  305   3.021   3.235   9.952 -0.4050 -1.2601  0.1735
    5CHL1    H6  306   3.076   3.320   9.995 -3.5757  1.9591 -1.5464
    5CHL1    C7  307   2.995   3.253   9.803  0.5555 -0.9485 -0.3054
    5CHL1   H7A  308   2.962   3.353   9.768 -2.7596 -2.3822 -1.7660
    5CHL1   H7B  309   3.083   3.216   9.747  1.2809  0.4112 -0.1000
    5CHL1    C8  310   2.880   3.161   9.752  0.4262 -0.0129  0.4177
    5CHL1    H8  311   2.787   3.206   9.794  1.2932 -0.6685  3.3047
    5CHL1   C14  312   2.889   3.160   9.597 -0.0487  0.0801 -0.3255
    5CHL1   H14  313   2.987   3.112   9.573 -0.1640  1.2068 -3.5490
    5CHL1   C15  314   2.897   3.293   9.519 -0.1160  0.1581  0.4973
    5CHL1  H15A  315   2.818   3.359   9.562  1.0499 -0.1772  3.3774
    5CHL1  H15B  316   2.999   3.335   9.529  0.7022 -1.2404 -1.3066
    5CHL1   C16  317   2.860   3.248   9.378  0.0553 -0.0837 -0.0025
    5CHL1  H16A  318   2.775   3.310   9.344  0.5278  0.1775 -0.7439
    5CHL1  H16B  319   2.946   3.275   9.313 -1.7707 -0.1139 -2.5902
    5CHL1   C17  320   2.828   3.098   9.377  0.3255 -0.4608  0.3560
    5CHL1   H17  321   2.921   3.038   9.368  0.0036 -0.8326 -0.6351
    5CHL1   C13  322   2.789   3.077   9.528 -0.3336  0.1982 -0.5011
    5CHL1   C18  323   2.650   3.129   9.561  0.0096 -0.1331 -0.3042
    5CHL1  H18A  324   2.636   3.226   9.509  2.3182 -0.6213 -2.0031
    5CHL1  H18B  325   2.572   3.068   9.512 -1.3698 -0.0382  1.6580
    5CHL1  H18C  326   2.618   3.129   9.668 -0.5697 -0.5727 -0.4740
    5CHL1   C12  327   2.811   2.934   9.578 -0.8690  0.1971  0.3835
    5CHL1  H12A  328   2.739   2.874   9.519  0.4680  0.5939 -1.7442
    5CHL1  H12B  329   2.913   2.896   9.557 -1.0200  0.4530 -0.9019
    5CHL1   C11  330   2.796   2.918   9.733 -0.3734  0.2093 -0.6421
    5CHL1  H11A  331   2.695   2.956   9.761 -0.3055  2.2040 -2.8001
    5CHL1  H11B  332   2.812   2.815   9.770 -0.6990  0.6500  0.7824
    5CHL1    C9  333   2.889   3.022   9.812 -0.1543  0.0457  0.5157
    5CHL1    H9  334   2.995   2.997   9.792 -0.1593  0.9679 -0.7756
    5CHL1   C10  335   2.891   3.017   9.969  0.4750  0.3379  1.0323
    5CHL1   C19  336   2.746   3.030  10.029 -0.6942  1.2856 -0.3313
    5CHL1  H19A  337   2.683   2.941  10.010  1.8457 -0.8154  0.3557
    5CHL1  H19B  338   2.758   3.044  10.139  4.0524  2.3117 -0.7656
    5CHL1  H19C  339   2.686   3.116   9.994  1.3953  3.6987  1.5344
    5CHL1    C1  340   2.970   2.889  10.019  0.2634 -0.6380  0.3811
    5CHL1   H1A  341   2.913   2.801   9.981  2.1575 -2.2657  1.0968
    5CHL1   H1B  342   3.067   2.878   9.967  1.3435  0.4978  2.0636
    5CHL1    C2  343   2.989   2.871  10.172  0.7089  0.3297 -0.1116
    5CHL1   H2A  344   3.032   2.770  10.187  0.3552  0.1734 -0.1270
    5CHL1   H2B  345   2.892   2.870  10.226  1.5745 -1.3849  1.5212
    5CHL1   C20  346   2.734   3.065   9.262  0.4271 -0.3711  0.8525
    5CHL1   H20  347   2.641   3.124   9.277  0.2551 -0.6473  0.8837
    5CHL1   C21  348   2.674   2.921   9.260  0.1789  0.7320 -0.2267
    5CHL1  H21A  349   2.613   2.902   9.168  1.1972  1.0530 -0.9877
    5CHL1  H21B  350   2.604   2.901   9.343 -1.6163  0.8898 -1.6322
    5CHL1  H21C  351   2.760   2.851   9.262 -0.4856 -0.0906  1.0701
    5CHL1   C22  352   2.795   3.093   9.124  0.2882  0.5648 -0.1743
    5CHL1  H22A  353   2.884   3.159   9.132  0.7278 -0.1493  0.9299
    5CHL1  H22B  354   2.842   3.002   9.083 -0.0186  1.1077 -1.8104
    5CHL1   C23  355   2.694   3.156   9.030  0.4753 -0.9674  0.4182
    5CHL1  H23A  356   2.598   3.103   9.044 -0.8285  1.4168  1.2164
    5CHL1  H23B  357   2.680   3.264   9.055 -1.1504 -1.2510  0.7940
    5CHL1   C24  358   2.737   3.146   8.881  0.3290 -0.6715  0.4572
    5CHL1  H24A  359   2.840   3.183   8.867 -0.0691  0.9207  1.4132
    5CHL1  H24B  360   2.735   3.042   8.842  1.2134 -0.3990 -0.3410
    5CHL1   C25  361   2.645   3.213   8.776 -0.4467 -0.3212  0.4094
    5CHL1   H25  362   2.597   3.302   8.821  2.3886  2.2541 -1.3111
    5CHL1   C26  363   2.726   3.267   8.650  0.0116  0.2041 -0.4033
    5CHL1  H26A  364   2.763   3.183   8.588 -2.1359 -1.0840 -0.0345
    5CHL1  H26B  365   2.664   3.321   8.575  0.3074 -1.1851 -1.7003
    5CHL1  H26C  366   2.812   3.327   8.687 -1.3110  1.8858  0.1061
    5CHL1   C27  367   2.527   3.121   8.734  0.8956  0.7019  0.4893
    5CHL1  H27A  368   2.465   3.176   8.660 -1.6482 -0.4830  1.6271
    5CHL1  H27B  369   2.567   3.027   8.691  0.5509  0.9017 -0.2782
    5CHL1  H27C  370   2.473   3.112   8.831  1.5655 -0.0994  0.8007
    6CHL1    C3  371   1.111   1.566  10.118 -0.2364 -0.7057  0.4016
    6CHL1    H3  372   1.095   1.457  10.105 -1.0719 -0.4665 -0.7222
    6CHL1    O3  373   1.066   1.605  10.244 -0.9977 -0.6439  0.2173
    6CHL1   H3'  374   1.077   1.700  10.231 -0.2588 -0.7258  0.2022
    6CHL1    C4  375   1.256   1.606  10.093 -0.0384 -0.5497  0.1777
    6CHL1   H4A  376   1.260   1.716  10.104  0.6411 -0.7149  1.9154
    6CHL1   H4B  377   1.307   1.550  10.175 -0.6633 -1.0528  0.2351
    6CHL1    C5  378   1.306   1.574   9.952  0.3394 -0.4554  0.3931
    6CHL1    C6  379   1.418   1.501   9.925 -0.3326  0.1848  0.2323
    6CHL1    H6  380   1.473   1.467  10.014  0.5921 -0.4988 -0.5808
    6CHL1    C7  381   1.473   1.471   9.784  0.1904 -0.3573  0.5291
    6CHL1   H7A  382   1.583   1.482   9.785 -0.0443  2.8093  0.0026
    6CHL1   H7B  383   1.452   1.364   9.759 -1.8517 -0.1583  1.1852
    6CHL1    C8  384   1.404   1.561   9.678 -0.2658 -0.4138 -0.4293
    6CHL1    H8  385   1.442   1.663   9.702 -2.6023  0.2207  0.8750
    6CHL1   C14  386   1.433   1.523   9.534 -0.2931  0.3933  0.0538
    6CHL1   H14  387   1.398   1.418   9.522  0.5784  0.3653 -3.3700
    6CHL1   C15  388   1.579   1.528   9.493 -0.9023  0.0639 -0.1934
    6CHL1  H15A  389   1.628   1.608   9.552  0.7140 -1.9310  1.3301
    6CHL1  H15B  390   1.618   1.429   9.524  0.5015 -0.0831 -2.2310
    6CHL1   C16  391   1.582   1.546   9.336 -0.4703  0.3638  0.2209
    6CHL1  H16A  392   1.631   1.641   9.310 -4.1906  1.7802 -2.6153
    6CHL1  H16B  393   1.622   1.455   9.286 -0.9732  0.3311 -0.1382
    6CHL1   C17  394   1.430   1.570   9.295  0.6936  0.2559 -0.8661
    6CHL1   H17  395   1.380   1.477   9.262  0.9104  1.1508 -4.0507
    6CHL1   C13  396   1.368   1.610   9.431 -0.3183  0.3858 -0.1648
    6CHL1   C18  397   1.405   1.759   9.459  0.7628 -0.2384  0.4735
    6CHL1  H18A  398   1.358   1.829   9.387  1.2402 -0.6542 -0.2554
    6CHL1  H18B  399   1.387   1.788   9.565 -1.8974  1.3157 -0.3011
    6CHL1  H18C  400   1.511   1.789   9.440  1.0248  1.3611  3.6544
    6CHL1   C12  401   1.216   1.582   9.444  0.0918  0.4601  0.1885
    6CHL1  H12A  402   1.153   1.649   9.382  0.4236 -0.7855 -1.5467
    6CHL1  H12B  403   1.192   1.475   9.433 -0.0221  0.4329  0.6543
    6CHL1   C11  404   1.164   1.623   9.587 -0.3020 -0.3026  0.3048
    6CHL1  H11A  405   1.183   1.732   9.591 -2.4932  0.1651 -0.4740
    6CHL1  H11B  406   1.058   1.594   9.606 -0.4487  1.1711  1.9196
    6CHL1    C9  407   1.254   1.564   9.700  0.2719 -0.0477  0.7288
    6CHL1    H9  408   1.225   1.457   9.706 -0.7450  0.1774  0.0684
    6CHL1   C10  409   1.221   1.625   9.837 -0.0836  0.4394  0.3691
    6CHL1   C19  410   1.238   1.775   9.838 -0.0581  0.4868  0.5635
    6CHL1  H19A  411   1.162   1.838   9.786 -0.5761  1.6561  2.6563
    6CHL1  H19B  412   1.231   1.814   9.941 -0.4412 -0.3121  0.8507
    6CHL1  H19C  413   1.336   1.807   9.797  0.3063  1.3458  2.0481
    6CHL1    C1  414   1.070   1.592   9.864 -0.4225  1.1370  0.2022
    6CHL1   H1A  415   1.013   1.649   9.787 -1.9348 -2.3796 -1.4942
    6CHL1   H1B  416   1.051   1.484   9.846  0.3466  1.0021  0.1655
    6CHL1    C2  417   1.025   1.629  10.007  0.1284 -0.0709 -0.7042
    6CHL1   H2A  418   0.919   1.604  10.024  0.6116 -1.2419  0.8411
    6CHL1   H2B  419   1.017   1.738  10.028 -0.9696 -0.4034  0.7175
    6CHL1   C20  420   1.425   1.664   9.171 -0.3066  0.6531 -0.0289
    6CHL1   H20  421   1.471   1.762   9.197  0.5928 -0.0193  1.0596
    6CHL1   C21  422   1.282   1.703   9.134 -0.6027 -0.7658 -0.0082
    6CHL1  H21A  423   1.218   1.612   9.127 -1.7669  0.1233 -1.5547
    6CHL1  H21B  424   1.278   1.744   9.031  0.6168 -0.9998 -0.1572
    6CHL1  H21C  425   1.235   1.776   9.204  0.1143 -0.6521  0.3622
    6CHL1   C22  426   1.496   1.608   9.041 -0.2782 -0.1307 -0.2718
    6CHL1  H22A  427   1.587   1.552   9.072 -0.4770 -0.2800  0.0492
    6CHL1  H22B  428   1.420   1.534   9.009  0.3293 -1.6572  1.6228
    6CHL1   C23  429   1.537   1.721   8.953 -0.3888  0.2372 -0.2787
    6CHL1  H23A  430   1.457   1.796   8.937 -0.2129  0.7032  0.9424
    6CHL1  H23B  431   1.620   1.783   8.992  1.1535  0.7379 -3.9626
    6CHL1   C24  432   1.589   1.672   8.816 -0.0913  0.4113 -0.2253
    6CHL1  H24A  433   1.629   1.751   8.750  1.8580  0.2888  0.7198
    6CHL1  H24B  434   1.671   1.596   8.821  0.9118  1.4658 -0.3183
    6CHL1   C25  435   1.479   1.599   8.736 -0.7001 -0.5134  0.2583
    6CHL1   H25  436   1.418   1.526   8.794 -1.3423  0.8611  1.3839
    6CHL1   C26  437   1.376   1.696   8.672  0.2143 -0.5108 -0.1661
    6CHL1  H26A  438   1.309   1.630   8.613  0.3789 -1.7975  1.0221
    6CHL1  H26B  439   1.322   1.746   8.756  1.1477  1.8165 -0.8905
    6CHL1  H26C  440   1.433   1.764   8.607 -0.3685 -0.3531 -0.5157
    6CHL1   C27  441   1.554   1.520   8.623  0.5622 -0.1770 -0.4327
    6CHL1  H27A  442   1.612   1.586   8.554  2.4617 -0.8803  0.3991
    6CHL1  H27B  443   1.631   1.456   8.671  0.0729 -0.0772  0.4996
    6CHL1  H27C  444   1.485   1.464   8.558  0.3818  0.3376 -0.6932
    7CHL1    C3  445   3.440   3.337  10.204 -0.4911  0.6906 -0.2088
    7CHL1    H3  446   3.330   3.341  10.195 -0.4667 -0.0461 -0.9433
    7CHL1    O3  447   3.487   3.358  10.336 -0.1732  0.0871 -0.2090
    7CHL1   H3'  448   3.582   3.365  10.328 -0.0277 -1.3803  0.0622
    7CHL1    C4  449   3.483   3.201  10.155  0.4291  0.1859  0.6222
    7CHL1   H4A  450   3.592   3.186  10.171  0.8428  1.6703 -0.5745
    7CHL1   H4B  451   3.427   3.127  10.216  1.9674 -0.9263  0.7325
    7CHL1    C5  452   3.440   3.179  10.008  0.6140  1.0833  0.5145
    7CHL1    C6  453   3.361   3.075   9.985 -0.4845  0.5320  0.4350
    7CHL1    H6  454   3.343   3.006  10.069 -0.4165 -0.2724 -0.1938
    7CHL1    C7  455   3.328   3.043   9.838  0.0706  0.6675 -0.9836
    7CHL1   H7A  456   3.335   2.932   9.829  0.6484  0.7687 -1.9557
    7CHL1   H7B  457   3.222   3.072   9.822  0.0482  0.8584 -0.5036
    7CHL1    C8  458   3.421   3.113   9.734  0.2831 -0.4392  0.9034
    7CHL1    H8  459   3.523   3.069   9.738  1.4178  1.8304 -0.7082
    7CHL1   C14  460   3.352   3.104   9.594 -0.2133  0.2681  0.2190
    7CHL1   H14  461   3.273   3.181   9.609  2.4581  3.5771 -1.2432
    7CHL1   C15  462   3.287   2.970   9.536  0.2429  0.0839 -0.1125
    7CHL1  H15A  463   3.343   2.878   9.565  0.5173  0.6599  1.2799
    7CHL1  H15B  464   3.185   2.956   9.580 -0.2374  0.4733 -1.0698
    7CHL1   C16  465   3.279   2.990   9.385  0.1183 -0.0292  0.0816
    7CHL1  H16A  466   3.343   2.912   9.338 -1.7598 -0.7974 -1.3501
    7CHL1  H16B  467   3.172   2.978   9.357  0.0334 -0.0861  0.4229
    7CHL1   C17  468   3.324   3.138   9.368 -0.3982  0.5441  0.1016
    7CHL1   H17  469   3.243   3.204   9.405  0.4567  1.9576 -0.4791
    7CHL1   C13  470   3.423   3.166   9.479 -0.0205 -0.3585 -0.1094
    7CHL1   C18  471   3.553   3.108   9.439 -1.0174 -0.1513 -0.2654
    7CHL1  H18A  472   3.547   3.002   9.406 -0.7206 -0.6048  1.0646
    7CHL1  H18B  473   3.599   3.170   9.359  0.9674  0.5857  1.3308
    7CHL1  H18C  474   3.621   3.115   9.528 -1.2581  0.1663 -0.1063
    7CHL1   C12  475   3.438   3.313   9.522  0.2028 -0.1227  0.8662
    7CHL1  H12A  476   3.484   3.380   9.447 -1.4044  2.6123  2.1617
    7CHL1  H12B  477   3.341   3.366   9.535  0.5528  1.1750 -1.3377
    7CHL1   C11  478   3.516   3.325   9.653 -0.2941 -0.5743 -0.7298
    7CHL1  H11A  479   3.619   3.288   9.636  0.8448  1.1033  1.9074
    7CHL1  H11B  480   3.522   3.434   9.675 -0.0440 -0.9701  1.4014
    7CHL1    C9  481   3.441   3.257   9.771  0.1297 -0.0907  0.2907
    7CHL1    H9  482   3.343   3.309   9.764  0.3510  0.1696 -1.0441
    7CHL1   C10  483   3.497   3.282   9.910 -0.4289 -0.2980  0.2479
    7CHL1   C19  484   3.652   3.267   9.905 -0.0587  0.4197  0.0098
    7CHL1  H19A  485   3.696   3.286  10.006 -0.7939 -1.6926  0.7718
    7CHL1  H19B  486   3.675   3.165   9.870  0.1076  0.7806 -0.9706
    7CHL1  H19C  487   3.697   3.340   9.834 -1.9331  0.7015 -0.9607
    7CHL1    C1  488   3.445   3.418   9.967 -0.0564  0.0035 -0.8523
    7CHL1   H1A  489   3.478   3.492   9.892  2.2975  0.1526  0.2184
    7CHL1   H1B  490   3.335   3.426   9.968  0.0537  1.7004 -0.8576
    7CHL1    C2  491   3.489   3.444  10.111  0.1242  0.1580  0.1747
    7CHL1   H2A  492   3.442   3.543  10.130 -0.5885  0.1949 -1.5937
    7CHL1   H2B  493   3.599   3.459  10.101 -0.2985  2.3083 -6.2521
    7CHL1   C20  494   3.366   3.189   9.233 -0.3236 -0.7257  0.2607
    7CHL1   H20  495   3.431   3.278   9.240 -1.3385 -0.0191  0.9739
    7CHL1   C21  496   3.234   3.238   9.155 -0.1029 -0.0941  0.4633
    7CHL1  H21A  497   3.164   3.302   9.213  0.2637  1.5169 -0.8238
    7CHL1  H21B  498   3.182   3.140   9.141 -1.0188  0.1034  2.1506
    7CHL1  H21C  499   3.265   3.294   9.065  0.4611  2.0664  1.9376
    7CHL1   C22  500   3.445   3.085   9.146 -0.3749 -0.1624 -0.8917
    7CHL1  H22A  501   3.543   3.066   9.194 -1.0778 -1.4122  0.0973
    7CHL1  H22B  502   3.394   2.986   9.143 -1.2387  0.2459 -0.0491
    7CHL1   C23  503   3.470   3.133   9.004  0.2852 -0.0738 -1.0464
    7CHL1  H23A  504   3.376   3.141   8.945  0.1709  0.4980 -0.7853
    7CHL1  H23B  505   3.513   3.234   9.021 -2.3916  1.2494 -1.6851
    7CHL1   C24  506   3.559   3.048   8.920  0.0247 -0.0139  0.1791
    7CHL1  H24A  507   3.654   3.046   8.978  2.1512  1.9078 -2.9119
    7CHL1  H24B  508   3.522   2.944   8.915 -1.7606  0.5431  0.8089
    7CHL1   C25  509   3.591   3.103   8.772 -0.1672  0.2753  0.2152
    7CHL1   H25  510   3.682   3.050   8.735  0.5109  2.1939 -1.0259
    7CHL1   C26  511   3.468   3.065   8.682 -0.5069 -0.1968 -0.2427
    7CHL1  H26A  512   3.478   3.115   8.583 -0.1238  1.1014  0.4353
    7CHL1  H26B  513   3.447   2.957   8.666  2.8382 -1.0921  0.6374
    7CHL1  H26C  514   3.377   3.104   8.731 -2.2975 -1.2360 -2.5262
    7CHL1   C27  515   3.594   3.251   8.756 -0.5534 -0.3279 -0.1759
    7CHL1  H27A  516   3.498   3.296   8.788  0.1987  1.6417 -0.5305
    7CHL1  H27B  517   3.676   3.297   8.816 -1.0255  0.2730  0.0224
    7CHL1  H27C  518   3.619   3.283   8.653 -0.2069  0.4616  0.1405
    8CHL1    C3  519   4.428   5.869  10.241  0.1818 -0.3896 -0.1346
    8CHL1    H3  520   4.319   5.861  10.219  0.6698  0.2281 -3.2625
    8CHL1    O3  521   4.443   5.845  10.374 -0.5143  0.0748 -0.1185
    8CHL1   H3'  522   4.530   5.880  10.396 -0.7445  0.1254  0.7619
    8CHL1    C4  523   4.493   5.767  10.146 -0.1734 -0.0923  0.2716
    8CHL1   H4A  524   4.601   5.754  10.170 -0.1139  0.4506  0.3071
    8CHL1   H4B  525   4.434   5.674  10.162  0.9707 -0.8375  0.2669
    8CHL1    C5  526   4.475   5.820  10.009  0.0582  0.3357  0.0855
    8CHL1    C6  527   4.434   5.733   9.913 -0.0132  0.6936 -0.0694
    8CHL1    H6  528   4.417   5.627   9.936  1.9183  0.5853  1.1644
    8CHL1    C7  529   4.432   5.761   9.763  0.1967 -0.3615  0.2555
    8CHL1   H7A  530   4.488   5.676   9.717  1.3078  0.3608  0.2250
    8CHL1   H7B  531   4.326   5.768   9.731  0.3377  3.9328  0.1354
    8CHL1    C8  532   4.504   5.888   9.723 -0.0609  0.9364  1.2693
    8CHL1    H8  533   4.613   5.867   9.719 -0.4885 -1.3093 -0.4844
    8CHL1   C14  534   4.468   5.928   9.580  0.3816  0.1817 -0.2798
    8CHL1   H14  535   4.357   5.939   9.575  0.4348  2.7719  1.8132
    8CHL1   C15  536   4.492   5.819   9.470  0.6567  0.1421 -0.3285
    8CHL1  H15A  537   4.596   5.780   9.476  0.4234 -0.4461 -0.0004
    8CHL1  H15B  538   4.427   5.729   9.476  1.0639 -0.0699  3.0847
    8CHL1   C16  539   4.494   5.908   9.338  0.2008  0.3729  0.7491
    8CHL1  H16A  540   4.588   5.900   9.279 -0.7829 -1.1031 -0.7141
    8CHL1  H16B  541   4.417   5.864   9.270 -1.2608 -0.4006  2.8017
    8CHL1   C17  542   4.473   6.061   9.375  1.0166  0.7616 -0.4754
    8CHL1   H17  543   4.363   6.071   9.366  1.0336 -0.1434 -1.9468
    8CHL1   C13  544   4.523   6.068   9.527  0.4193  0.1248 -0.3146
    8CHL1   C18  545   4.676   6.056   9.522  0.3689  0.0461 -0.3255
    8CHL1  H18A  546   4.717   6.031   9.622 -1.1333  0.2993  0.3793
    8CHL1  H18B  547   4.720   5.982   9.451 -0.0998 -0.0272 -0.5388
    8CHL1  H18C  548   4.706   6.156   9.483 -0.3824  0.1025 -0.7825
    8CHL1   C12  549   4.463   6.170   9.620  0.3042 -0.3105  0.1850
    8CHL1  H12A  550   4.506   6.269   9.593  0.9991 -0.4664  0.6749
    8CHL1  H12B  551   4.354   6.186   9.616 -0.0717 -2.1507  1.6153
    8CHL1   C11  552   4.507   6.142   9.769 -0.2066 -0.7973 -0.1874
    8CHL1  H11A  553   4.618   6.143   9.777 -0.3274  0.4139  2.0265
    8CHL1  H11B  554   4.472   6.225   9.834 -1.3580  0.0081 -1.7732
    8CHL1    C9  555   4.467   5.996   9.827  0.0904 -0.7191  0.0644
    8CHL1    H9  556   4.357   6.005   9.825  0.1703  0.9901  1.1167
    8CHL1   C10  557   4.512   5.959   9.976  0.5538 -0.2432  0.3107
    8CHL1   C19  558   4.667   5.961   9.991 -0.4667  0.1600  0.1368
    8CHL1  H19A  559   4.691   5.970  10.099  0.6654 -1.3392  0.0471
    8CHL1  H19B  560   4.718   5.873   9.946 -2.3535 -0.4821 -0.8311
    8CHL1  H19C  561   4.702   6.059   9.952 -1.2661 -0.4390 -2.2133
    8CHL1    C1  562   4.448   6.050  10.078  0.6028 -0.3958  0.1124
    8CHL1   H1A  563   4.493   6.151  10.064  0.6895 -0.0231  2.6072
    8CHL1   H1B  564   4.339   6.070  10.065  0.7833  1.7240  1.2031
    8CHL1    C2  565   4.475   6.007  10.217  0.0001  0.0180 -0.7795
    8CHL1   H2A  566   4.421   6.069  10.292  3.3351 -0.5859  2.3770
    8CHL1   H2B  567   4.576   6.025  10.258 -1.5425  1.3773  2.9393
    8CHL1   C20  568   4.533   6.154   9.269 -0.0696 -1.1706 -0.6156
    8CHL1   H20  569   4.642   6.133   9.264  0.8339  1.6615  2.9196
    8CHL1   C21  570   4.541   6.307   9.317  0.2589  0.4799 -0.1050
    8CHL1  H21A  571   4.432   6.325   9.329 -0.1147 -2.1391  1.2294
    8CHL1  H21B  572   4.584   6.381   9.247 -0.2246  0.4691 -0.4174
    8CHL1  H21C  573   4.596   6.321   9.413  0.4832  0.9082 -0.2927
    8CHL1   C22  574   4.473   6.136   9.129  0.2430  0.5682 -0.3957
    8CHL1  H22A  575   4.443   6.031   9.113 -1.6656  0.6555  2.0025
    8CHL1  H22B  576   4.380   6.197   9.121 -0.8900 -1.2018 -1.2166
    8CHL1   C23  577   4.575   6.189   9.027 -0.4170  0.8425 -0.3628
    8CHL1  H23A  578   4.637   6.277   9.057 -0.5887  1.7493 -2.5078
    8CHL1  H23B  579   4.643   6.105   9.004 -1.1726  0.1017  0.0628
    8CHL1   C24  580   4.515   6.225   8.894 -0.4055 -0.0131 -0.0856
    8CHL1  H24A  581   4.436   6.148   8.877  1.0213 -1.6499  0.4599
    8CHL1  H24B  582   4.467   6.326   8.901  0.6635  0.5591 -0.7747
    8CHL1   C25  583   4.604   6.219   8.767 -0.1589 -1.1823  0.1314
    8CHL1   H25  584   4.644   6.115   8.755 -0.6544 -1.1982 -1.5683
    8CHL1   C26  585   4.509   6.253   8.647 -0.4621 -0.3603 -0.2353
    8CHL1  H26A  586   4.434   6.172   8.640 -2.0798  0.8272  2.1082
    8CHL1  H26B  587   4.466   6.356   8.651  0.4067  0.2132 -2.9828
    8CHL1  H26C  588   4.577   6.246   8.559  0.5115  1.0460  0.3612
    8CHL1   C27  589   4.726   6.317   8.769 -0.2131 -0.1211 -0.5871
    8CHL1  H27A  590   4.681   6.419   8.771 -0.7952 -0.3816 -0.0064
    8CHL1  H27B  591   4.776   6.302   8.867 -2.2639 -0.3046  0.5009
    8CHL1  H27C  592   4.797   6.319   8.684  0.7532  0.1758  0.2087
    9CHL1    C3  593   6.511   1.540  10.404 -0.7730  0.2334  0.6265
    9CHL1    H3  594   6.506   1.429  10.393 -1.2053  0.0851  2.0777
    9CHL1    O3  595   6.563   1.566  10.534  0.2890  0.0700 -0.2773
    9CHL1   H3'  596   6.644   1.516  10.550  1.7670  2.6552  1.1580
    9CHL1    C4  597   6.625   1.596  10.301 -0.2654  0.0605  0.3130
    9CHL1   H4A  598   6.651   1.701  10.327 -0.1243 -0.3039  1.7279
    9CHL1   H4B  599   6.721   1.546  10.326 -0.9843 -1.7088 -0.3162
    9CHL1    C5  600   6.593   1.592  10.149  0.3665 -0.0098 -0.0890
    9CHL1    C6  601   6.686   1.548  10.064  0.2197 -0.7811  0.6858
    9CHL1    H6  602   6.788   1.528  10.099  1.1569 -0.9675 -1.8848
    9CHL1    C7  603   6.656   1.534   9.909 -0.1716 -0.2548 -0.0957
    9CHL1   H7A  604   6.740   1.580   9.852  0.8250 -0.8941  0.8296
    9CHL1   H7B  605   6.654   1.425   9.889  1.3328 -1.0058  3.1609
    9CHL1    C8  606   6.526   1.604   9.864 -0.0457 -0.1387  0.1999
    9CHL1    H8  607   6.537   1.715   9.857 -1.1650  0.0231  0.8599
    9CHL1   C14  608   6.483   1.549   9.725  0.1373 -0.1255  0.3034
    9CHL1   H14  609   6.459   1.440   9.730  2.0987 -0.5669  0.7727
    9CHL1   C15  610   6.591   1.558   9.614 -1.0448 -0.1056 -0.1346
    9CHL1  H15A  611   6.636   1.660   9.610 -1.5002  0.1091  0.0394
    9CHL1  H15B  612   6.666   1.478   9.632 -1.6456 -0.0868  2.9987
    9CHL1   C16  613   6.507   1.535   9.491 -0.2545  0.2703  0.5245
    9CHL1  H16A  614   6.517   1.608   9.407  0.2499 -0.6288 -0.2232
    9CHL1  H16B  615   6.518   1.431   9.454  0.7914  1.6761 -3.7775
    9CHL1   C17  616   6.358   1.547   9.530  0.6168 -0.5345  0.6582
    9CHL1   H17  617   6.311   1.448   9.546 -0.4168 -0.8357 -3.1682
    9CHL1   C13  618   6.362   1.615   9.664 -0.5844  0.3654  0.1972
    9CHL1   C18  619   6.382   1.768   9.640 -0.3390 -0.0092 -0.3995
    9CHL1  H18A  620   6.396   1.833   9.729 -2.9025 -0.7014  0.5849
    9CHL1  H18B  621   6.462   1.783   9.564 -0.2370 -0.3785 -0.3663
    9CHL1  H18C  622   6.289   1.813   9.599 -1.6097 -0.7253  1.5900
    9CHL1   C12  623   6.252   1.578   9.762  0.5762  0.5923 -0.5318
    9CHL1  H12A  624   6.154   1.621   9.732  0.5812  0.8142 -0.2396
    9CHL1  H12B  625   6.233   1.469   9.760 -0.0891  0.6904 -0.1046
    9CHL1   C11  626   6.280   1.622   9.909  0.4738  0.7142 -0.7359
    9CHL1  H11A  627   6.284   1.734   9.907  0.9574  0.7458  0.5778
    9CHL1  H11B  628   6.196   1.599   9.978  0.7515 -0.9545 -0.9292
    9CHL1    C9  629   6.418   1.579   9.966  0.1435  0.2727 -0.1020
    9CHL1    H9  630   6.419   1.470   9.990  2.3124  0.6372  1.7634
    9CHL1   C10  631   6.447   1.629  10.115  0.2354  0.2095 -0.1789
    9CHL1   C19  632   6.450   1.781  10.119 -0.8351  0.1689 -0.0212
    9CHL1  H19A  633   6.525   1.828  10.053 -0.9662  3.7084  2.0764
    9CHL1  H19B  634   6.355   1.833  10.092 -0.2951  1.3799  0.3353
    9CHL1  H19C  635   6.458   1.825  10.221 -0.8843 -1.6897  0.8183
    9CHL1    C1  636   6.350   1.571  10.221  0.4386 -0.7444 -0.0441
    9CHL1   H1A  637   6.249   1.615  10.204 -0.3625 -2.5203 -0.0416
    9CHL1   H1B  638   6.354   1.461  10.210  2.7766 -0.5449 -2.0812
    9CHL1    C2  639   6.383   1.602  10.371 -0.3339  0.6677  0.1679
    9CHL1   H2A  640   6.302   1.572  10.440  0.2169 -0.9075  0.1777
    9CHL1   H2B  641   6.389   1.712  10.389 -2.1070  0.6455  1.0511
    9CHL1   C20  642   6.271   1.612   9.423 -0.3590  0.0181  0.5193
    9CHL1   H20  643   6.299   1.715   9.393  2.6271 -0.6959  0.5231
    9CHL1   C21  644   6.117   1.613   9.458  0.1161 -0.6140  0.1318
    9CHL1  H21A  645   6.037   1.651   9.392 -1.5475 -0.3975  2.1581
    9CHL1  H21B  646   6.100   1.682   9.544  0.9977  1.1342 -1.0441
    9CHL1  H21C  647   6.086   1.509   9.483  0.3652 -0.6683  0.2179
    9CHL1   C22  648   6.289   1.539   9.284  0.6788  0.7328  0.4049
    9CHL1  H22A  649   6.373   1.587   9.228  0.5816  0.7204  0.2480
    9CHL1  H22B  650   6.313   1.431   9.292  1.3315  0.9381  1.3561
    9CHL1   C23  651   6.160   1.550   9.192 -0.5129  1.0916 -0.2362
    9CHL1  H23A  652   6.073   1.494   9.234 -0.7418  0.2874 -1.6976
    9CHL1  H23B  653   6.136   1.658   9.189  1.3737  1.5971  1.0862
    9CHL1   C24  654   6.199   1.508   9.050 -0.6062  0.6310  0.4045
    9CHL1  H24A  655   6.288   1.567   9.022  1.2655 -0.9160  2.6588
    9CHL1  H24B  656   6.242   1.406   9.061  0.4065  0.9301 -0.6320
    9CHL1   C25  657   6.082   1.514   8.952  0.0930  0.5851  0.4394
    9CHL1   H25  658   6.003   1.445   8.989  0.5245  1.5339  3.4092
    9CHL1   C26  659   6.021   1.660   8.937  0.1764  0.6029  0.1824
    9CHL1  H26A  660   5.940   1.660   8.861  1.8471  0.1402 -1.6907
    9CHL1  H26B  661   5.970   1.680   9.033 -2.3311  1.2321 -1.1939
    9CHL1  H26C  662   6.100   1.735   8.919  2.2378 -1.4349  0.2418
    9CHL1   C27  663   6.117   1.477   8.806 -0.2835  0.3193 -0.1439
    9CHL1  H27A  664   6.203   1.537   8.771 -0.7523 -0.2599 -2.4800
    9CHL1  H27B  665   6.156   1.373   8.808  4.2490  1.8187  0.9185
    9CHL1  H27C  666   6.025   1.488   8.745 -0.8191 -3.8725 -0.3686
   10CHL1    C3  667   6.320   5.722   9.922  0.3220  0.1014  0.1181
   10CHL1    H3  668   6.430   5.733   9.931  0.1272  3.4033 -0.3821
   10CHL1    O3  669   6.256   5.722  10.049  0.8815  0.2290  0.6703
   10CHL1   H3'  670   6.317   5.674  10.106 -0.0425  0.2638  1.7192
   10CHL1    C4  671   6.280   5.850   9.849  0.6116  0.0406 -0.1259
   10CHL1   H4A  672   6.171   5.874   9.853  0.4769 -0.5814 -0.0730
   10CHL1   H4B  673   6.326   5.929   9.912 -0.1983 -0.5947  1.3250
   10CHL1    C5  674   6.320   5.857   9.705 -0.9566 -1.2105  0.3438
   10CHL1    C6  675   6.395   5.960   9.658 -0.1554 -0.1426 -0.4043
   10CHL1    H6  676   6.430   6.035   9.730  3.0730  0.3315 -2.2784
   10CHL1    C7  677   6.439   5.981   9.515  0.1197  0.8624 -0.3988
   10CHL1   H7A  678   6.425   6.083   9.475  2.7874  1.9060  1.0815
   10CHL1   H7B  679   6.549   5.969   9.511  0.0130 -0.4129 -0.0057
   10CHL1    C8  680   6.361   5.883   9.419  0.1823  0.7685 -0.6241
   10CHL1    H8  681   6.261   5.926   9.400  0.5707  1.7667 -0.4822
   10CHL1   C14  682   6.427   5.885   9.284  1.0532  0.2935  0.0300
   10CHL1   H14  683   6.532   5.850   9.296  0.4674 -2.1103 -1.1353
   10CHL1   C15  684   6.437   6.017   9.206  0.0003  0.6182  0.4267
   10CHL1  H15A  685   6.341   6.072   9.197 -0.4729 -0.4561 -2.0103
   10CHL1  H15B  686   6.520   6.083   9.241  0.2695 -0.0989  1.1657
   10CHL1   C16  687   6.450   5.980   9.054  0.9829 -0.0781  0.6945
   10CHL1  H16A  688   6.365   6.011   8.990  0.3377 -0.7716  1.1997
   10CHL1  H16B  689   6.535   6.030   9.003 -1.1410  0.9879 -2.0356
   10CHL1   C17  690   6.434   5.820   9.052 -0.3697 -0.2577 -0.2692
   10CHL1   H17  691   6.527   5.762   9.068 -0.3001  0.2279  1.2926
   10CHL1   C13  692   6.363   5.787   9.187  0.5392  0.2846 -0.5057
   10CHL1   C18  693   6.210   5.804   9.162  0.1580 -0.0467 -0.1945
   10CHL1  H18A  694   6.188   5.899   9.110  2.0850  1.0399  0.8742
   10CHL1  H18B  695   6.174   5.729   9.088 -1.0736 -1.5081  1.7574
   10CHL1  H18C  696   6.156   5.796   9.259 -0.9267 -2.6826 -0.9189
   10CHL1   C12  697   6.383   5.638   9.248  0.0221 -0.2165  0.4361
   10CHL1  H12A  698   6.346   5.557   9.183  0.4122  1.2424 -1.7321
   10CHL1  H12B  699   6.492   5.623   9.235  0.2685  2.2084 -0.8649
   10CHL1   C11  700   6.331   5.632   9.389  0.0430 -0.1540 -0.6447
   10CHL1  H11A  701   6.221   5.620   9.382 -0.2059  0.0764  2.0384
   10CHL1  H11B  702   6.364   5.536   9.433 -0.7107  0.0164  0.3183
   10CHL1    C9  703   6.364   5.747   9.484 -0.0693 -0.1437  0.9493
   10CHL1    H9  704   6.468   5.727   9.518 -0.4160 -0.4585  1.8500
   10CHL1   C10  705   6.289   5.734   9.614 -0.3372 -0.1609  0.3742
   10CHL1   C19  706   6.134   5.732   9.594 -0.3282  0.3074 -0.3507
   10CHL1  H19A  707   6.105   5.641   9.537 -0.2530  0.5118 -0.7184
   10CHL1  H19B  708   6.082   5.700   9.687  0.0534 -1.9476 -0.8438
   10CHL1  H19C  709   6.100   5.816   9.530  2.5445  0.5584 -1.7185
   10CHL1    C1  710   6.338   5.609   9.694  0.3707  0.8869 -0.3155
   10CHL1   H1A  711   6.308   5.512   9.648 -0.8036  1.5699 -1.0295
   10CHL1   H1B  712   6.450   5.613   9.693  0.5112 -1.4039  0.4408
   10CHL1    C2  713   6.275   5.594   9.836  0.6119 -1.2578 -0.3903
   10CHL1   H2A  714   6.318   5.509   9.893 -0.9293 -2.4919 -0.9886
   10CHL1   H2B  715   6.164   5.588   9.835  0.3704  1.8039 -0.4206
   10CHL1   C20  716   6.375   5.762   8.919  0.4762 -0.8761  0.1859
   10CHL1   H20  717   6.270   5.798   8.919  1.1981  1.4124 -0.2021
   10CHL1   C21  718   6.374   5.606   8.907 -0.1433 -0.5549  1.0059
   10CHL1  H21A  719   6.310   5.557   8.983  0.1047 -0.3222  1.3630
   10CHL1  H21B  720   6.474   5.559   8.919  0.5161  0.1607 -1.1747
   10CHL1  H21C  721   6.332   5.577   8.808 -0.7962  3.9008 -0.2754
   10CHL1   C22  722   6.447   5.819   8.790  1.0272  0.2980 -0.0451
   10CHL1  H22A  723   6.445   5.929   8.800  0.1783  0.1963  1.0852
   10CHL1  H22B  724   6.552   5.783   8.784  1.4082  1.5820 -1.4438
   10CHL1   C23  725   6.366   5.785   8.663 -0.1168 -0.2184  0.3155
   10CHL1  H23A  726   6.385   5.677   8.643  1.2256  0.0283  0.2013
   10CHL1  H23B  727   6.262   5.814   8.689 -0.6287 -1.6513 -0.0335
   10CHL1   C24  728   6.403   5.871   8.548  0.7944  0.3134  1.0156
   10CHL1  H24A  729   6.367   5.976   8.542  1.4561  0.4980 -3.7007
   10CHL1  H24B  730   6.514   5.872   8.551  0.8194  0.0407  0.2609
   10CHL1   C25  731   6.354   5.818   8.412  0.2936 -0.9267  0.7473
   10CHL1   H25  732   6.390   5.714   8.398  3.0160 -0.0054  0.2101
   10CHL1   C26  733   6.198   5.832   8.397 -0.1084  0.4444  0.3836
   10CHL1  H26A  734   6.178   5.941   8.396 -2.2601  0.0909  1.2428
   10CHL1  H26B  735   6.169   5.790   8.299  1.4554  2.5059 -1.0707
   10CHL1  H26C  736   6.141   5.789   8.482 -1.4382 -0.4686 -0.9382
   10CHL1   C27  737   6.432   5.900   8.308  0.5823 -0.2922  0.5637
   10CHL1  H27A  738   6.541   5.885   8.318  0.4137 -0.2928  2.8670
   10CHL1  H27B  739   6.399   5.865   8.208 -0.7393  0.7853  0.5816
   10CHL1  H27C  740   6.400   6.006   8.320  1.8301  0.1647  0.0728
   11CHL1    C3  741   1.491   2.685   9.977  0.9688 -0.4058 -0.4383
   11CHL1    H3  742   1.573   2.760   9.971  0.5485  0.0151 -0.9779
   11CHL1    O3  743   1.481   2.664  10.117 -0.0246  0.1162 -0.1299
   11CHL1   H3'  744   1.427   2.585  10.120 -0.7501  0.6083  0.2550
   11CHL1    C4  745   1.353   2.731   9.927 -0.7191 -0.2959 -0.0180
   11CHL1   H4A  746   1.260   2.674   9.948 -0.9152  0.4255  1.1417
   11CHL1   H4B  747   1.327   2.820   9.988 -0.1040 -1.2323  1.6841
   11CHL1    C5  748   1.370   2.764   9.784 -0.0062  0.3081 -0.3319
   11CHL1    C6  749   1.348   2.890   9.739  0.6853  0.0259  0.0725
   11CHL1    H6  750   1.309   2.969   9.805  0.5145 -0.1818  0.2204
   11CHL1    C7  751   1.365   2.930   9.597 -0.0807  0.1012  0.4385
   11CHL1   H7A  752   1.275   2.987   9.567 -1.4571 -1.5091  1.2690
   11CHL1   H7B  753   1.456   2.991   9.580  0.7915 -1.1794  0.3692
   11CHL1    C8  754   1.371   2.803   9.509  0.4729 -0.7591  0.2385
   11CHL1    H8  755   1.265   2.770   9.503  0.6837 -1.2867 -0.9573
   11CHL1   C14  756   1.398   2.856   9.362 -0.8305  0.1709 -0.3934
   11CHL1   H14  757   1.497   2.904   9.369 -0.3935 -0.7636  0.1046
   11CHL1   C15  758   1.300   2.953   9.292 -0.8042  0.3619 -0.0183
   11CHL1  H15A  759   1.193   2.921   9.291 -0.4893 -0.7762  0.8824
   11CHL1  H15B  760   1.294   3.061   9.319 -2.2160  1.5567 -4.2568
   11CHL1   C16  761   1.343   2.945   9.146 -0.1409 -0.7943 -0.4114
   11CHL1  H16A  762   1.252   2.931   9.084 -1.9624 -0.1732  1.9584
   11CHL1  H16B  763   1.389   3.045   9.129 -0.0163 -1.0051 -1.3454
   11CHL1   C17  764   1.446   2.832   9.142  0.3121 -0.1425 -0.2713
   11CHL1   H17  765   1.542   2.882   9.169  0.3930 -0.4390 -0.0044
   11CHL1   C13  766   1.412   2.745   9.261  0.7447 -0.0862 -0.5931
   11CHL1   C18  767   1.278   2.665   9.243  0.2777 -0.0289 -0.2977
   11CHL1  H18A  768   1.248   2.611   9.336 -0.7262  1.5914  0.3651
   11CHL1  H18B  769   1.187   2.729   9.238  1.4587  1.9118  1.2942
   11CHL1  H18C  770   1.275   2.602   9.152  2.0353 -0.5049 -0.0665
   11CHL1   C12  771   1.528   2.646   9.313  0.0970  0.4141 -0.4319
   11CHL1  H12A  772   1.546   2.564   9.241 -0.2834  0.9041 -1.0890
   11CHL1  H12B  773   1.622   2.707   9.314  0.1175  0.5710  3.3743
   11CHL1   C11  774   1.499   2.587   9.452 -0.0005  0.5220  0.6999
   11CHL1  H11A  775   1.411   2.519   9.442  1.5920 -1.6192  0.5187
   11CHL1  H11B  776   1.583   2.523   9.487  1.1118  1.3153 -0.4401
   11CHL1    C9  777   1.472   2.699   9.556 -0.3479 -1.1261  0.4526
   11CHL1    H9  778   1.569   2.753   9.565 -0.0548 -1.9062  2.4607
   11CHL1   C10  779   1.437   2.643   9.699  0.1909  0.1740  0.1975
   11CHL1   C19  780   1.323   2.546   9.685 -0.1419  0.2387  0.8367
   11CHL1  H19A  781   1.300   2.502   9.784 -0.8667 -0.5871  0.3207
   11CHL1  H19B  782   1.235   2.593   9.635 -0.0448  1.8388  2.0916
   11CHL1  H19C  783   1.354   2.457   9.626  0.7525  0.7304  0.5489
   11CHL1    C1  784   1.566   2.581   9.768  0.1830 -0.2639  0.3959
   11CHL1   H1A  785   1.584   2.483   9.718 -0.7574 -1.2430  1.8991
   11CHL1   H1B  786   1.654   2.647   9.754  0.3094 -0.6079 -0.5008
   11CHL1    C2  787   1.540   2.555   9.916  0.3913 -0.0100 -0.2638
   11CHL1   H2A  788   1.636   2.524   9.962  0.2268  0.4827  0.4261
   11CHL1   H2B  789   1.463   2.477   9.929  2.5376 -2.6007 -1.9799
   11CHL1   C20  790   1.465   2.779   8.999  0.0671 -0.2833  0.4144
   11CHL1   H20  791   1.494   2.672   9.008  0.3039 -0.3471 -0.9624
   11CHL1   C21  792   1.562   2.880   8.941  0.1505  0.1350 -0.0765
   11CHL1  H21A  793   1.528   2.986   8.945  0.3468  0.2003 -0.1165
   11CHL1  H21B  794   1.585   2.868   8.833  2.4034  0.7486  0.2748
   11CHL1  H21C  795   1.660   2.870   8.992 -0.7747  2.2024  2.3275
   11CHL1   C22  796   1.340   2.770   8.912 -0.2580 -0.4700  0.5693
   11CHL1  H22A  797   1.250   2.729   8.963 -1.1692 -1.4999 -1.7126
   11CHL1  H22B  798   1.313   2.873   8.881  2.2582 -0.7007 -2.9822
   11CHL1   C23  799   1.363   2.688   8.787 -0.4190 -0.0119  0.2836
   11CHL1  H23A  800   1.397   2.757   8.706 -0.8500  0.3628  0.4156
   11CHL1  H23B  801   1.443   2.615   8.809 -1.6081 -1.4836 -0.0645
   11CHL1   C24  802   1.247   2.597   8.756  0.2588 -0.4663  0.5096
   11CHL1  H24A  803   1.285   2.524   8.682  1.3142 -0.9719  1.5232
   11CHL1  H24B  804   1.216   2.548   8.851 -1.5985  1.5319  1.0408
   11CHL1   C25  805   1.116   2.672   8.713  0.6923  0.1310 -0.1434
   11CHL1   H25  806   1.091   2.756   8.782 -0.6049  1.0676 -1.6513
   11CHL1   C26  807   1.126   2.724   8.575  0.5486  0.2434  0.1903
   11CHL1  H26A  808   1.156   2.643   8.505 -0.4079 -0.3516  0.4520
   11CHL1  H26B  809   1.024   2.757   8.546  0.1657 -1.4847 -0.5367
   11CHL1  H26C  810   1.202   2.805   8.567  0.3472  0.2595 -2.4306
   11CHL1   C27  811   0.995   2.580   8.724 -0.6046  0.2152 -1.0369
   11CHL1  H27A  812   0.986   2.510   8.638  1.3714  0.0292 -1.1393
   11CHL1  H27B  813   1.003   2.512   8.811  1.3303  0.5984 -0.8741
   11CHL1  H27C  814   0.904   2.642   8.741  0.5192  1.2134  2.0994
   12CHL1    C3  815   4.302   6.474  10.274  0.1363  0.6699  0.1972
   12CHL1    H3  816   4.395   6.525  10.244 -0.9471  0.8773 -3.2591
   12CHL1    O3  817   4.301   6.448  10.409 -0.4526  0.0506  0.1918
   12CHL1   H3'  818   4.245   6.374  10.431 -0.0788 -2.1473 -4.9211
   12CHL1    C4  819   4.175   6.558  10.245  0.4967  0.2890 -1.0045
   12CHL1   H4A  820   4.083   6.503  10.274  0.4634  0.5644 -0.5701
   12CHL1   H4B  821   4.190   6.648  10.309 -0.1106  0.2371 -0.7858
   12CHL1    C5  822   4.167   6.590  10.103 -0.7576 -0.9270 -0.2312
   12CHL1    C6  823   4.182   6.721  10.063  0.6052 -0.8420  0.0901
   12CHL1    H6  824   4.196   6.801  10.137 -4.1567  0.9360 -0.5807
   12CHL1    C7  825   4.163   6.770   9.925  0.0482  0.1918 -0.4583
   12CHL1   H7A  826   4.098   6.860   9.926  0.1736  0.3036 -1.3211
   12CHL1   H7B  827   4.255   6.823   9.891  0.4257  0.1100  0.4113
   12CHL1    C8  828   4.110   6.664   9.826 -0.6955 -0.1087  0.1897
   12CHL1    H8  829   4.000   6.646   9.837 -1.0201  0.7598 -1.4515
   12CHL1   C14  830   4.148   6.699   9.679 -0.2977 -0.0689  0.1178
   12CHL1   H14  831   4.258   6.715   9.679 -0.5222  1.5767  0.1125
   12CHL1   C15  832   4.104   6.836   9.630 -0.0538 -0.2482 -0.6062
   12CHL1  H15A  833   3.996   6.851   9.652 -0.2044  0.4697 -1.7338
   12CHL1  H15B  834   4.169   6.913   9.675 -1.4002  0.0859  0.8513
   12CHL1   C16  835   4.140   6.832   9.482 -0.0903  0.9840  0.4982
   12CHL1  H16A  836   4.063   6.882   9.419  1.4924 -0.0124 -2.4274
   12CHL1  H16B  837   4.237   6.875   9.449  0.9449 -2.3491 -1.1928
   12CHL1   C17  838   4.150   6.679   9.449 -0.0539 -0.4271  0.1019
   12CHL1   H17  839   4.260   6.666   9.456 -0.0587  0.3523  2.1610
   12CHL1   C13  840   4.117   6.594   9.574 -0.1913  0.3694 -0.4457
   12CHL1   C18  841   3.968   6.575   9.581 -0.1346 -0.4214 -0.1524
   12CHL1  H18A  842   3.910   6.665   9.554  0.2210 -0.7194 -2.0797
   12CHL1  H18B  843   3.939   6.489   9.516 -0.4492 -1.7715  1.7117
   12CHL1  H18C  844   3.930   6.549   9.682  0.4060  2.5621  0.9194
   12CHL1   C12  845   4.201   6.468   9.601 -0.2817  0.4453  0.1861
   12CHL1  H12A  846   4.175   6.391   9.525  2.8114  0.7177 -1.2929
   12CHL1  H12B  847   4.309   6.489   9.590  0.0519 -1.1670  0.1645
   12CHL1   C11  848   4.167   6.428   9.745  0.0695  0.5685  0.0609
   12CHL1  H11A  849   4.062   6.394   9.739  0.8697 -2.0352 -0.6551
   12CHL1  H11B  850   4.237   6.343   9.763  0.2059  0.0549 -2.4610
   12CHL1    C9  851   4.183   6.534   9.856 -0.0862  0.2559  0.3020
   12CHL1    H9  852   4.293   6.552   9.848  0.7942 -3.9245  0.9825
   12CHL1   C10  853   4.168   6.475   9.999 -0.3225  0.0981 -0.5190
   12CHL1   C19  854   4.029   6.404  10.013 -0.7649  0.0951 -0.5179
   12CHL1  H19A  855   3.946   6.475   9.997 -0.3458  2.4383  5.3494
   12CHL1  H19B  856   4.024   6.306   9.961  1.8177 -1.1046  1.2549
   12CHL1  H19C  857   4.011   6.379  10.120 -1.1282  1.4847 -0.2358
   12CHL1    C1  858   4.276   6.374  10.037  0.1831 -0.3780 -0.0299
   12CHL1   H1A  859   4.248   6.282   9.982 -0.9628  0.1517 -0.3652
   12CHL1   H1B  860   4.372   6.408   9.993 -1.0155 -0.1272 -2.5867
   12CHL1    C2  861   4.289   6.346  10.192  0.7585 -0.0226  0.5143
   12CHL1   H2A  862   4.361   6.265  10.218 -0.3894 -1.1869  0.1862
   12CHL1   H2B  863   4.196   6.292  10.221  0.0909 -0.9291 -2.7963
   12CHL1   C20  864   4.099   6.620   9.307  0.0109 -0.0295 -0.1907
   12CHL1   H20  865   4.082   6.510   9.316 -0.4787  0.1944  2.6957
   12CHL1   C21  866   4.213   6.625   9.202  0.2539 -0.0195 -0.4392
   12CHL1  H21A  867   4.248   6.729   9.185  1.0797  0.3728  2.9987
   12CHL1  H21B  868   4.172   6.567   9.117  0.3771 -2.2156  0.9187
   12CHL1  H21C  869   4.303   6.582   9.251 -0.3056  2.4609  3.2097
   12CHL1   C22  870   3.966   6.686   9.256 -0.4819  0.3663 -0.4605
   12CHL1  H22A  871   3.898   6.657   9.338  0.2816  0.9285  0.3811
   12CHL1  H22B  872   3.979   6.796   9.251  2.8836  0.2398  2.0890
   12CHL1   C23  873   3.909   6.618   9.123 -0.2191  0.1573 -0.1868
   12CHL1  H23A  874   3.989   6.644   9.051 -0.4907 -0.5609 -0.7576
   12CHL1  H23B  875   3.905   6.510   9.150  2.7651 -0.9243 -3.3729
   12CHL1   C24  876   3.783   6.687   9.074  0.7537  0.6595  0.1624
   12CHL1  H24A  877   3.705   6.679   9.153 -0.4392 -1.9056 -1.1862
   12CHL1  H24B  878   3.814   6.792   9.053 -3.1618  1.6405 -1.5610
   12CHL1   C25  879   3.723   6.639   8.943 -0.4698  0.4331  0.6179
   12CHL1   H25  880   3.795   6.651   8.859  0.7484 -1.4391  1.3293
   12CHL1   C26  881   3.687   6.491   8.946 -0.2777 -0.5541  0.4368
   12CHL1  H26A  882   3.641   6.469   9.045  0.8974 -1.3445  0.8200
   12CHL1  H26B  883   3.620   6.462   8.861  1.8932 -1.5616 -1.0136
   12CHL1  H26C  884   3.780   6.431   8.948 -0.4319 -0.8068  0.1490
   12CHL1   C27  885   3.604   6.726   8.892 -0.3088 -0.4336  0.1063
   12CHL1  H27A  886   3.631   6.829   8.923 -1.6310 -0.5008  1.6126
   12CHL1  H27B  887   3.596   6.725   8.781  1.2905  1.4237 -0.0837
   12CHL1  H27C  888   3.510   6.687   8.937 -1.4303  1.0940 -0.8327
   13CHL1    C3  889   2.480   1.089   9.945 -0.0148  0.7186  0.5663
   13CHL1    H3  890   2.470   0.982   9.920  1.8041  1.0175 -1.8275
   13CHL1    O3  891   2.481   1.111  10.091  0.0172  0.6195  0.3383
   13CHL1   H3'  892   2.567   1.094  10.131  1.0014  2.3211 -0.9212
   13CHL1    C4  893   2.611   1.141   9.879 -0.1724  0.3180 -0.8454
   13CHL1   H4A  894   2.613   1.248   9.909 -0.6982  0.9575 -2.9198
   13CHL1   H4B  895   2.700   1.090   9.921  0.7503  1.4147 -1.4324
   13CHL1    C5  896   2.619   1.130   9.730 -1.0894 -0.0653  0.6352
   13CHL1    C6  897   2.723   1.071   9.664 -0.5537  0.6240 -0.4290
   13CHL1    H6  898   2.801   1.028   9.728 -0.9294  1.6710  0.7765
   13CHL1    C7  899   2.726   1.049   9.517  0.1309 -0.3990  0.1156
   13CHL1   H7A  900   2.827   1.067   9.476 -0.0713  1.1340  0.2138
   13CHL1   H7B  901   2.713   0.943   9.486 -0.0382 -0.5985  0.8450
   13CHL1    C8  902   2.631   1.144   9.441  1.1280  0.4277  0.2036
   13CHL1    H8  903   2.666   1.250   9.443 -1.9354  1.6156 -1.3081
   13CHL1   C14  904   2.632   1.104   9.297 -0.4314 -0.5115  0.2178
   13CHL1   H14  905   2.588   1.002   9.292 -1.6190  0.0197 -0.9015
   13CHL1   C15  906   2.771   1.090   9.226 -0.2529 -0.7952 -0.1020
   13CHL1  H15A  907   2.834   1.178   9.252 -2.0175 -0.1247  2.1604
   13CHL1  H15B  908   2.827   0.999   9.256  0.2063 -0.6250 -0.4302
   13CHL1   C16  909   2.739   1.097   9.076  0.7731  0.0768  0.4173
   13CHL1  H16A  910   2.805   1.174   9.030 -1.3008  2.6384  1.4986
   13CHL1  H16B  911   2.749   0.995   9.033 -0.5239  0.6735 -1.4005
   13CHL1   C17  912   2.593   1.142   9.070 -0.0271 -0.1370  0.7453
   13CHL1   H17  913   2.543   1.045   9.052 -0.4721 -0.0023  1.2509
   13CHL1   C13  914   2.553   1.199   9.204 -0.6026 -0.3945 -0.0829
   13CHL1   C18  915   2.620   1.339   9.213  0.6276 -0.0670 -0.7986
   13CHL1  H18A  916   2.606   1.390   9.311  1.1067 -1.3083 -0.0712
   13CHL1  H18B  917   2.729   1.333   9.192  1.3801 -0.0131  2.5281
   13CHL1  H18C  918   2.570   1.418   9.152  0.7753  0.7955  0.1680
   13CHL1   C12  919   2.410   1.199   9.262  0.2690  0.6040 -0.3225
   13CHL1  H12A  920   2.351   1.265   9.195  1.1015  2.9196  1.1433
   13CHL1  H12B  921   2.364   1.100   9.240 -1.1900  1.0695  0.5119
   13CHL1   C11  922   2.403   1.228   9.411 -0.7555 -0.2030 -0.3378
   13CHL1  H11A  923   2.433   1.334   9.425  1.5422 -0.9660  0.8652
   13CHL1  H11B  924   2.296   1.217   9.441 -1.1735 -0.9031 -1.9565
   13CHL1    C9  925   2.488   1.146   9.500 -0.4050 -0.2348 -0.2333
   13CHL1    H9  926   2.473   1.036   9.498  1.3321 -0.5479  1.6491
   13CHL1   C10  927   2.490   1.182   9.651  0.2950 -0.5758  0.3918
   13CHL1   C19  928   2.487   1.337   9.670  0.7502  0.4368 -0.2577
   13CHL1  H19A  929   2.501   1.370   9.775  2.5152  1.1013 -0.6765
   13CHL1  H19B  930   2.549   1.405   9.608  1.5157  0.7580  0.8181
   13CHL1  H19C  931   2.384   1.370   9.644  0.9347 -1.1438 -3.4513
   13CHL1    C1  932   2.369   1.116   9.730  0.2982 -0.1082 -0.1781
   13CHL1   H1A  933   2.277   1.162   9.689 -0.1071  0.2942  1.1527
   13CHL1   H1B  934   2.378   1.006   9.714 -0.5481 -0.7866  3.2351
   13CHL1    C2  935   2.360   1.148   9.883  0.3684  0.0536  0.2683
   13CHL1   H2A  936   2.272   1.095   9.926  0.6656  0.2320  1.1102
   13CHL1   H2B  937   2.361   1.258   9.898  0.3364  0.1760 -0.5865
   13CHL1   C20  938   2.561   1.231   8.947 -0.6437  0.5655 -0.3096
   13CHL1   H20  939   2.622   1.324   8.943  1.2662 -0.6799 -2.5640
   13CHL1   C21  940   2.419   1.275   8.938  0.0451  0.3282  0.4476
   13CHL1  H21A  941   2.362   1.184   8.968 -0.0630 -0.2391 -1.3548
   13CHL1  H21B  942   2.375   1.297   8.839  0.0077  2.3090  0.8697
   13CHL1  H21C  943   2.392   1.364   8.998  1.7670  0.6282  0.8521
   13CHL1   C22  944   2.588   1.149   8.817 -0.0495 -0.4217  0.7639
   13CHL1  H22A  945   2.683   1.090   8.815  0.5636  0.3580 -3.4377
   13CHL1  H22B  946   2.507   1.077   8.791 -0.4820  0.7370 -1.3248
   13CHL1   C23  947   2.603   1.232   8.687  0.2691 -0.3310  1.1626
   13CHL1  H23A  948   2.524   1.310   8.681  0.2603 -0.3906  0.3792
   13CHL1  H23B  949   2.701   1.282   8.701 -0.9704  2.1830  1.4376
   13CHL1   C24  950   2.601   1.159   8.549  0.4602  0.2425 -0.4572
   13CHL1  H24A  951   2.693   1.097   8.550  0.6334  0.4680 -1.2634
   13CHL1  H24B  952   2.508   1.099   8.546  0.9400 -0.4977 -0.7966
   13CHL1   C25  953   2.611   1.246   8.429 -0.6042  0.7309 -0.1148
   13CHL1   H25  954   2.656   1.188   8.346 -0.7677 -0.3323  0.5209
   13CHL1   C26  955   2.469   1.286   8.390 -0.3028 -0.8677  0.0308
   13CHL1  H26A  956   2.413   1.334   8.472  1.0349 -0.1415  0.5521
   13CHL1  H26B  957   2.458   1.355   8.303  1.1472 -0.9404 -0.2402
   13CHL1  H26C  958   2.411   1.196   8.361 -0.5156 -0.7918  0.2233
   13CHL1   C27  959   2.700   1.368   8.448  0.1359  0.3528  0.1916
   13CHL1  H27A  960   2.810   1.353   8.444  0.4715  2.7151 -0.9839
   13CHL1  H27B  961   2.697   1.431   8.357  1.8836  1.2434  0.7213
   13CHL1  H27C  962   2.666   1.424   8.538  1.7247  0.4451  0.7727
   14CHL1    C3  963   3.156   4.892  10.563  0.0248 -0.1404 -0.7423
   14CHL1    H3  964   3.243   4.956  10.536 -0.0027 -0.3184 -1.2637
   14CHL1    O3  965   3.142   4.887  10.705 -0.2941  0.2426 -0.1623
   14CHL1   H3'  966   3.223   4.841  10.731  0.2642  1.4272  0.2267
   14CHL1    C4  967   3.033   4.935  10.484  0.2580  0.3619 -0.5759
   14CHL1   H4A  968   2.939   4.887  10.519 -0.0287  2.2810  1.5240
   14CHL1   H4B  969   3.033   5.045  10.500  1.2706  0.5169 -1.4458
   14CHL1    C5  970   3.048   4.919  10.331 -0.4776  0.3812 -0.0061
   14CHL1    C6  971   3.024   5.023  10.245  0.2118  0.3685  0.2432
   14CHL1    H6  972   3.007   5.124  10.286 -0.2468  0.2328  0.3979
   14CHL1    C7  973   3.036   5.024  10.096 -0.3114  0.1320  0.4264
   14CHL1   H7A  974   2.965   5.094  10.048 -0.0268 -0.3904 -0.8001
   14CHL1   H7B  975   3.130   5.075  10.067 -0.9095  0.1337 -1.7207
   14CHL1    C8  976   3.045   4.876  10.044  0.4704 -0.0747 -0.1290
   14CHL1    H8  977   2.944   4.832  10.050  0.0300  1.0321  1.0077
   14CHL1   C14  978   3.100   4.859   9.900  0.3000 -0.4647  0.2482
   14CHL1   H14  979   3.204   4.897   9.907  0.0339  0.4563 -0.5919
   14CHL1   C15  980   3.028   4.944   9.790 -0.1716  0.3216  0.1657
   14CHL1  H15A  981   2.917   4.944   9.795 -0.1058  0.3228  2.6310
   14CHL1  H15B  982   3.061   5.050   9.794  0.6344  0.0875 -0.2261
   14CHL1   C16  983   3.067   4.877   9.660 -0.2676  0.0031  0.6221
   14CHL1  H16A  984   2.984   4.863   9.587  1.4603  0.2489 -1.4927
   14CHL1  H16B  985   3.130   4.953   9.609  0.7061  1.1306  3.3367
   14CHL1   C17  986   3.148   4.747   9.692  0.6536 -0.2877 -0.1158
   14CHL1   H17  987   3.257   4.768   9.704  0.4994  0.2797  0.3071
   14CHL1   C13  988   3.106   4.716   9.839 -0.3246 -0.1496 -0.4169
   14CHL1   C18  989   2.960   4.656   9.835 -0.8530 -0.0752  0.0377
   14CHL1  H18A  990   2.958   4.566   9.770  2.4499 -0.2502 -0.0078
   14CHL1  H18B  991   2.930   4.644   9.941 -0.4437  1.9947  0.4222
   14CHL1  H18C  992   2.888   4.722   9.780 -1.7457 -0.6839  0.4518
   14CHL1   C12  993   3.202   4.637   9.938  0.3081  0.4870  0.4552
   14CHL1  H12A  994   3.212   4.530   9.911 -0.3701  0.2920  0.9320
   14CHL1  H12B  995   3.306   4.674   9.929  0.0246  0.7791 -2.6371
   14CHL1   C11  996   3.154   4.643  10.079 -0.3113 -0.1636 -0.4951
   14CHL1  H11A  997   3.079   4.563  10.093  0.9091 -0.9528  2.2239
   14CHL1  H11B  998   3.246   4.609  10.133  0.1816  1.4595 -0.2586
   14CHL1    C9  999   3.133   4.786  10.134  0.0799  0.1267 -0.5348
   14CHL1    H9 1000   3.231   4.837  10.131 -0.0008  0.3530  0.4201
   14CHL1   C10 1001   3.093   4.778  10.285 -0.1130 -0.4694 -0.0440
   14CHL1   C19 1002   2.967   4.686  10.297 -0.0084  0.0695  0.1332
   14CHL1  H19A 1003   2.899   4.700  10.210  1.5150 -3.4550 -1.7972
   14CHL1  H19B 1004   3.000   4.580  10.301 -0.7458 -0.2418 -1.3563
   14CHL1  H19C 1005   2.912   4.709  10.391  0.7679  0.4755  0.4992
   14CHL1    C1 1006   3.210   4.729  10.372  0.5051  0.4292  0.3920
   14CHL1   H1A 1007   3.228   4.621  10.350  0.8013  0.6133 -0.2743
   14CHL1   H1B 1008   3.292   4.795  10.338 -0.0310  0.4128 -0.9736
   14CHL1    C2 1009   3.181   4.744  10.523 -0.1466  1.1069 -0.3800
   14CHL1   H2A 1010   3.265   4.699  10.580 -3.3469 -1.1359  3.0438
   14CHL1   H2B 1011   3.099   4.674  10.547  1.9253 -0.8551  1.4368
   14CHL1   C20 1012   3.135   4.631   9.586  0.1820  0.1612 -0.1408
   14CHL1   H20 1013   3.026   4.611   9.584 -0.2320  1.9796  1.2489
   14CHL1   C21 1014   3.211   4.507   9.621  0.3562 -0.3832 -0.0930
   14CHL1  H21A 1015   3.321   4.517   9.617  0.3511 -0.6768 -1.6393
   14CHL1  H21B 1016   3.187   4.414   9.566 -0.8368  0.2052 -0.6157
   14CHL1  H21C 1017   3.191   4.476   9.726 -0.4786 -0.5148 -0.2830
   14CHL1   C22 1018   3.189   4.684   9.452 -0.1375  0.5273 -0.0543
   14CHL1  H22A 1019   3.135   4.775   9.417 -0.2803 -0.4958 -2.7307
   14CHL1  H22B 1020   3.295   4.710   9.471  1.5316 -5.1263  0.2061
   14CHL1   C23 1021   3.180   4.588   9.335  0.5646 -0.9905 -0.2827
   14CHL1  H23A 1022   3.245   4.498   9.342  1.3281 -0.4169  0.0958
   14CHL1  H23B 1023   3.071   4.568   9.330  0.5951 -1.7743  1.5444
   14CHL1   C24 1024   3.222   4.656   9.198 -0.6092 -0.0144  0.4606
   14CHL1  H24A 1025   3.169   4.751   9.175 -0.3507 -0.4535 -2.3672
   14CHL1  H24B 1026   3.331   4.680   9.193 -0.8321  1.1372  0.7910
   14CHL1   C25 1027   3.204   4.558   9.077  0.0547 -0.0365  0.0660
   14CHL1   H25 1028   3.239   4.460   9.116 -0.3971 -0.1937  0.0951
   14CHL1   C26 1029   3.059   4.528   9.033  0.2056 -0.2325  0.3443
   14CHL1  H26A 1030   3.021   4.630   9.008  0.7740 -0.0959  0.0280
   14CHL1  H26B 1031   3.047   4.466   8.942  1.5991 -0.4651  0.2954
   14CHL1  H26C 1032   3.008   4.481   9.120 -1.9583  0.0904 -0.6933
   14CHL1   C27 1033   3.288   4.589   8.952  0.1612 -0.6126 -0.1874
   14CHL1  H27A 1034   3.304   4.491   8.901  0.6417 -0.2769 -0.7002
   14CHL1  H27B 1035   3.246   4.670   8.889  2.5450  1.7721  1.0921
   14CHL1  H27C 1036   3.392   4.619   8.978 -0.1068  0.2863 -0.1392
   15CHL1    C3 1037   4.851   3.518  10.254 -0.0095  0.0043  0.7194
   15CHL1    H3 1038   4.917   3.429  10.254  0.3591  0.2546 -0.8245
   15CHL1    O3 1039   4.823   3.563  10.389 -0.2282 -0.4091 -0.0251
   15CHL1   H3' 1040   4.864   3.503  10.452  1.0354  0.4476 -0.0001
   15CHL1    C4 1041   4.921   3.634  10.175  0.4331  0.0026  0.2801
   15CHL1   H4A 1042   4.851   3.720  10.176  0.4793  0.0746 -1.0265
   15CHL1   H4B 1043   5.008   3.677  10.229 -0.3894  2.4086 -0.1667
   15CHL1    C5 1044   4.943   3.606  10.030 -0.7193  0.5183  1.0702
   15CHL1    C6 1045   5.065   3.609   9.970 -0.0066  0.7159  0.1624
   15CHL1    H6 1046   5.158   3.638  10.020  0.1280 -2.1791  1.8007
   15CHL1    C7 1047   5.071   3.588   9.820 -0.4120 -0.6341 -0.2039
   15CHL1   H7A 1048   5.152   3.648   9.774  2.5916 -5.5955 -2.1593
   15CHL1   H7B 1049   5.120   3.489   9.808  0.5988 -0.3514  1.2544
   15CHL1    C8 1050   4.928   3.594   9.744  0.4996  0.3828  0.5586
   15CHL1    H8 1051   4.900   3.701   9.735 -0.4174  0.0244 -1.6147
   15CHL1   C14 1052   4.937   3.530   9.604 -0.0045 -0.8962  0.1258
   15CHL1   H14 1053   4.960   3.424   9.631  1.5133 -0.6943 -0.2891
   15CHL1   C15 1054   5.058   3.576   9.517 -0.2776  0.0791  0.2991
   15CHL1  H15A 1055   5.076   3.685   9.526 -1.0288  0.4583 -1.9794
   15CHL1  H15B 1056   5.149   3.521   9.550 -0.2504 -0.0168  0.0674
   15CHL1   C16 1057   5.013   3.537   9.376  0.5301  0.6354 -0.3868
   15CHL1  H16A 1058   5.004   3.629   9.314  1.0292  0.8434 -0.1540
   15CHL1  H16B 1059   5.084   3.459   9.341  2.0602  0.5668  2.5407
   15CHL1   C17 1060   4.874   3.468   9.388  1.0617  1.0232 -0.3720
   15CHL1   H17 1061   4.900   3.361   9.404  0.6226  0.5752 -2.2775
   15CHL1   C13 1062   4.813   3.528   9.520 -0.4420 -0.0847  0.3849
   15CHL1   C18 1063   4.759   3.668   9.497  0.6057  0.7069  0.3042
   15CHL1  H18A 1064   4.697   3.720   9.574 -1.2774 -0.2232 -0.5170
   15CHL1  H18B 1065   4.847   3.729   9.468  1.2791 -0.2735  0.2460
   15CHL1  H18C 1066   4.700   3.660   9.403  1.7117  0.1693 -0.3602
   15CHL1   C12 1067   4.710   3.445   9.594  0.1928  0.8262  0.0721
   15CHL1  H12A 1068   4.612   3.430   9.544 -0.5087 -1.8119  1.9844
   15CHL1  H12B 1069   4.746   3.340   9.602  0.9379  0.9615 -1.2904
   15CHL1   C11 1070   4.689   3.492   9.739 -0.0976  0.1426 -0.0089
   15CHL1  H11A 1071   4.632   3.587   9.728  4.2593  2.9358 -1.3292
   15CHL1  H11B 1072   4.640   3.413   9.799  2.5080 -1.6550 -0.0893
   15CHL1    C9 1073   4.824   3.512   9.818  0.2139  0.9686 -0.0430
   15CHL1    H9 1074   4.856   3.406   9.824 -3.2822 -0.3096 -1.1713
   15CHL1   C10 1075   4.803   3.561   9.968 -0.7478  0.2851 -0.0782
   15CHL1   C19 1076   4.715   3.692   9.962 -0.1389  0.9619  0.5326
   15CHL1  H19A 1077   4.622   3.675   9.904  0.9870 -0.7734 -0.8487
   15CHL1  H19B 1078   4.684   3.728  10.062  1.1282  0.4973  1.1197
   15CHL1  H19C 1079   4.776   3.772   9.915 -0.2595  1.0360  0.5041
   15CHL1    C1 1080   4.723   3.453  10.045 -0.6286  0.3912  0.7668
   15CHL1   H1A 1081   4.623   3.459   9.998  0.4508  2.4527 -1.4469
   15CHL1   H1B 1082   4.758   3.348  10.028 -0.5775  0.3483  1.1228
   15CHL1    C2 1083   4.723   3.472  10.193  0.2070 -0.3613 -0.4028
   15CHL1   H2A 1084   4.686   3.382  10.247  1.9925 -2.0912 -1.8990
   15CHL1   H2B 1085   4.644   3.551  10.202 -1.1231 -1.3570 -2.5258
   15CHL1   C20 1086   4.785   3.468   9.258 -0.7960 -0.0644 -0.2813
   15CHL1   H20 1087   4.787   3.572   9.217  0.9381  0.4244  0.9349
   15CHL1   C21 1088   4.636   3.426   9.277 -0.0851 -0.0625 -0.0057
   15CHL1  H21A 1089   4.643   3.321   9.315  1.0867 -0.2746 -0.7636
   15CHL1  H21B 1090   4.581   3.428   9.181 -1.6180 -2.3893  0.7329
   15CHL1  H21C 1091   4.589   3.494   9.351 -2.6018  0.4468 -1.9613
   15CHL1   C22 1092   4.842   3.381   9.144 -0.1388  0.2403  0.0251
   15CHL1  H22A 1093   4.952   3.392   9.149  0.0172 -1.3783  3.9912
   15CHL1  H22B 1094   4.817   3.274   9.157 -0.1208  0.1053 -1.0109
   15CHL1   C23 1095   4.798   3.421   8.994  0.9091  0.2635 -0.5081
   15CHL1  H23A 1096   4.688   3.412   8.996  1.0287 -1.5457  0.8815
   15CHL1  H23B 1097   4.810   3.529   8.971  0.3526  0.4671  0.1497
   15CHL1   C24 1098   4.858   3.328   8.888  0.9831  0.2274 -0.0564
   15CHL1  H24A 1099   4.958   3.294   8.922  0.2623 -0.4613  1.4365
   15CHL1  H24B 1100   4.793   3.238   8.890 -1.5495  1.9422 -0.0556
   15CHL1   C25 1101   4.862   3.384   8.738  0.0491 -0.1077  0.2968
   15CHL1   H25 1102   4.932   3.469   8.742 -3.2164  2.8122  4.6913
   15CHL1   C26 1103   4.930   3.275   8.649  0.0825 -0.0999  0.3591
   15CHL1  H26A 1104   5.025   3.238   8.693  0.2583 -0.7468 -0.5230
   15CHL1  H26B 1105   4.866   3.185   8.641 -1.6939  1.2017 -0.8040
   15CHL1  H26C 1106   4.951   3.311   8.546  1.2623  0.7022  0.8533
   15CHL1   C27 1107   4.719   3.421   8.700  0.0690  0.1576  0.6778
   15CHL1  H27A 1108   4.732   3.479   8.606  2.5903  1.3894  1.7072
   15CHL1  H27B 1109   4.651   3.335   8.683  1.7307 -1.2049  0.6815
   15CHL1  H27C 1110   4.670   3.490   8.772 -0.9938  1.7740 -1.4785
   16CHL1    C3 1111   4.766   1.082  10.156  0.0723 -0.0126  0.0356
   16CHL1    H3 1112   4.868   1.099  10.114 -0.4892  0.9153 -1.0091
   16CHL1    O3 1113   4.765   1.088  10.299 -0.7141 -0.5200 -0.4775
   16CHL1   H3' 1114   4.813   1.010  10.327 -1.0852 -0.2966  0.8752
   16CHL1    C4 1115   4.668   1.193  10.110 -0.0901  0.6284 -0.4866
   16CHL1   H4A 1116   4.578   1.154  10.161  0.8437 -2.1847 -0.7613
   16CHL1   H4B 1117   4.683   1.296  10.149 -1.5902  0.8374 -0.4264
   16CHL1    C5 1118   4.633   1.196   9.965  0.0667  0.0508  0.1571
   16CHL1    C6 1119   4.643   1.310   9.892 -0.3125  0.0236  0.1922
   16CHL1    H6 1120   4.679   1.405   9.935  1.4872 -1.3952  2.0042
   16CHL1    C7 1121   4.609   1.318   9.748  0.0659  0.3641 -0.1771
   16CHL1   H7A 1122   4.549   1.408   9.720  0.0836  0.6028  0.5344
   16CHL1   H7B 1123   4.705   1.325   9.691  0.6115  3.0544  0.9350
   16CHL1    C8 1124   4.544   1.190   9.678  0.2720 -0.3957  0.2373
   16CHL1    H8 1125   4.435   1.184   9.697  0.7876 -2.7079  3.3670
   16CHL1   C14 1126   4.583   1.185   9.533  0.3830  0.1731  0.4360
   16CHL1   H14 1127   4.694   1.180   9.534  0.4913  1.6901 -0.5983
   16CHL1   C15 1128   4.563   1.313   9.447  0.4907  0.1782 -0.7306
   16CHL1  H15A 1129   4.456   1.343   9.444  0.8765  1.5157 -2.2439
   16CHL1  H15B 1130   4.639   1.387   9.479  1.4995 -1.5500  1.0849
   16CHL1   C16 1131   4.599   1.254   9.313  0.2475 -0.2277 -0.6238
   16CHL1  H16A 1132   4.538   1.304   9.235 -0.1004  0.9757  0.4019
   16CHL1  H16B 1133   4.702   1.287   9.289  0.0317  1.9564  1.1963
   16CHL1   C17 1134   4.575   1.095   9.318 -0.5165 -0.1516 -0.4113
   16CHL1   H17 1135   4.676   1.051   9.332 -0.6137 -0.5849 -1.0187
   16CHL1   C13 1136   4.525   1.067   9.458  0.0830 -0.2581  0.4606
   16CHL1   C18 1137   4.367   1.068   9.452 -0.2775  0.6106 -0.2167
   16CHL1  H18A 1138   4.316   0.990   9.392  0.5276  0.0236 -0.1502
   16CHL1  H18B 1139   4.330   1.072   9.556  2.5526  0.5825  0.8875
   16CHL1  H18C 1140   4.340   1.163   9.401 -0.2152  1.0761  0.6000
   16CHL1   C12 1141   4.569   0.936   9.523 -0.1618  0.6068  0.2854
   16CHL1  H12A 1142   4.511   0.859   9.468 -1.6405 -0.7331  3.4384
   16CHL1  H12B 1143   4.675   0.913   9.497  0.1628  2.5881 -0.2972
   16CHL1   C11 1144   4.551   0.932   9.675  0.2145  0.1979  0.2773
   16CHL1  H11A 1145   4.440   0.919   9.682  0.3458 -0.4338  1.4570
   16CHL1  H11B 1146   4.604   0.843   9.715  0.4769  0.7722  1.2340
   16CHL1    C9 1147   4.609   1.062   9.745  0.1563  0.2966  0.0699
   16CHL1    H9 1148   4.718   1.070   9.725  0.2448 -0.3824  0.2781
   16CHL1   C10 1149   4.600   1.056   9.898  0.6625 -0.4692 -0.7207
   16CHL1   C19 1150   4.445   1.028   9.943  0.0617  0.0183  0.4863
   16CHL1  H19A 1151   4.409   0.926   9.917 -1.0770  0.4410  0.3393
   16CHL1  H19B 1152   4.425   1.057  10.048  0.1271  2.5529 -0.1423
   16CHL1  H19C 1153   4.390   1.097   9.876 -1.3519 -0.3327  1.2427
   16CHL1    C1 1154   4.697   0.946   9.953 -0.1024 -0.1874  0.6447
   16CHL1   H1A 1155   4.666   0.845   9.919  1.2951 -0.6244  0.5929
   16CHL1   H1B 1156   4.799   0.954   9.909 -0.6130  0.4884 -0.4817
   16CHL1    C2 1157   4.711   0.947  10.106  0.0061  0.1269  0.1314
   16CHL1   H2A 1158   4.773   0.864  10.147  0.6810  1.0524  1.0396
   16CHL1   H2B 1159   4.612   0.930  10.153  1.4715  2.4757  4.6451
   16CHL1   C20 1160   4.509   1.040   9.192  0.2554  0.7004  0.3519
   16CHL1   H20 1161   4.405   1.079   9.184 -0.3824 -1.2228 -1.8014
   16CHL1   C21 1162   4.500   0.888   9.199 -0.9133  0.8701 -0.9267
   16CHL1  H21A 1163   4.432   0.857   9.281  2.2310  0.8802  1.9339
   16CHL1  H21B 1164   4.595   0.833   9.218 -1.1145  0.6233 -0.6176
   16CHL1  H21C 1165   4.468   0.839   9.105 -1.8922  1.7203 -1.0611
   16CHL1   C22 1166   4.596   1.074   9.064  0.4629 -0.6450 -0.5224
   16CHL1  H22A 1167   4.617   1.184   9.065  1.2303 -0.7616 -1.8287
   16CHL1  H22B 1168   4.694   1.022   9.076  2.5540  3.0414  0.0630
   16CHL1   C23 1169   4.510   1.044   8.939  0.2269 -0.1259  0.2119
   16CHL1  H23A 1170   4.501   0.935   8.924 -1.0832  0.0814 -0.6210
   16CHL1  H23B 1171   4.409   1.089   8.928  1.1188  1.6190 -1.5405
   16CHL1   C24 1172   4.582   1.100   8.804  0.0898  0.0514 -1.0018
   16CHL1  H24A 1173   4.594   1.210   8.813 -0.4207 -0.0318  1.3302
   16CHL1  H24B 1174   4.679   1.046   8.801 -0.0812 -0.2595 -0.9833
   16CHL1   C25 1175   4.510   1.067   8.667 -0.4874  0.2313 -0.3847
   16CHL1   H25 1176   4.499   0.958   8.649  1.2921 -0.0412 -0.0610
   16CHL1   C26 1177   4.373   1.131   8.664  0.4770 -0.4863 -0.0707
   16CHL1  H26A 1178   4.294   1.095   8.733  1.2628  3.0447  3.0153
   16CHL1  H26B 1179   4.382   1.238   8.693 -0.8518 -0.5186  0.5041
   16CHL1  H26C 1180   4.327   1.111   8.565 -0.6904 -0.4352  0.4433
   16CHL1   C27 1181   4.605   1.122   8.559  0.2914 -0.2187 -0.1208
   16CHL1  H27A 1182   4.588   1.229   8.534 -1.1629 -0.6702 -1.1784
   16CHL1  H27B 1183   4.714   1.102   8.571  0.1133 -1.2932 -0.2474
   16CHL1  H27C 1184   4.572   1.079   8.462 -2.7796 -0.5759  0.9634
   17CHL1    C3 1185   1.436   4.632  10.425  0.1099 -0.4637  0.7315
   17CHL1    H3 1186   1.478   4.534  10.395 -1.4213 -0.7414 -0.6291
   17CHL1    O3 1187   1.439   4.635  10.564 -0.5884  0.7344  0.1337
   17CHL1   H3' 1188   1.429   4.726  10.594 -0.0946  0.6486  0.5714
   17CHL1    C4 1189   1.527   4.744  10.360 -0.4970  0.1865  0.2176
   17CHL1   H4A 1190   1.504   4.846  10.396 -2.8800 -0.3792  0.4445
   17CHL1   H4B 1191   1.630   4.718  10.395 -0.6756  1.5618  1.8979
   17CHL1    C5 1192   1.515   4.737  10.210  0.1354  0.7421  0.0284
   17CHL1    C6 1193   1.616   4.716  10.128  0.0047 -0.5256 -0.2120
   17CHL1    H6 1194   1.714   4.703  10.177 -1.1899  0.0638  2.4930
   17CHL1    C7 1195   1.597   4.730   9.975  0.2443 -0.1697  0.7188
   17CHL1   H7A 1196   1.689   4.782   9.943  0.3352  1.0004  2.6877
   17CHL1   H7B 1197   1.603   4.629   9.928  0.9351  1.5270 -3.2180
   17CHL1    C8 1198   1.467   4.800   9.931  0.7077  0.1421 -0.3073
   17CHL1    H8 1199   1.467   4.909   9.953  0.2664  0.5188 -1.9684
   17CHL1   C14 1200   1.436   4.784   9.784  0.1498 -0.0267  0.6627
   17CHL1   H14 1201   1.425   4.674   9.771  0.0916 -0.1058  1.3400
   17CHL1   C15 1202   1.547   4.829   9.685  0.2768 -0.0202 -0.0861
   17CHL1  H15A 1203   1.602   4.916   9.727 -0.3613  0.2123  0.2937
   17CHL1  H15B 1204   1.629   4.756   9.672  2.0816  1.6887  1.0830
   17CHL1   C16 1205   1.480   4.865   9.553 -0.2234  0.2043 -0.6992
   17CHL1  H16A 1206   1.489   4.970   9.517 -1.5057  0.2080 -1.0482
   17CHL1  H16B 1207   1.529   4.797   9.480 -1.4247 -0.4423 -0.9140
   17CHL1   C17 1208   1.334   4.817   9.576  0.2122 -0.8888  0.2348
   17CHL1   H17 1209   1.347   4.708   9.562  1.2576 -0.5522 -1.7634
   17CHL1   C13 1210   1.308   4.845   9.727  0.2261 -0.0593 -0.0801
   17CHL1   C18 1211   1.306   5.000   9.756 -0.0999 -0.1953 -0.1577
   17CHL1  H18A 1212   1.400   5.053   9.729 -1.0477  2.6703  1.6945
   17CHL1  H18B 1213   1.221   5.048   9.704 -0.3718 -1.9229 -1.3921
   17CHL1  H18C 1214   1.289   5.025   9.863 -0.2410  0.8836 -0.4251
   17CHL1   C12 1215   1.189   4.772   9.797  0.1255 -0.3574  0.3019
   17CHL1  H12A 1216   1.097   4.827   9.765  0.3984 -0.0234  0.0879
   17CHL1  H12B 1217   1.184   4.668   9.759 -0.3715  0.3416 -1.6472
   17CHL1   C11 1218   1.208   4.782   9.945 -0.3666 -0.0850 -0.2294
   17CHL1  H11A 1219   1.176   4.884   9.979  1.5716  1.4533 -2.6910
   17CHL1  H11B 1220   1.125   4.712   9.971 -1.0175  0.6982 -0.1428
   17CHL1    C9 1221   1.349   4.736  10.008  0.3102 -0.2209 -0.7641
   17CHL1    H9 1222   1.346   4.625   9.998 -0.9757 -0.2616 -0.0743
   17CHL1   C10 1223   1.367   4.760  10.168 -0.0880 -0.0564 -0.2760
   17CHL1   C19 1224   1.318   4.906  10.217  0.0595 -0.3014 -0.3380
   17CHL1  H19A 1225   1.219   4.933  10.176 -0.5155 -0.2788  1.0168
   17CHL1  H19B 1226   1.319   4.909  10.328 -1.2309  0.4647 -0.3262
   17CHL1  H19C 1227   1.391   4.981  10.178 -2.0343  1.6463 -0.7399
   17CHL1    C1 1228   1.276   4.659  10.233 -0.4856 -0.6486  0.4413
   17CHL1   H1A 1229   1.169   4.671  10.205 -0.5586  0.5728  1.1397
   17CHL1   H1B 1230   1.299   4.560  10.189 -2.1687 -2.4244  3.2484
   17CHL1    C2 1231   1.291   4.645  10.382 -0.1176 -0.9557  0.0608
   17CHL1   H2A 1232   1.251   4.543  10.401 -2.3733 -0.1009  0.2293
   17CHL1   H2B 1233   1.232   4.722  10.436  0.5763 -0.6447  0.3803
   17CHL1   C20 1234   1.245   4.881   9.471  0.4509 -0.1231  0.4736
   17CHL1   H20 1235   1.222   4.986   9.499 -1.2362 -0.0794 -0.9322
   17CHL1   C21 1236   1.116   4.797   9.464  0.2102  0.0189  0.1896
   17CHL1  H21A 1237   1.063   4.790   9.561  3.6465 -3.5973  2.1077
   17CHL1  H21B 1238   1.127   4.695   9.421 -2.6592  0.6327 -2.2861
   17CHL1  H21C 1239   1.057   4.847   9.385  2.7873  1.3391 -1.0160
   17CHL1   C22 1240   1.311   4.893   9.335 -0.0507 -0.0667  0.7798
   17CHL1  H22A 1241   1.413   4.936   9.344 -0.9502  2.4154  0.1311
   17CHL1  H22B 1242   1.284   4.806   9.272 -0.0703  1.8308 -2.0230
   17CHL1   C23 1243   1.264   5.015   9.255 -0.0669 -0.8615  0.0281
   17CHL1  H23A 1244   1.159   4.998   9.220 -0.9376  1.8447  1.0656
   17CHL1  H23B 1245   1.257   5.106   9.318 -0.4095 -0.7646 -0.1423
   17CHL1   C24 1246   1.365   5.039   9.140 -1.1072 -0.4090 -1.1272
   17CHL1  H24A 1247   1.460   5.084   9.177 -1.2293 -1.9219  1.2689
   17CHL1  H24B 1248   1.399   4.942   9.099 -0.0665 -0.8758  0.7275
   17CHL1   C25 1249   1.323   5.129   9.022  0.0783  0.4983  0.5151
   17CHL1   H25 1250   1.276   5.225   9.052  0.3647  1.3639 -1.6263
   17CHL1   C26 1251   1.448   5.155   8.933  0.3272 -0.7793  0.2416
   17CHL1  H26A 1252   1.493   5.057   8.906  0.2458 -0.0091 -3.1495
   17CHL1  H26B 1253   1.417   5.216   8.845 -0.2642  0.1253  1.0556
   17CHL1  H26C 1254   1.510   5.216   9.002 -0.9552  0.7260  0.1103
   17CHL1   C27 1255   1.212   5.065   8.940  0.5723  1.1341  0.2561
   17CHL1  H27A 1256   1.114   5.057   8.992  0.4885 -0.0029 -0.0355
   17CHL1  H27B 1257   1.187   5.127   8.851 -3.2965 -0.6973 -0.1639
   17CHL1  H27C 1258   1.248   4.965   8.906 -1.9275  0.2309  0.0763
   18CHL1    C3 1259   4.961   5.709  10.122  0.1179  0.2498 -0.3049
   18CHL1    H3 1260   4.932   5.817  10.119 -0.4799  0.0661 -2.0909
   18CHL1    O3 1261   4.953   5.662  10.251  0.1137 -0.6730 -0.1659
   18CHL1   H3' 1262   4.994   5.576  10.243  0.6524 -0.4101 -0.2711
   18CHL1    C4 1263   4.871   5.623  10.021 -0.1573 -0.6403 -0.0053
   18CHL1   H4A 1264   4.885   5.513  10.030 -0.1898 -0.7225 -0.8629
   18CHL1   H4B 1265   4.762   5.642  10.035 -0.1091 -1.2832  1.4237
   18CHL1    C5 1266   4.912   5.652   9.875 -0.6859  0.8919 -0.2772
   18CHL1    C6 1267   4.819   5.696   9.792 -0.4817  0.8092  0.8964
   18CHL1    H6 1268   4.715   5.690   9.828 -0.1115 -1.2665  1.7886
   18CHL1    C7 1269   4.844   5.727   9.642 -0.5829 -0.3288 -0.4232
   18CHL1   H7A 1270   4.763   5.677   9.584 -1.6711 -0.7130  1.3528
   18CHL1   H7B 1271   4.851   5.835   9.616 -0.6997 -0.4350 -0.9039
   18CHL1    C8 1272   4.976   5.655   9.594 -0.0008 -0.5038 -0.1125
   18CHL1    H8 1273   4.963   5.544   9.599  3.1283 -0.9214  1.6363
   18CHL1   C14 1274   5.017   5.708   9.458  0.0575  0.7455  0.4726
   18CHL1   H14 1275   5.026   5.817   9.473 -1.6333  1.0156 -0.3093
   18CHL1   C15 1276   4.914   5.684   9.346  0.8139  0.2999  0.1905
   18CHL1  H15A 1277   4.889   5.576   9.344  2.1866 -0.0882 -3.2151
   18CHL1  H15B 1278   4.825   5.746   9.369  1.6053  2.2983 -1.7786
   18CHL1   C16 1279   5.001   5.711   9.217  0.1864 -0.1618  0.2276
   18CHL1  H16A 1280   4.991   5.625   9.147  0.1594  1.1978 -1.5138
   18CHL1  H16B 1281   4.960   5.801   9.165  1.5268 -0.4382 -1.3998
   18CHL1   C17 1282   5.149   5.726   9.264 -0.3483  0.5457 -1.1599
   18CHL1   H17 1283   5.170   5.831   9.292 -2.5421  0.5557  0.7718
   18CHL1   C13 1284   5.153   5.657   9.403 -0.8144  0.1693 -0.4232
   18CHL1   C18 1285   5.148   5.498   9.386  0.0792  0.0357  0.0767
   18CHL1  H18A 1286   5.089   5.476   9.294 -0.2603 -0.4474  0.4068
   18CHL1  H18B 1287   5.250   5.455   9.378  0.3323  0.5815  0.2994
   18CHL1  H18C 1288   5.092   5.451   9.470  0.4570 -1.9160 -0.7037
   18CHL1   C12 1289   5.267   5.701   9.506  0.0546  0.0019 -0.1366
   18CHL1  H12A 1290   5.370   5.669   9.480  0.5528  0.7264  0.8516
   18CHL1  H12B 1291   5.266   5.812   9.493 -1.7548  0.2103  1.3295
   18CHL1   C11 1292   5.236   5.647   9.648  0.2991  0.3181  0.6840
   18CHL1  H11A 1293   5.263   5.539   9.648 -2.1682 -0.4067 -1.1835
   18CHL1  H11B 1294   5.311   5.699   9.711 -0.3767  0.4450  1.3895
   18CHL1    C9 1295   5.091   5.687   9.690  0.4080 -0.3408 -0.1691
   18CHL1    H9 1296   5.077   5.797   9.690  0.1113 -0.3736 -0.8385
   18CHL1   C10 1297   5.055   5.644   9.836 -0.2069 -0.2974 -0.7647
   18CHL1   C19 1298   5.092   5.495   9.852 -0.4474  0.0240  0.1556
   18CHL1  H19A 1299   5.200   5.471   9.845  0.2132  2.4232  1.0591
   18CHL1  H19B 1300   5.042   5.449   9.941 -1.4621  2.3551  0.8741
   18CHL1  H19C 1301   5.048   5.439   9.767 -0.3999  0.8302 -0.4067
   18CHL1    C1 1302   5.137   5.728   9.938 -0.3236  0.4315 -0.0265
   18CHL1   H1A 1303   5.244   5.708   9.914 -0.4189  0.7839 -0.7878
   18CHL1   H1B 1304   5.129   5.837   9.914  1.1038  0.3256 -1.1347
   18CHL1    C2 1305   5.107   5.693  10.080 -0.6085 -0.1661  0.0609
   18CHL1   H2A 1306   5.175   5.748  10.148  1.4973 -0.4537 -1.7074
   18CHL1   H2B 1307   5.131   5.585  10.092  1.1436  0.3368  1.5035
   18CHL1   C20 1308   5.254   5.679   9.158  0.9397  0.2164 -0.0463
   18CHL1   H20 1309   5.243   5.569   9.143 -1.0528  0.0680  2.0351
   18CHL1   C21 1310   5.401   5.680   9.209  0.1174  1.0765 -0.7034
   18CHL1  H21A 1311   5.423   5.770   9.270  1.9322  0.2938 -0.1384
   18CHL1  H21B 1312   5.473   5.665   9.126 -0.4140 -1.0790 -0.8429
   18CHL1  H21C 1313   5.401   5.591   9.276 -1.2435  0.8789 -0.9224
   18CHL1   C22 1314   5.239   5.748   9.016  0.4116 -0.7751 -0.6227
   18CHL1  H22A 1315   5.134   5.783   9.001  1.2642  3.4576  1.6316
   18CHL1  H22B 1316   5.309   5.834   9.025  1.2099 -1.0755 -3.1779
   18CHL1   C23 1317   5.297   5.670   8.899  0.2094  0.7736 -0.5609
   18CHL1  H23A 1318   5.407   5.665   8.910 -0.0019  0.6826  2.4684
   18CHL1  H23B 1319   5.254   5.568   8.908 -2.6158  1.7771 -1.5932
   18CHL1   C24 1320   5.265   5.739   8.766 -0.2869 -0.2992  0.5358
   18CHL1  H24A 1321   5.156   5.727   8.747 -0.5732  0.9568  1.2982
   18CHL1  H24B 1322   5.304   5.843   8.767  0.8158 -0.6897 -0.5613
   18CHL1   C25 1323   5.331   5.667   8.639  0.3145  0.2606  0.0662
   18CHL1   H25 1324   5.441   5.674   8.653  0.2844  0.1727  0.3612
   18CHL1   C26 1325   5.275   5.524   8.622 -0.4116 -0.3528  0.1168
   18CHL1  H26A 1326   5.164   5.530   8.620 -0.5782 -2.7388 -0.3949
   18CHL1  H26B 1327   5.314   5.470   8.533  1.9456 -1.3412  1.6535
   18CHL1  H26C 1328   5.307   5.467   8.711 -1.6052  0.9068  1.3975
   18CHL1   C27 1329   5.300   5.749   8.510 -0.1612 -0.1908  0.5050
   18CHL1  H27A 1330   5.361   5.701   8.430  1.0862  2.2159 -0.0805
   18CHL1  H27B 1331   5.190   5.743   8.492  0.2558  0.9285 -3.5228
   18CHL1  H27C 1332   5.328   5.855   8.526 -0.4191 -0.2075  1.0819
   19CHL1    C3 1333   2.900   1.404  10.056 -0.1912  0.1785  0.3415
   19CHL1    H3 1334   2.898   1.294  10.036 -0.9155  0.3759 -0.7256
   19CHL1    O3 1335   2.890   1.428  10.192 -0.2447 -0.5526 -0.1949
   19CHL1   H3' 1336   2.846   1.509  10.217  2.3885  0.1877  2.8351
   19CHL1    C4 1337   3.033   1.455  10.003 -0.2479 -0.1601  0.1161
   19CHL1   H4A 1338   3.070   1.545  10.056 -1.7318  0.4794  0.1346
   19CHL1   H4B 1339   3.106   1.375  10.027  0.8919  0.3251 -1.5727
   19CHL1    C5 1340   3.049   1.481   9.853  0.9514 -0.0684  0.6492
   19CHL1    C6 1341   3.156   1.445   9.785 -0.2167 -0.0556 -0.7267
   19CHL1    H6 1342   3.238   1.398   9.841 -0.9440  0.2021  0.5886
   19CHL1    C7 1343   3.169   1.456   9.635  0.3199  0.2436  0.4410
   19CHL1   H7A 1344   3.275   1.482   9.613  0.9120 -2.0744  0.2369
   19CHL1   H7B 1345   3.149   1.355   9.595  0.6310  0.9672 -1.6458
   19CHL1    C8 1346   3.074   1.544   9.566 -0.1474  0.7816  0.3674
   19CHL1    H8 1347   3.110   1.648   9.576  0.4920  0.7491 -1.3264
   19CHL1   C14 1348   3.081   1.514   9.413  1.1954  0.4585  0.8155
   19CHL1   H14 1349   3.065   1.406   9.393 -0.0818  1.2217 -2.9692
   19CHL1   C15 1350   3.216   1.537   9.340  0.2403 -0.0602 -0.7844
   19CHL1  H15A 1351   3.251   1.642   9.352  0.1234 -0.0078 -0.9029
   19CHL1  H15B 1352   3.297   1.470   9.376  1.2845  1.7838  0.4933
   19CHL1   C16 1353   3.178   1.542   9.192  0.2530 -0.0723 -0.2927
   19CHL1  H16A 1354   3.237   1.618   9.138  0.3190  1.3656  1.6978
   19CHL1  H16B 1355   3.199   1.441   9.149  1.9641 -0.4516  1.2917
   19CHL1   C17 1356   3.027   1.547   9.188 -0.7533 -0.4620  0.1298
   19CHL1   H17 1357   3.000   1.440   9.177  0.9372 -1.1119  1.7308
   19CHL1   C13 1358   2.977   1.585   9.331 -0.0364  0.0689  0.2134
   19CHL1   C18 1359   2.995   1.743   9.330 -0.6794  0.2080 -0.2262
   19CHL1  H18A 1360   2.908   1.776   9.268 -1.0211  1.5137  0.8967
   19CHL1  H18B 1361   2.968   1.772   9.434  0.2998 -1.2007  0.4475
   19CHL1  H18C 1362   3.092   1.786   9.295 -1.4362  0.1751 -2.5671
   19CHL1   C12 1363   2.835   1.544   9.381 -0.2752  0.1961  0.7994
   19CHL1  H12A 1364   2.751   1.595   9.330  1.1679  1.6860 -0.2159
   19CHL1  H12B 1365   2.818   1.434   9.373  0.4026  0.1947 -1.3445
   19CHL1   C11 1366   2.821   1.580   9.531  0.1717 -0.3783 -0.0901
   19CHL1  H11A 1367   2.807   1.689   9.547 -0.0731 -0.6926  2.0065
   19CHL1  H11B 1368   2.722   1.540   9.559 -0.7562  2.3580  0.9231
   19CHL1    C9 1369   2.936   1.522   9.626 -0.2289 -0.6725  0.2969
   19CHL1    H9 1370   2.929   1.412   9.612  0.9527 -0.6201 -0.9846
   19CHL1   C10 1371   2.928   1.535   9.775  0.2989 -0.3330 -0.0520
   19CHL1   C19 1372   2.917   1.688   9.803  0.6330 -0.0676 -0.2176
   19CHL1  H19A 1373   2.834   1.741   9.752  1.7214  1.7881 -0.1378
   19CHL1  H19B 1374   2.898   1.700   9.911 -0.7517  1.1781 -0.5765
   19CHL1  H19C 1375   3.008   1.747   9.776  0.9578  0.2095  1.4009
   19CHL1    C1 1376   2.798   1.463   9.830 -0.4399 -0.0950 -0.5812
   19CHL1   H1A 1377   2.709   1.511   9.785  1.4050 -0.0326 -4.5401
   19CHL1   H1B 1378   2.801   1.355   9.802 -1.2891  0.1803 -1.7928
   19CHL1    C2 1379   2.780   1.470   9.987  0.3666 -0.0984  0.4347
   19CHL1   H2A 1380   2.684   1.438  10.033 -0.4362  0.6282 -0.6924
   19CHL1   H2B 1381   2.783   1.576  10.020  1.2622  0.1490 -0.3993
   19CHL1   C20 1382   2.966   1.616   9.064 -0.4205  0.3320  0.3414
   19CHL1   H20 1383   2.962   1.726   9.078 -1.2762  0.2820  0.5465
   19CHL1   C21 1384   2.820   1.569   9.036  0.0068  0.6235  0.2108
   19CHL1  H21A 1385   2.759   1.586   9.127  0.0174 -1.4900  0.6608
   19CHL1  H21B 1386   2.822   1.460   9.013  2.2163  0.9818 -1.6026
   19CHL1  H21C 1387   2.777   1.632   8.955  0.6070 -1.4285 -1.8426
   19CHL1   C22 1388   3.048   1.586   8.936 -0.6901  0.2679  0.1677
   19CHL1  H22A 1389   3.140   1.649   8.940 -1.0760  0.7904  1.2846
   19CHL1  H22B 1390   3.085   1.481   8.930  3.0481  1.4170  0.3780
   19CHL1   C23 1391   2.981   1.618   8.799  0.4736  0.0939  0.2354
   19CHL1  H23A 1392   2.920   1.533   8.763 -1.5961  1.1846  1.0068
   19CHL1  H23B 1393   2.911   1.702   8.814  1.7628  1.0510  1.1323
   19CHL1   C24 1394   3.083   1.651   8.686 -0.6094  0.4351 -0.2461
   19CHL1  H24A 1395   3.140   1.738   8.723  1.3442 -0.4948 -0.9274
   19CHL1  H24B 1396   3.159   1.573   8.666 -1.3756 -0.1370 -0.9975
   19CHL1   C25 1397   3.025   1.690   8.547  0.0658 -0.3152 -0.6529
   19CHL1   H25 1398   3.105   1.697   8.470  1.9718  2.8548  1.3624
   19CHL1   C26 1399   2.924   1.585   8.493  0.5440  0.6706  0.5804
   19CHL1  H26A 1400   2.984   1.493   8.477 -1.2823 -0.1680 -2.1415
   19CHL1  H26B 1401   2.832   1.573   8.554 -0.3872  0.5682 -0.7920
   19CHL1  H26C 1402   2.885   1.622   8.396 -1.2726 -1.2286  0.5192
   19CHL1   C27 1403   2.958   1.828   8.539 -0.2817  0.2537 -0.6203
   19CHL1  H27A 1404   2.899   1.829   8.445  1.2374 -3.0451 -1.7598
   19CHL1  H27B 1405   2.882   1.833   8.619 -0.3141  2.1345 -0.7282
   19CHL1  H27C 1406   3.029   1.912   8.529 -1.7466  1.3317 -2.8137
   20CHL1    C3 1407   5.207   3.060  10.553 -0.0846 -0.1738  0.2287
   20CHL1    H3 1408   5.302   3.107  10.522 -1.0417  2.7121  1.3193
   20CHL1    O3 1409   5.198   3.065  10.688  0.2402  0.1869  0.2533
   20CHL1   H3' 1410   5.210   3.158  10.708  1.1802 -0.0916  1.0261
   20CHL1    C4 1411   5.098   3.150  10.485 -0.5466  0.5681  0.3481
   20CHL1   H4A 1412   4.997   3.129  10.526 -0.8167  1.7294  0.3267
   20CHL1   H4B 1413   5.109   3.259  10.507  0.1967  0.3776  0.9883
   20CHL1    C5 1414   5.093   3.126  10.333 -0.0859 -0.1879 -0.2671
   20CHL1    C6 1415   5.115   3.238  10.256 -0.2211 -0.9196  0.1428
   20CHL1    H6 1416   5.122   3.336  10.305 -1.4929 -0.6753 -0.1082
   20CHL1    C7 1417   5.107   3.237  10.107  0.3421  0.1259  0.0076
   20CHL1   H7A 1418   5.037   3.316  10.072 -1.1501  0.0663  2.6146
   20CHL1   H7B 1419   5.210   3.265  10.073  0.6166 -0.8090  0.0584
   20CHL1    C8 1420   5.072   3.101  10.054  0.4157 -0.2119  0.5805
   20CHL1    H8 1421   4.963   3.082  10.065  0.3128 -0.2291 -0.3314
   20CHL1   C14 1422   5.099   3.103   9.902  0.0974  0.3358 -0.3570
   20CHL1   H14 1423   5.207   3.128   9.900  0.6841 -1.4498  2.8589
   20CHL1   C15 1424   5.026   3.202   9.811 -0.4537 -0.0537  0.2741
   20CHL1  H15A 1425   4.925   3.213   9.857  0.0592 -2.7231  2.2704
   20CHL1  H15B 1426   5.082   3.298   9.806 -1.7755  0.6822 -1.3695
   20CHL1   C16 1427   5.048   3.154   9.668  0.1021  0.3852  0.0625
   20CHL1  H16A 1428   4.944   3.163   9.629 -0.9200 -1.2144  2.1641
   20CHL1  H16B 1429   5.127   3.216   9.621  1.0982  0.9611  2.3255
   20CHL1   C17 1430   5.094   3.010   9.687 -0.4379 -0.3374 -0.2958
   20CHL1   H17 1431   5.203   3.001   9.669 -0.5882 -0.9003 -0.9778
   20CHL1   C13 1432   5.077   2.969   9.835  0.3312 -0.2080  0.1585
   20CHL1   C18 1433   4.929   2.922   9.853  0.0058 -0.6168 -0.1584
   20CHL1  H18A 1434   4.901   2.903   9.958  2.9254 -1.1355  0.6188
   20CHL1  H18B 1435   4.871   3.009   9.817  1.8348  1.5422  1.8020
   20CHL1  H18C 1436   4.909   2.835   9.787 -1.6330  1.3274 -2.3895
   20CHL1   C12 1437   5.177   2.871   9.900  0.1295 -0.2477  0.3499
   20CHL1  H12A 1438   5.162   2.772   9.853  1.5160 -0.4362  0.2549
   20CHL1  H12B 1439   5.281   2.903   9.880  0.1904 -1.3536 -1.2896
   20CHL1   C11 1440   5.147   2.855  10.055 -0.3482  0.3518  0.2453
   20CHL1  H11A 1441   5.048   2.809  10.070 -0.4377  0.6226  0.4764
   20CHL1  H11B 1442   5.229   2.793  10.098  0.9415  1.7043 -0.1618
   20CHL1    C9 1443   5.147   2.985  10.131  0.4081 -0.5090  0.2256
   20CHL1    H9 1444   5.249   3.028  10.140 -0.7669  2.1263  3.0111
   20CHL1   C10 1445   5.100   2.985  10.286  0.3578 -0.0656  0.6052
   20CHL1   C19 1446   4.971   2.900  10.311 -0.3954 -0.2172 -0.1345
   20CHL1  H19A 1447   4.876   2.938  10.267  1.1494  2.1734 -1.6392
   20CHL1  H19B 1448   4.984   2.798  10.269  0.9613  0.4778 -1.4865
   20CHL1  H19C 1449   4.961   2.891  10.421  1.0268 -0.2997  0.0030
   20CHL1    C1 1450   5.213   2.907  10.362  0.6119  0.2423  0.4310
   20CHL1   H1A 1451   5.208   2.805  10.319  0.6876  0.5183 -0.2525
   20CHL1   H1B 1452   5.316   2.941  10.337  1.8973 -3.1780  0.5510
   20CHL1    C2 1453   5.207   2.914  10.515 -0.2356  0.4308  0.3250
   20CHL1   H2A 1454   5.299   2.863  10.553  0.6483  0.4784 -1.6138
   20CHL1   H2B 1455   5.124   2.852  10.554  0.9686 -0.8321  0.9767
   20CHL1   C20 1456   5.039   2.921   9.569 -0.2679 -0.1754 -0.6373
   20CHL1   H20 1457   4.928   2.924   9.578 -0.2193  2.0748  0.0305
   20CHL1   C21 1458   5.098   2.782   9.582  0.0126 -0.3104 -0.2351
   20CHL1  H21A 1459   5.057   2.718   9.501 -1.0484  0.8000 -0.6089
   20CHL1  H21B 1460   5.066   2.734   9.677 -0.9911  1.2110  0.2325
   20CHL1  H21C 1461   5.208   2.788   9.570  0.0276 -1.6570 -0.8577
   20CHL1   C22 1462   5.071   2.979   9.428 -0.2180  0.7562  0.4585
   20CHL1  H22A 1463   5.047   3.086   9.412  0.3869  0.7349 -0.7637
   20CHL1  H22B 1464   5.181   2.977   9.410 -0.4273  2.9757 -1.5396
   20CHL1   C23 1465   5.006   2.900   9.316  0.0206 -0.4824 -0.5983
   20CHL1  H23A 1466   5.023   2.791   9.322 -0.3995 -0.5525 -0.6571
   20CHL1  H23B 1467   4.898   2.925   9.314  0.6296  2.6206 -0.2965
   20CHL1   C24 1468   5.047   2.952   9.181 -1.1116 -0.1604  0.2157
   20CHL1  H24A 1469   5.043   3.062   9.173 -2.9955 -0.0958  1.4359
   20CHL1  H24B 1470   5.156   2.935   9.169 -0.8756  0.1677  1.7998
   20CHL1   C25 1471   4.976   2.894   9.063 -0.8503 -0.2302  0.2308
   20CHL1   H25 1472   4.867   2.914   9.071 -1.0039 -0.5176 -0.9515
   20CHL1   C26 1473   5.017   2.956   8.924  0.4070  0.5386 -0.8665
   20CHL1  H26A 1474   4.945   2.915   8.850 -1.8194  0.7989  1.0576
   20CHL1  H26B 1475   5.000   3.066   8.933  1.4239  0.5337  2.0862
   20CHL1  H26C 1476   5.126   2.936   8.913  0.7093 -1.5809  3.6579
   20CHL1   C27 1477   5.000   2.742   9.044 -0.1625  0.0176  0.0548
   20CHL1  H27A 1478   5.109   2.720   9.048 -0.1134  0.1027 -0.6445
   20CHL1  H27B 1479   4.936   2.678   9.108 -0.4759  0.5815  0.3178
   20CHL1  H27C 1480   4.972   2.724   8.938 -0.0230  0.7206 -0.1085
   21CHL1    C3 1481   4.717   0.007  10.319  0.4461 -0.7189 -0.4927
   21CHL1    H3 1482   4.787  -0.078  10.301  0.4947 -0.3225 -2.4122
   21CHL1    O3 1483   4.690   0.033  10.453 -0.0234 -0.5308  0.2038
   21CHL1   H3' 1484   4.645   0.117  10.457  0.6356 -0.1741  0.1900
   21CHL1    C4 1485   4.790   0.126  10.259  0.8005  0.6313  0.0991
   21CHL1   H4A 1486   4.736   0.223  10.272  0.5943  0.2048  3.1096
   21CHL1   H4B 1487   4.892   0.136  10.304  0.4706  2.1992  0.5709
   21CHL1    C5 1488   4.796   0.103  10.108  0.4839  0.1861 -0.4534
   21CHL1    C6 1489   4.917   0.103  10.039  0.2497  0.0620 -0.6334
   21CHL1    H6 1490   5.002   0.125  10.106  0.0879 -2.8385  0.7007
   21CHL1    C7 1491   4.934   0.087   9.894 -0.0290  0.0864  0.2602
   21CHL1   H7A 1492   5.000   0.163   9.847 -1.2259  1.8891  1.3778
   21CHL1   H7B 1493   4.981  -0.013   9.876  2.9918  0.8217  3.1037
   21CHL1    C8 1494   4.799   0.091   9.811 -0.0670  0.2025 -0.5065
   21CHL1    H8 1495   4.777   0.200   9.806  0.4657  0.3746  0.5740
   21CHL1   C14 1496   4.808   0.019   9.675 -0.0133  0.1910  0.4116
   21CHL1   H14 1497   4.827  -0.090   9.692 -1.0966 -0.1302 -0.3921
   21CHL1   C15 1498   4.924   0.068   9.583  0.5635 -0.2910  0.1340
   21CHL1  H15A 1499   4.922   0.179   9.596  1.1905 -0.0739 -1.3853
   21CHL1  H15B 1500   5.020   0.032   9.624  0.4554  0.6432  1.2743
   21CHL1   C16 1501   4.878   0.034   9.442  0.5619 -0.3061  0.1911
   21CHL1  H16A 1502   4.874   0.118   9.370  0.6881 -0.5237 -0.0692
   21CHL1  H16B 1503   4.955  -0.033   9.400  0.6539  1.1998 -2.2591
   21CHL1   C17 1504   4.734  -0.025   9.452 -0.1294 -0.1157 -0.2944
   21CHL1   H17 1505   4.739  -0.136   9.450  1.6570 -0.0740 -2.8826
   21CHL1   C13 1506   4.684   0.023   9.588 -1.0181  0.3765  0.4192
   21CHL1   C18 1507   4.640   0.171   9.576  0.0697  0.5509  0.5352
   21CHL1  H18A 1508   4.558   0.178   9.502  0.6390 -0.4921 -0.2189
   21CHL1  H18B 1509   4.613   0.219   9.673 -0.8788 -0.3351  0.7214
   21CHL1  H18C 1510   4.728   0.228   9.538  2.7223 -3.3758  0.2138
   21CHL1   C12 1511   4.587  -0.062   9.667 -0.2095  0.4271  0.3920
   21CHL1  H12A 1512   4.490  -0.072   9.615  1.0117 -1.0663 -1.7312
   21CHL1  H12B 1513   4.622  -0.168   9.669 -2.2689 -0.3445 -0.8412
   21CHL1   C11 1514   4.567  -0.010   9.806 -0.0000  0.4374 -0.9398
   21CHL1  H11A 1515   4.511   0.086   9.796 -1.2688 -0.1316  0.4124
   21CHL1  H11B 1516   4.499  -0.080   9.858  1.3795 -1.0989 -1.1311
   21CHL1    C9 1517   4.696   0.019   9.888 -0.0881 -0.4914 -0.3733
   21CHL1    H9 1518   4.722  -0.087   9.909 -2.8970 -1.2464 -0.3796
   21CHL1   C10 1519   4.668   0.067  10.032  0.6430  0.3584 -0.2971
   21CHL1   C19 1520   4.578   0.193  10.024 -0.2283  0.4023 -0.0574
   21CHL1  H19A 1521   4.485   0.177   9.965  0.2810 -0.0286 -0.7528
   21CHL1  H19B 1522   4.544   0.214  10.128 -0.0100 -0.8229  0.2834
   21CHL1  H19C 1523   4.638   0.272   9.975 -1.0835  1.8199  1.0901
   21CHL1    C1 1524   4.583  -0.040  10.105  0.5563 -0.7983  0.3068
   21CHL1   H1A 1525   4.478  -0.045  10.069  0.9361  1.6562 -1.3857
   21CHL1   H1B 1526   4.607  -0.148  10.092 -1.2282 -1.1169 -0.6682
   21CHL1    C2 1527   4.582  -0.027  10.257  1.0578  0.0132  0.4245
   21CHL1   H2A 1528   4.529  -0.113  10.303 -2.4585  1.3367 -0.7983
   21CHL1   H2B 1529   4.506   0.054  10.261  0.3022 -0.6076 -0.7269
   21CHL1   C20 1530   4.660  -0.008   9.324 -0.1380  0.0838  0.8182
   21CHL1   H20 1531   4.651   0.099   9.296 -1.3884  0.2586  1.7980
   21CHL1   C21 1532   4.521  -0.069   9.330  0.6475 -0.1116 -0.0574
   21CHL1  H21A 1533   4.472  -0.058   9.231 -0.9428  1.2522  0.8111
   21CHL1  H21B 1534   4.462  -0.012   9.405  2.1747 -2.0280  2.7778
   21CHL1  H21C 1535   4.525  -0.174   9.365 -0.7342 -0.1393  0.0868
   21CHL1   C22 1536   4.738  -0.069   9.199  0.3974  0.0698  0.3373
   21CHL1  H22A 1537   4.848  -0.052   9.205  0.3361  0.1099  1.4577
   21CHL1  H22B 1538   4.728  -0.180   9.200 -2.0061  0.2270 -0.4437
   21CHL1   C23 1539   4.709   0.004   9.065  0.5385  0.2870  0.0621
   21CHL1  H23A 1540   4.603  -0.022   9.042  0.7927 -0.4286 -0.3412
   21CHL1  H23B 1541   4.737   0.110   9.082  1.0448  0.1133  0.3237
   21CHL1   C24 1542   4.800  -0.051   8.956 -0.0829 -0.4239  0.1622
   21CHL1  H24A 1543   4.903  -0.012   8.969 -0.6647  1.8409 -1.4568
   21CHL1  H24B 1544   4.810  -0.161   8.967 -0.6540 -0.2919  2.6113
   21CHL1   C25 1545   4.744  -0.011   8.819 -0.1945 -0.3656 -0.9536
   21CHL1   H25 1546   4.636  -0.034   8.808  0.0439 -2.0061 -0.1709
   21CHL1   C26 1547   4.740   0.143   8.793 -0.2779 -0.2344 -0.3596
   21CHL1  H26A 1548   4.693   0.188   8.883  0.5441 -2.1307  1.0869
   21CHL1  H26B 1549   4.838   0.191   8.775 -0.0730 -1.2509 -2.1610
   21CHL1  H26C 1550   4.678   0.159   8.702  1.1087 -0.5704 -1.3970
   21CHL1   C27 1551   4.821  -0.087   8.712  0.2116  0.2037  0.8219
   21CHL1  H27A 1552   4.929  -0.060   8.711 -0.3437  2.6806 -0.6932
   21CHL1  H27B 1553   4.818  -0.198   8.717  0.3176  0.1204 -0.6795
   21CHL1  H27C 1554   4.789  -0.049   8.613 -0.5611 -1.3947  0.4218
   22CHL1    C3 1555   3.471   1.036  10.028  0.5156 -0.7591 -0.8204
   22CHL1    H3 1556   3.377   0.987   9.994 -1.0158  0.5677  1.2566
   22CHL1    O3 1557   3.470   1.043  10.170  0.2823 -0.5023 -0.0762
   22CHL1   H3' 1558   3.525   1.118  10.194  1.4883 -0.6737 -2.0391
   22CHL1    C4 1559   3.594   0.954   9.979 -0.2117 -0.1700 -0.7779
   22CHL1   H4A 1560   3.675   1.017  10.022 -0.8301  0.4209 -0.4642
   22CHL1   H4B 1561   3.616   0.851  10.013  2.4132 -0.3065 -2.5853
   22CHL1    C5 1562   3.600   0.953   9.835 -0.5022 -0.5676 -1.0076
   22CHL1    C6 1563   3.593   0.839   9.768  0.3570  0.8729  0.4660
   22CHL1    H6 1564   3.595   0.744   9.825  1.0627  0.0253 -0.9251
   22CHL1    C7 1565   3.603   0.820   9.618 -0.2759 -0.5661  0.5653
   22CHL1   H7A 1566   3.676   0.746   9.580  0.4230 -0.3972  1.5364
   22CHL1   H7B 1567   3.502   0.786   9.588  0.4941 -1.1366 -1.5357
   22CHL1    C8 1568   3.637   0.950   9.548  0.9310 -0.1629  0.9750
   22CHL1    H8 1569   3.747   0.960   9.558  0.8135 -0.4126  2.7085
   22CHL1   C14 1570   3.603   0.940   9.403 -1.0061  0.8113 -0.1843
   22CHL1   H14 1571   3.493   0.925   9.395 -1.1442  0.5536  1.8502
   22CHL1   C15 1572   3.669   0.823   9.323  0.8460  0.0972 -0.1581
   22CHL1  H15A 1573   3.777   0.819   9.348  0.5907 -1.1379  0.8533
   22CHL1  H15B 1574   3.622   0.724   9.341  1.3115 -0.0649  0.1878
   22CHL1   C16 1575   3.646   0.860   9.180  0.6615 -0.4530 -0.1535
   22CHL1  H16A 1576   3.748   0.862   9.136  0.2317  0.0351 -1.1633
   22CHL1  H16B 1577   3.583   0.781   9.134  1.1606 -0.0802 -1.5134
   22CHL1   C17 1578   3.583   1.000   9.175 -0.1894  0.2201 -0.1972
   22CHL1   H17 1579   3.474   0.980   9.173 -0.7418  2.9443 -2.4636
   22CHL1   C13 1580   3.624   1.058   9.319 -0.1370 -0.5962  1.2392
   22CHL1   C18 1581   3.775   1.093   9.322 -0.4867  0.1628  0.9260
   22CHL1  H18A 1582   3.816   1.091   9.426 -0.4159  2.2921  0.9884
   22CHL1  H18B 1583   3.832   1.021   9.260  0.3742  1.1119  0.5938
   22CHL1  H18C 1584   3.793   1.191   9.273  0.8964 -1.0742 -1.2015
   22CHL1   C12 1585   3.537   1.169   9.373  0.3892  0.3432 -0.1868
   22CHL1  H12A 1586   3.530   1.261   9.310  0.1781 -0.0497 -0.7485
   22CHL1  H12B 1587   3.433   1.130   9.379  0.4186  0.5138  2.9788
   22CHL1   C11 1588   3.578   1.197   9.523  0.6992 -0.8974  0.9595
   22CHL1  H11A 1589   3.682   1.237   9.526  0.3797 -0.0880  1.7939
   22CHL1  H11B 1590   3.520   1.282   9.566 -0.4287  0.3031 -2.5717
   22CHL1    C9 1591   3.567   1.070   9.608  0.1135 -0.0449 -0.2031
   22CHL1    H9 1592   3.456   1.059   9.608  0.0961 -0.0495  1.0268
   22CHL1   C10 1593   3.607   1.091   9.761  0.4036  0.2130  0.1498
   22CHL1   C19 1594   3.742   1.164   9.775 -0.4939  0.2445 -0.6001
   22CHL1  H19A 1595   3.732   1.260   9.720 -0.8601  0.3684 -0.3208
   22CHL1  H19B 1596   3.770   1.174   9.882  2.3001 -2.7460 -0.8737
   22CHL1  H19C 1597   3.816   1.099   9.724 -0.2762 -0.2855  0.3662
   22CHL1    C1 1598   3.502   1.194   9.824 -0.0328 -0.2855 -0.6041
   22CHL1   H1A 1599   3.539   1.297   9.802 -0.2204 -0.0709  0.0523
   22CHL1   H1B 1600   3.405   1.175   9.773  0.9732  0.7378 -3.0884
   22CHL1    C2 1601   3.482   1.184   9.982  0.3164  0.0672  0.1933
   22CHL1   H2A 1602   3.384   1.229  10.009  0.8824  0.8441  0.9968
   22CHL1   H2B 1603   3.558   1.252  10.024 -0.7156  2.5429 -1.6886
   22CHL1   C20 1604   3.619   1.084   9.051 -0.0915  0.1606 -0.4992
   22CHL1   H20 1605   3.707   1.150   9.063 -0.0232  0.4033 -2.0802
   22CHL1   C21 1606   3.496   1.180   9.037  1.0421 -0.4617  0.6204
   22CHL1  H21A 1607   3.484   1.254   9.119 -1.2372 -0.1426  0.0523
   22CHL1  H21B 1608   3.398   1.129   9.027 -0.1279  1.0384  3.4114
   22CHL1  H21C 1609   3.510   1.242   8.946  0.4954  0.3329  1.0688
   22CHL1   C22 1610   3.655   1.001   8.920 -0.0728 -0.6080 -0.5825
   22CHL1  H22A 1611   3.692   1.067   8.839 -0.9371  0.1866 -0.3422
   22CHL1  H22B 1612   3.737   0.932   8.951 -0.1285 -0.0258  0.9318
   22CHL1   C23 1613   3.534   0.930   8.862 -0.1486  0.1160 -0.4150
   22CHL1  H23A 1614   3.478   0.870   8.937 -1.3366 -0.2044 -1.5252
   22CHL1  H23B 1615   3.455   1.000   8.829 -1.1237 -0.3994  0.7185
   22CHL1   C24 1616   3.590   0.846   8.745 -0.0753  0.3304  0.4163
   22CHL1  H24A 1617   3.608   0.906   8.653 -0.6898  0.5259  0.4236
   22CHL1  H24B 1618   3.682   0.794   8.780  0.0389  0.9838  1.1170
   22CHL1   C25 1619   3.499   0.728   8.706 -0.1771  0.9122 -0.1069
   22CHL1   H25 1620   3.493   0.664   8.797  4.4779  2.1635  1.3909
   22CHL1   C26 1621   3.362   0.774   8.667 -0.5715  0.3513  0.0846
   22CHL1  H26A 1622   3.318   0.846   8.739 -1.3094 -1.1055  1.1232
   22CHL1  H26B 1623   3.367   0.826   8.568  0.3868  0.6540  0.2860
   22CHL1  H26C 1624   3.302   0.682   8.654 -0.3477  0.4552 -2.0262
   22CHL1   C27 1625   3.572   0.646   8.594  0.5598  0.0637  0.3628
   22CHL1  H27A 1626   3.666   0.595   8.623  0.6626  0.5717  0.9487
   22CHL1  H27B 1627   3.500   0.583   8.538  0.2796  1.7732 -1.3171
   22CHL1  H27C 1628   3.591   0.711   8.506 -2.0523 -1.6909 -1.6413
   23CHL1    C3 1629   1.784   1.096  10.137 -0.2190  0.0754 -0.2684
   23CHL1    H3 1630   1.806   1.203  10.119  0.0253  0.2597  0.9952
   23CHL1    O3 1631   1.748   1.095  10.275  0.4520  0.2312  0.9125
   23CHL1   H3' 1632   1.705   1.009  10.285  1.9543 -1.3077 -3.3033
   23CHL1    C4 1633   1.658   1.059  10.052  0.2853 -0.0380  0.4781
   23CHL1   H4A 1634   1.624   0.960  10.089 -0.7367  1.4961  4.0125
   23CHL1   H4B 1635   1.577   1.132  10.070 -0.6386 -0.5322 -1.4041
   23CHL1    C5 1636   1.690   1.068   9.905  0.5532  0.6126 -0.2237
   23CHL1    C6 1637   1.617   1.152   9.829  0.4276 -0.2344 -0.1837
   23CHL1    H6 1638   1.537   1.212   9.876  1.2358  0.8434 -0.1596
   23CHL1    C7 1639   1.640   1.172   9.681 -0.0398 -1.0148  0.3158
   23CHL1   H7A 1640   1.541   1.173   9.630 -0.8109  2.1684  1.6318
   23CHL1   H7B 1641   1.693   1.268   9.666  2.9813 -2.6503 -0.3920
   23CHL1    C8 1642   1.725   1.056   9.621  0.5803 -0.6062  0.3118
   23CHL1    H8 1643   1.655   0.970   9.624  1.8956 -1.8096 -1.1361
   23CHL1   C14 1644   1.762   1.088   9.476 -0.5819  0.7004  0.3885
   23CHL1   H14 1645   1.821   1.181   9.489 -0.2453  0.5223  0.1466
   23CHL1   C15 1646   1.657   1.119   9.359  0.0408  0.5776 -0.8379
   23CHL1  H15A 1647   1.565   1.058   9.374  0.6953  0.1258  1.8787
   23CHL1  H15B 1648   1.621   1.224   9.363  0.8645  0.8644  3.8391
   23CHL1   C16 1649   1.729   1.086   9.223 -0.1012  0.6651  0.0926
   23CHL1  H16A 1650   1.691   0.989   9.185  0.5065  0.5135 -0.1429
   23CHL1  H16B 1651   1.739   1.161   9.142 -2.6299 -0.5224 -1.4554
   23CHL1   C17 1652   1.878   1.052   9.270 -0.4355  0.2024 -0.1035
   23CHL1   H17 1653   1.918   1.155   9.283  0.5572  0.2629 -2.9760
   23CHL1   C13 1654   1.863   0.987   9.416 -0.1425 -0.6951  0.0167
   23CHL1   C18 1655   1.793   0.849   9.398  0.1139  0.3130 -0.3059
   23CHL1  H18A 1656   1.874   0.774   9.387  1.6172  1.6113  1.2698
   23CHL1  H18B 1657   1.734   0.815   9.485 -1.3889 -1.0022 -1.7761
   23CHL1  H18C 1658   1.723   0.844   9.312 -0.9611 -1.1581  0.6187
   23CHL1   C12 1659   1.992   0.990   9.505 -0.8637 -0.2086  0.7576
   23CHL1  H12A 1660   2.064   0.921   9.455  0.1165  1.2223  0.1324
   23CHL1  H12B 1661   2.056   1.080   9.492  0.8232 -1.4733 -0.1303
   23CHL1   C11 1662   1.961   0.948   9.645 -0.0967 -0.1169 -0.0818
   23CHL1  H11A 1663   1.921   0.846   9.660 -0.2497  0.2912  3.0988
   23CHL1  H11B 1664   2.054   0.966   9.703  1.3706 -0.3828 -2.2382
   23CHL1    C9 1665   1.846   1.039   9.717  0.4755  0.6871  0.4870
   23CHL1    H9 1666   1.887   1.141   9.731  2.3429  0.2164 -1.0545
   23CHL1   C10 1667   1.809   0.988   9.860 -0.3527  0.0606 -0.0984
   23CHL1   C19 1668   1.780   0.836   9.856  0.4646 -0.1818  0.7098
   23CHL1  H19A 1669   1.727   0.805   9.763  1.2418  1.8725 -0.4917
   23CHL1  H19B 1670   1.875   0.780   9.849  1.0858  0.7835  1.1843
   23CHL1  H19C 1671   1.737   0.799   9.951  1.0606  0.6849  1.3359
   23CHL1    C1 1672   1.932   1.011   9.947 -0.2478  0.2277 -0.4179
   23CHL1   H1A 1673   2.012   0.938   9.924 -1.4950 -1.8723  1.5153
   23CHL1   H1B 1674   1.954   1.118   9.928  1.3826  0.3826  1.9926
   23CHL1    C2 1675   1.897   0.997  10.097 -0.2407  0.4865 -0.8419
   23CHL1   H2A 1676   1.982   1.019  10.164  0.3475 -0.8133 -1.1306
   23CHL1   H2B 1677   1.874   0.890  10.117  1.4305  0.1914 -0.3821
   23CHL1   C20 1678   1.958   0.970   9.169 -0.1987 -0.0353 -0.9973
   23CHL1   H20 1679   1.955   0.863   9.198 -2.3595  0.0677 -0.6528
   23CHL1   C21 1680   2.099   1.033   9.163  0.6135  0.6592  0.5329
   23CHL1  H21A 1681   2.091   1.134   9.119 -1.1572  0.4026  0.2067
   23CHL1  H21B 1682   2.170   0.981   9.094  0.0842  1.1919 -0.4284
   23CHL1  H21C 1683   2.139   1.061   9.263  3.3440  1.8229 -0.7787
   23CHL1   C22 1684   1.900   0.966   9.021  0.4086  0.1490  0.2025
   23CHL1  H22A 1685   1.790   0.949   9.023  0.3613  0.2317 -1.1071
   23CHL1  H22B 1686   1.911   1.062   8.967 -0.8022 -0.1667 -0.6672
   23CHL1   C23 1687   1.959   0.851   8.935 -0.9153 -0.1054 -0.1651
   23CHL1  H23A 1688   2.068   0.873   8.926 -1.2587  1.4513 -0.6993
   23CHL1  H23B 1689   1.955   0.751   8.985  0.1727  1.0554  2.4214
   23CHL1   C24 1690   1.902   0.850   8.796  0.3143  0.3647 -0.1058
   23CHL1  H24A 1691   1.803   0.803   8.812  1.6988 -2.3708  0.9273
   23CHL1  H24B 1692   1.900   0.953   8.752  1.1502  0.5650  0.3039
   23CHL1   C25 1693   1.946   0.743   8.696 -1.0547  0.5181  0.3721
   23CHL1   H25 1694   1.961   0.641   8.738  1.8213 -0.2377 -2.1485
   23CHL1   C26 1695   1.828   0.730   8.589 -0.7415  0.3682  0.0359
   23CHL1  H26A 1696   1.878   0.670   8.511  2.5949 -0.1482  2.3545
   23CHL1  H26B 1697   1.746   0.673   8.637  0.9630 -1.6266  0.7747
   23CHL1  H26C 1698   1.803   0.832   8.553 -0.0937  0.1313 -1.1105
   23CHL1   C27 1699   2.083   0.776   8.632 -0.7666  0.3315  0.8179
   23CHL1  H27A 1700   2.073   0.863   8.563  0.6227  0.4287  0.7060
   23CHL1  H27B 1701   2.156   0.800   8.713 -1.9495  2.4629  1.3324
   23CHL1  H27C 1702   2.111   0.682   8.581 -1.4396  0.4558  0.1901
   24CHL1    C3 1703   4.223   2.480  10.192 -0.8888 -0.3885  0.1548
   24CHL1    H3 1704   4.160   2.389  10.197 -3.5405  1.3114 -0.2788
   24CHL1    O3 1705   4.251   2.530  10.324 -0.4929  0.3986  0.4810
   24CHL1   H3' 1706   4.301   2.612  10.321  0.0238  0.1016  0.8975
   24CHL1    C4 1707   4.354   2.473  10.119  0.4557 -0.5573 -0.4172
   24CHL1   H4A 1708   4.393   2.577  10.113  0.3283 -0.4897 -0.1100
   24CHL1   H4B 1709   4.434   2.415  10.171  0.6159 -0.5659 -0.6734
   24CHL1    C5 1710   4.326   2.425   9.976 -0.5486  0.0508 -0.0338
   24CHL1    C6 1711   4.381   2.313   9.931 -0.1888 -0.2869  0.1807
   24CHL1    H6 1712   4.439   2.251  10.001  2.6171  1.1908 -0.6785
   24CHL1    C7 1713   4.367   2.262   9.795 -0.3152 -0.3363  0.4515
   24CHL1   H7A 1714   4.460   2.217   9.756 -0.5083  0.1484 -0.6080
   24CHL1   H7B 1715   4.288   2.183   9.797 -0.5840 -0.0939 -0.2546
   24CHL1    C8 1716   4.306   2.369   9.696 -0.1596 -0.2143 -0.3846
   24CHL1    H8 1717   4.393   2.433   9.671 -0.4722 -0.8683 -3.4811
   24CHL1   C14 1718   4.268   2.313   9.555  0.5804  0.3419 -0.7405
   24CHL1   H14 1719   4.187   2.244   9.588  0.5724  0.2905 -0.8639
   24CHL1   C15 1720   4.366   2.227   9.476  0.0195  0.1784  0.7343
   24CHL1  H15A 1721   4.458   2.288   9.483 -0.1421  0.3617  1.3119
   24CHL1  H15B 1722   4.389   2.125   9.515 -0.0501  0.1969  0.8223
   24CHL1   C16 1723   4.315   2.230   9.335 -0.0538 -0.1354 -0.6195
   24CHL1  H16A 1724   4.399   2.262   9.270  0.8065  0.6314  0.8209
   24CHL1  H16B 1725   4.278   2.130   9.304 -0.4055  0.0270 -0.7359
   24CHL1   C17 1726   4.187   2.322   9.334 -0.9590  0.5023  0.0212
   24CHL1   H17 1727   4.101   2.256   9.359 -2.4651  2.6369  0.8140
   24CHL1   C13 1728   4.208   2.413   9.464 -0.2546  0.2741  0.4943
   24CHL1   C18 1729   4.317   2.521   9.425 -0.0155  0.2297 -0.1751
   24CHL1  H18A 1730   4.360   2.582   9.506 -1.4466  2.0233 -0.6989
   24CHL1  H18B 1731   4.402   2.483   9.364 -0.8928 -1.0482 -0.6427
   24CHL1  H18C 1732   4.272   2.599   9.360  1.4566  1.2045 -0.0591
   24CHL1   C12 1733   4.088   2.476   9.520  0.0473  0.2952 -0.3700
   24CHL1  H12A 1734   4.040   2.550   9.453  0.9091  0.2045 -1.1127
   24CHL1  H12B 1735   4.012   2.394   9.527 -1.1052  1.2677 -1.1432
   24CHL1   C11 1736   4.124   2.548   9.651 -0.3116 -0.3287  0.8681
   24CHL1  H11A 1737   4.192   2.628   9.615  0.8755 -1.2162  1.0775
   24CHL1  H11B 1738   4.034   2.589   9.702 -0.3172 -2.5765  2.8427
   24CHL1    C9 1739   4.196   2.451   9.757 -0.2569 -0.1789  0.3519
   24CHL1    H9 1740   4.121   2.373   9.783 -0.8855  0.5381  0.7427
   24CHL1   C10 1741   4.232   2.522   9.890 -0.7458  0.5848 -0.2795
   24CHL1   C19 1742   4.315   2.651   9.852  0.4270  0.2455 -0.6051
   24CHL1  H19A 1743   4.325   2.718   9.940 -1.2957  0.1399 -0.2938
   24CHL1  H19B 1744   4.412   2.623   9.806  1.5958  1.0249  1.2472
   24CHL1  H19C 1745   4.256   2.722   9.791 -1.0806 -0.0478  0.4338
   24CHL1    C1 1746   4.100   2.544   9.975  0.0409 -0.1957 -0.3746
   24CHL1   H1A 1747   4.042   2.628   9.932  0.1365 -0.4700 -1.0443
   24CHL1   H1B 1748   4.048   2.446   9.977 -1.3760  0.5420  0.3022
   24CHL1    C2 1749   4.122   2.578  10.126 -0.6417 -0.0514 -0.2449
   24CHL1   H2A 1750   4.026   2.587  10.180 -1.1978 -0.7124 -1.1019
   24CHL1   H2B 1751   4.165   2.680  10.137  1.0708 -0.7954  0.2490
   24CHL1   C20 1752   4.154   2.391   9.204 -0.4171 -0.0434  0.2120
   24CHL1   H20 1753   4.231   2.470   9.190 -0.2754  0.3948  3.0265
   24CHL1   C21 1754   4.022   2.472   9.212  0.5023 -0.0874 -0.3581
   24CHL1  H21A 1755   3.953   2.411   9.275  0.2830  1.0929  0.5880
   24CHL1  H21B 1756   3.974   2.487   9.113  0.8990 -2.7411 -1.0113
   24CHL1  H21C 1757   4.033   2.565   9.273 -0.6417  0.7419 -1.3731
   24CHL1   C22 1758   4.172   2.301   9.077 -0.4261 -0.5283  0.4990
   24CHL1  H22A 1759   4.255   2.227   9.085  0.1893  0.2522  1.5466
   24CHL1  H22B 1760   4.075   2.249   9.058 -0.7362  0.0156  0.5814
   24CHL1   C23 1761   4.208   2.385   8.956 -0.5496 -0.4827  0.1645
   24CHL1  H23A 1762   4.116   2.441   8.926 -1.4756 -1.7016  0.6600
   24CHL1  H23B 1763   4.291   2.457   8.975 -1.9959  1.1091  0.7016
   24CHL1   C24 1764   4.239   2.297   8.828 -0.0241 -0.2156 -0.7859
   24CHL1  H24A 1765   4.330   2.240   8.855  0.5734  1.6933  1.5308
   24CHL1  H24B 1766   4.150   2.231   8.817 -0.7994  0.7922 -0.6691
   24CHL1   C25 1767   4.272   2.383   8.707  0.3722 -0.3681 -0.4861
   24CHL1   H25 1768   4.345   2.460   8.738  0.1875  0.8039 -2.7556
   24CHL1   C26 1769   4.333   2.291   8.598  0.2096 -0.2677  0.0515
   24CHL1  H26A 1770   4.266   2.206   8.572 -0.6576  0.8947 -1.7017
   24CHL1  H26B 1771   4.348   2.346   8.503 -0.6847  0.1171  0.1276
   24CHL1  H26C 1772   4.429   2.246   8.632 -0.0458  0.6297  2.0366
   24CHL1   C27 1773   4.150   2.457   8.647 -0.0689  0.9607  0.4936
   24CHL1  H27A 1774   4.084   2.376   8.609  1.0463  0.2192  0.1221
   24CHL1  H27B 1775   4.103   2.519   8.727 -0.9189 -0.0539  0.8174
   24CHL1  H27C 1776   4.181   2.515   8.558 -1.1313  0.9101  0.0704
   25CHL1    C3 1777   3.467   5.059  10.439 -0.0957  0.0176 -0.1350
   25CHL1    H3 1778   3.397   4.974  10.429 -0.1638  0.1875 -1.3364
   25CHL1    O3 1779   3.477   5.105  10.573  0.1649  0.1959 -0.4141
   25CHL1   H3' 1780   3.522   5.189  10.557  1.7987 -0.3757  0.7900
   25CHL1    C4 1781   3.605   5.007  10.392  0.6283  0.6633 -0.3745
   25CHL1   H4A 1782   3.692   5.075  10.405  1.1570  0.0676 -0.7509
   25CHL1   H4B 1783   3.629   4.922  10.459 -3.0248 -1.2548 -1.2584
   25CHL1    C5 1784   3.599   4.964  10.245  0.3483  0.6313 -0.4602
   25CHL1    C6 1785   3.634   4.835  10.209 -0.3598 -0.2710 -0.1574
   25CHL1    H6 1786   3.692   4.774  10.280  0.5144  0.3217 -0.3497
   25CHL1    C7 1787   3.627   4.770  10.071  0.2323 -0.0723  0.2736
   25CHL1   H7A 1788   3.715   4.704  10.055  1.0847  0.7911  1.2287
   25CHL1   H7B 1789   3.540   4.700  10.073  1.1581 -1.2492  2.0564
   25CHL1    C8 1790   3.604   4.882   9.967 -0.1447  0.0302  0.1706
   25CHL1    H8 1791   3.700   4.936   9.953  0.8484 -1.5010  0.8163
   25CHL1   C14 1792   3.567   4.831   9.828 -0.1265  0.3103  0.1418
   25CHL1   H14 1793   3.465   4.789   9.842  0.4901 -1.1321  0.4787
   25CHL1   C15 1794   3.652   4.716   9.778  0.3523 -0.2432  0.1233
   25CHL1  H15A 1795   3.761   4.722   9.801 -0.0355  0.1814  1.9348
   25CHL1  H15B 1796   3.618   4.618   9.817  0.6242 -0.6092 -0.5392
   25CHL1   C16 1797   3.625   4.724   9.626  0.0977  0.5582 -0.0121
   25CHL1  H16A 1798   3.721   4.719   9.569 -0.9140 -2.4678 -1.6770
   25CHL1  H16B 1799   3.575   4.635   9.583  1.2660 -0.4524  0.6713
   25CHL1   C17 1800   3.547   4.856   9.595 -0.3149  0.3093  0.3502
   25CHL1   H17 1801   3.440   4.825   9.594 -0.2963  0.0351  2.2206
   25CHL1   C13 1802   3.555   4.944   9.720 -0.6551 -1.1041 -0.3697
   25CHL1   C18 1803   3.687   5.030   9.709  0.7955  0.1915 -0.5020
   25CHL1  H18A 1804   3.692   5.106   9.629 -0.4977  3.3716  2.2292
   25CHL1  H18B 1805   3.707   5.084   9.804  2.0041 -0.5277 -0.3230
   25CHL1  H18C 1806   3.773   4.959   9.704  1.1031  0.1082  3.0158
   25CHL1   C12 1807   3.436   5.030   9.750 -0.1574 -0.1564 -0.0152
   25CHL1  H12A 1808   3.433   5.114   9.677 -0.1587  0.2533  0.4412
   25CHL1  H12B 1809   3.341   4.972   9.750  0.6044 -1.4306 -0.9581
   25CHL1   C11 1810   3.458   5.089   9.897  0.0650  0.5846  0.3252
   25CHL1  H11A 1811   3.549   5.153   9.891  1.9954 -1.9976 -0.2037
   25CHL1  H11B 1812   3.363   5.142   9.916 -0.1240  0.0635  0.8941
   25CHL1    C9 1813   3.495   4.981  10.010 -0.3579 -0.3948 -0.2138
   25CHL1    H9 1814   3.407   4.914  10.026 -1.0255  0.7150  0.9251
   25CHL1   C10 1815   3.527   5.052  10.142  0.0307  0.4777 -0.3187
   25CHL1   C19 1816   3.644   5.156  10.127 -0.1450  0.0197 -0.2171
   25CHL1  H19A 1817   3.724   5.120  10.059 -0.1743  2.8047 -1.8830
   25CHL1  H19B 1818   3.596   5.245  10.081  1.6931  0.3733 -1.5421
   25CHL1  H19C 1819   3.690   5.198  10.219  2.7370  0.3992 -1.7435
   25CHL1    C1 1820   3.407   5.125  10.212  0.3125  0.2979  1.1647
   25CHL1   H1A 1821   3.373   5.214  10.155 -0.7499  0.4888  2.0522
   25CHL1   H1B 1822   3.324   5.050  10.209  1.3548 -0.8604 -0.4056
   25CHL1    C2 1823   3.421   5.173  10.357  0.7099  0.0714  0.4166
   25CHL1   H2A 1824   3.318   5.204  10.385  0.3256 -1.5624  0.9094
   25CHL1   H2B 1825   3.489   5.261  10.360 -0.6626  1.2155 -0.3282
   25CHL1   C20 1826   3.597   4.909   9.459 -0.2351 -0.2553 -0.3463
   25CHL1   H20 1827   3.705   4.937   9.460  0.3022 -2.1806 -0.8820
   25CHL1   C21 1828   3.506   5.020   9.418 -0.3738  0.3903 -0.3398
   25CHL1  H21A 1829   3.399   4.991   9.428 -0.2226  0.1612  0.7411
   25CHL1  H21B 1830   3.540   5.043   9.315 -0.2300 -0.7676 -0.5665
   25CHL1  H21C 1831   3.526   5.115   9.471  0.4490 -0.9593  1.9113
   25CHL1   C22 1832   3.583   4.804   9.350 -0.0774 -0.4464 -0.9682
   25CHL1  H22A 1833   3.646   4.716   9.376 -0.7980 -0.6916 -0.0061
   25CHL1  H22B 1834   3.480   4.763   9.352 -0.3591  0.0422 -3.3167
   25CHL1   C23 1835   3.623   4.855   9.208  0.1405 -0.0594 -0.0928
   25CHL1  H23A 1836   3.534   4.911   9.172 -0.5968 -0.8623  0.4479
   25CHL1  H23B 1837   3.712   4.921   9.212  0.0572  0.0123  0.6371
   25CHL1   C24 1838   3.656   4.732   9.123  0.2039 -0.2018 -0.1482
   25CHL1  H24A 1839   3.742   4.683   9.175  0.4353 -0.2026 -0.5264
   25CHL1  H24B 1840   3.577   4.655   9.111  0.5759 -0.2305 -2.9436
   25CHL1   C25 1841   3.703   4.765   8.986  0.2661  0.0983  0.1572
   25CHL1   H25 1842   3.794   4.826   9.004 -0.9233  2.6852 -1.8400
   25CHL1   C26 1843   3.741   4.635   8.914  0.2875 -0.0527  0.3655
   25CHL1  H26A 1844   3.824   4.579   8.962  0.3787 -2.1443 -2.0280
   25CHL1  H26B 1845   3.666   4.553   8.909  0.0961  0.1657 -0.6113
   25CHL1  H26C 1846   3.757   4.660   8.807 -1.0893 -2.4489 -0.4734
   25CHL1   C27 1847   3.601   4.844   8.910 -0.3273  0.3422  0.0513
   25CHL1  H27A 1848   3.509   4.784   8.896  0.5610 -1.3431  0.9857
   25CHL1  H27B 1849   3.584   4.944   8.956 -0.1626 -0.8235  2.8365
   25CHL1  H27C 1850   3.646   4.863   8.810  1.4033 -3.0943  0.0134
   26CHL1    C3 1851   4.739   6.290  10.312  0.3550 -0.1724  0.6667
   26CHL1    H3 1852   4.671   6.211  10.273  1.6558  0.0827 -2.3475
   26CHL1    O3 1853   4.709   6.306  10.451 -0.2734  0.8980 -0.7833
   26CHL1   H3' 1854   4.739   6.226  10.495 -0.4864  0.9768 -0.4896
   26CHL1    C4 1855   4.888   6.257  10.300 -0.3654 -0.1513  0.5719
   26CHL1   H4A 1856   4.944   6.330  10.362  0.7641 -0.4640 -0.0492
   26CHL1   H4B 1857   4.903   6.161  10.354  2.9983  0.2515  0.5582
   26CHL1    C5 1858   4.935   6.246  10.152  0.0656 -0.7173 -0.6827
   26CHL1    C6 1859   4.997   6.136  10.112  0.6254  0.8514  0.1407
   26CHL1    H6 1860   5.015   6.057  10.186  0.9860  0.8202  0.0225
   26CHL1    C7 1861   5.036   6.099   9.966 -0.0850 -0.3166 -0.4122
   26CHL1   H7A 1862   5.136   6.052   9.975 -0.6041 -1.8649 -2.2349
   26CHL1   H7B 1863   4.961   6.030   9.922 -0.6487 -0.2193  0.3629
   26CHL1    C8 1864   5.030   6.226   9.876 -0.3571  0.0954 -0.6083
   26CHL1    H8 1865   5.120   6.283   9.910 -0.7636  0.0628  0.5556
   26CHL1   C14 1866   5.027   6.202   9.722  0.3196 -0.7579  0.1287
   26CHL1   H14 1867   4.930   6.158   9.689  0.9424 -1.8820 -0.2240
   26CHL1   C15 1868   5.130   6.106   9.664  0.0583 -0.7037 -0.4103
   26CHL1  H15A 1869   5.225   6.111   9.721 -0.4781 -0.8952  0.5230
   26CHL1  H15B 1870   5.083   6.005   9.672  0.2364 -0.7112  0.6883
   26CHL1   C16 1871   5.149   6.149   9.524  0.0776 -0.2308  0.2632
   26CHL1  H16A 1872   5.256   6.171   9.501 -0.3940  0.1593 -1.7086
   26CHL1  H16B 1873   5.133   6.063   9.456  1.4351  0.2218 -0.6907
   26CHL1   C17 1874   5.050   6.268   9.492  0.1550 -0.2138 -0.1592
   26CHL1   H17 1875   4.952   6.224   9.466  0.3914  0.4913 -2.4614
   26CHL1   C13 1876   5.037   6.333   9.636  0.3270  0.0984 -0.1654
   26CHL1   C18 1877   5.159   6.427   9.665  0.5094 -0.4395  0.4481
   26CHL1  H18A 1878   5.151   6.513   9.596 -1.0003 -0.9728 -0.0963
   26CHL1  H18B 1879   5.151   6.465   9.769 -1.8836 -2.4453  1.0837
   26CHL1  H18C 1880   5.262   6.386   9.651  0.2598 -0.9612  0.0752
   26CHL1   C12 1881   4.899   6.406   9.666 -0.8235  0.2083  0.5164
   26CHL1  H12A 1882   4.920   6.505   9.621  0.4639  0.8563  2.4089
   26CHL1  H12B 1883   4.807   6.361   9.622 -1.9387  2.1873  0.7098
   26CHL1   C11 1884   4.890   6.437   9.815  0.7148  0.0873 -0.3142
   26CHL1  H11A 1885   4.957   6.521   9.844  1.3005  0.3281 -2.2174
   26CHL1  H11B 1886   4.784   6.468   9.826  0.8489  0.9907 -1.3826
   26CHL1    C9 1887   4.902   6.313   9.910 -0.0298  0.1118 -0.3915
   26CHL1    H9 1888   4.817   6.248   9.882 -0.3034 -0.2432  1.1437
   26CHL1   C10 1889   4.890   6.356  10.057  0.3764  0.6212 -0.8270
   26CHL1   C19 1890   4.971   6.477  10.093  0.5218  0.9235 -0.5590
   26CHL1  H19A 1891   4.970   6.510  10.199  0.7222 -0.4785 -0.0969
   26CHL1  H19B 1892   5.078   6.468  10.063  0.1952 -3.7461 -1.1316
   26CHL1  H19C 1893   4.930   6.564  10.038  0.7495  1.0679 -0.5017
   26CHL1    C1 1894   4.736   6.390  10.084 -0.1023  0.2947  0.3492
   26CHL1   H1A 1895   4.703   6.469  10.014  2.7973  0.7194 -0.6924
   26CHL1   H1B 1896   4.682   6.298  10.054 -0.4861  0.8865 -0.8013
   26CHL1    C2 1897   4.699   6.410  10.234  0.6661  0.1360 -0.5363
   26CHL1   H2A 1898   4.588   6.419  10.237  0.7584  2.2225 -1.5213
   26CHL1   H2B 1899   4.745   6.501  10.279  1.7242 -1.9248  2.9099
   26CHL1   C20 1900   5.098   6.356   9.371  0.1901  0.4334  0.2583
   26CHL1   H20 1901   5.185   6.419   9.399 -1.1080  2.8306 -0.7913
   26CHL1   C21 1902   4.990   6.462   9.344 -0.6339  0.0706 -0.0572
   26CHL1  H21A 1903   5.008   6.547   9.413  1.0195 -1.0469  0.9604
   26CHL1  H21B 1904   4.891   6.421   9.374  0.2667 -2.2281 -0.0860
   26CHL1  H21C 1905   4.984   6.496   9.238 -2.5532 -1.5434 -0.5331
   26CHL1   C22 1906   5.114   6.265   9.251  0.2150  1.0107 -0.0248
   26CHL1  H22A 1907   5.170   6.170   9.264 -2.4216 -0.5710  0.4615
   26CHL1  H22B 1908   5.014   6.236   9.213  0.0095  1.4066  0.2117
   26CHL1   C23 1909   5.201   6.333   9.139 -0.0419 -0.3706 -0.0088
   26CHL1  H23A 1910   5.153   6.433   9.136 -1.7337 -1.1518 -0.3425
   26CHL1  H23B 1911   5.309   6.332   9.166 -0.0725 -1.6032  0.1095
   26CHL1   C24 1912   5.189   6.250   9.015  0.0720  0.2287 -0.1743
   26CHL1  H24A 1913   5.255   6.161   9.025  0.2008  0.3311 -0.1100
   26CHL1  H24B 1914   5.083   6.225   8.998  0.5077 -1.4098 -0.7108
   26CHL1   C25 1915   5.244   6.315   8.890 -0.1749  0.7108  0.2812
   26CHL1   H25 1916   5.346   6.355   8.909  0.6518 -0.4501 -1.5457
   26CHL1   C26 1917   5.274   6.207   8.777  0.3267  0.3272 -0.3809
   26CHL1  H26A 1918   5.310   6.249   8.681 -1.4604  1.9957 -0.3766
   26CHL1  H26B 1919   5.355   6.138   8.811 -0.7249 -0.9117 -0.3109
   26CHL1  H26C 1920   5.192   6.136   8.753  1.7251 -1.8684  0.9239
   26CHL1   C27 1921   5.150   6.432   8.845 -0.1008  0.6412  0.1074
   26CHL1  H27A 1922   5.124   6.485   8.939  0.6991 -0.6168  1.0674
   26CHL1  H27B 1923   5.200   6.493   8.766 -3.1889  3.4437  0.1147
   26CHL1  H27C 1924   5.062   6.380   8.801  1.5352 -2.0384 -0.2156
   27CHL1    C3 1925   3.720   2.189  10.367 -0.7518 -0.2705  0.3106
   27CHL1    H3 1926   3.797   2.111  10.350 -1.0273 -0.4673 -0.0514
   27CHL1    O3 1927   3.732   2.253  10.498  0.4178 -0.8366  0.3317
   27CHL1   H3' 1928   3.826   2.254  10.513  0.3231  0.1917  0.9296
   27CHL1    C4 1929   3.762   2.290  10.258  0.6329 -0.1681 -0.7437
   27CHL1   H4A 1930   3.720   2.385  10.297  1.8706  0.2554 -0.3683
   27CHL1   H4B 1931   3.873   2.297  10.271  0.6150  0.2520 -0.8045
   27CHL1    C5 1932   3.723   2.247  10.121  0.0593  0.1787 -0.1975
   27CHL1    C6 1933   3.823   2.244  10.026  0.2258  0.6855  0.1796
   27CHL1    H6 1934   3.922   2.284  10.054  0.8546 -1.9135  1.9628
   27CHL1    C7 1935   3.799   2.212   9.880  0.0115 -0.6783 -0.3730
   27CHL1   H7A 1936   3.849   2.296   9.826  0.5509 -0.4445  0.4569
   27CHL1   H7B 1937   3.846   2.118   9.843  0.5762 -0.2591 -0.7382
   27CHL1    C8 1938   3.649   2.210   9.839  0.2149 -0.5407 -0.3344
   27CHL1    H8 1939   3.617   2.316   9.830 -1.3229 -0.9418  0.1380
   27CHL1   C14 1940   3.632   2.141   9.706  0.6566  0.0609  0.4940
   27CHL1   H14 1941   3.671   2.038   9.717 -0.3768 -0.0379  4.5280
   27CHL1   C15 1942   3.714   2.201   9.588  0.0454 -0.1878 -1.1081
   27CHL1  H15A 1943   3.710   2.310   9.605  0.8723 -0.5052  1.5463
   27CHL1  H15B 1944   3.820   2.169   9.599  0.9226  2.9533  0.7079
   27CHL1   C16 1945   3.651   2.144   9.462  0.6908 -0.2963 -0.5101
   27CHL1  H16A 1946   3.635   2.233   9.396 -1.4751  1.4526  2.1579
   27CHL1  H16B 1947   3.714   2.073   9.405  0.7649 -0.4007 -0.2975
   27CHL1   C17 1948   3.523   2.069   9.507  0.4691  0.2526  0.2919
   27CHL1   H17 1949   3.537   1.959   9.515 -1.2905  0.0112  0.5544
   27CHL1   C13 1950   3.488   2.123   9.649 -0.0316  0.5462 -0.1271
   27CHL1   C18 1951   3.416   2.263   9.639 -0.6935  0.1722  0.4671
   27CHL1  H18A 1952   3.473   2.336   9.577 -0.9537 -0.8146 -0.9959
   27CHL1  H18B 1953   3.317   2.256   9.590 -0.1565  1.3325 -0.8202
   27CHL1  H18C 1954   3.410   2.308   9.740  5.1015 -1.0288  1.7566
   27CHL1   C12 1955   3.417   2.030   9.753  0.0924  0.0949  0.1105
   27CHL1  H12A 1956   3.313   2.006   9.725  0.1605  0.3294 -0.3624
   27CHL1  H12B 1957   3.482   1.940   9.758  1.4755  1.0926  1.1100
   27CHL1   C11 1958   3.420   2.088   9.900  0.1477  0.3820  0.4050
   27CHL1  H11A 1959   3.342   2.167   9.896 -1.9752 -1.6515 -0.2596
   27CHL1  H11B 1960   3.375   2.020   9.975 -1.5802  2.6527  1.5600
   27CHL1    C9 1961   3.564   2.141   9.952  0.6156 -0.1137  0.8601
   27CHL1    H9 1962   3.611   2.040   9.962 -2.4242 -1.6716  0.5701
   27CHL1   C10 1963   3.580   2.205  10.088 -0.4182  0.2325 -0.0364
   27CHL1   C19 1964   3.481   2.321  10.098 -0.2652 -0.2245  0.4634
   27CHL1  H19A 1965   3.493   2.397  10.018 -0.1106  1.4096  1.9748
   27CHL1  H19B 1966   3.381   2.277  10.078 -0.4849  0.5945 -0.3066
   27CHL1  H19C 1967   3.486   2.366  10.199  1.7119 -1.6970  1.0746
   27CHL1    C1 1968   3.548   2.096  10.190 -0.5196 -0.2430  0.1341
   27CHL1   H1A 1969   3.439   2.071  10.185 -0.1062 -2.1041 -0.2259
   27CHL1   H1B 1970   3.599   2.001  10.166 -1.5801 -0.3323 -1.9954
   27CHL1    C2 1971   3.569   2.137  10.338 -0.0161 -0.2129  0.2033
   27CHL1   H2A 1972   3.548   2.063  10.418 -0.3678  1.0334  1.3083
   27CHL1   H2B 1973   3.504   2.222  10.369  1.3016  1.6022 -1.7148
   27CHL1   C20 1974   3.417   2.078   9.395 -0.1581 -0.4352  0.8412
   27CHL1   H20 1975   3.397   2.185   9.370  3.5445  0.0781 -0.6186
   27CHL1   C21 1976   3.292   2.002   9.428 -0.0388  0.2473  0.0458
   27CHL1  H21A 1977   3.250   2.026   9.528 -0.3885 -0.7819  0.1505
   27CHL1  H21B 1978   3.321   1.896   9.436 -1.5309 -0.0604  2.2453
   27CHL1  H21C 1979   3.208   2.016   9.358 -0.9780 -0.1024  1.0707
   27CHL1   C22 1980   3.468   2.029   9.252  0.4529  0.1842 -0.0046
   27CHL1  H22A 1981   3.546   2.103   9.225  0.6252 -0.2991 -0.8557
   27CHL1  H22B 1982   3.507   1.925   9.243 -0.2959  0.0406 -2.2567
   27CHL1   C23 1983   3.364   2.047   9.137  0.2284  0.5055 -0.5196
   27CHL1  H23A 1984   3.303   1.954   9.136  1.2365 -0.1917  0.2129
   27CHL1  H23B 1985   3.296   2.129   9.170  0.2609  0.5457 -0.5524
   27CHL1   C24 1986   3.426   2.083   9.000 -0.3882 -0.3486  0.2780
   27CHL1  H24A 1987   3.495   2.170   9.012  0.7470 -1.2626  0.5289
   27CHL1  H24B 1988   3.491   1.998   8.970  1.2147  0.1763  2.0143
   27CHL1   C25 1989   3.315   2.128   8.900  0.6261 -0.1880 -0.0569
   27CHL1   H25 1990   3.250   2.205   8.946  1.4182  0.7497 -0.4918
   27CHL1   C26 1991   3.372   2.169   8.767  0.0030  0.3547 -0.1690
   27CHL1  H26A 1992   3.297   2.170   8.684  0.2602 -0.2075 -0.4149
   27CHL1  H26B 1993   3.425   2.266   8.776 -1.2870  0.9438  1.5022
   27CHL1  H26C 1994   3.442   2.087   8.739  1.0667  1.0348  0.4597
   27CHL1   C27 1995   3.220   2.006   8.874 -0.1451  0.5846  0.1067
   27CHL1  H27A 1996   3.281   1.920   8.836 -1.6234 -1.5429  2.2475
   27CHL1  H27B 1997   3.171   1.961   8.963  1.0788  0.3547  0.6839
   27CHL1  H27C 1998   3.148   2.025   8.792 -0.6300  1.5381  0.7373
   28CHL1    C3 1999   5.047   0.458  10.249  0.9558  0.1318 -0.0213
   28CHL1    H3 2000   5.045   0.349  10.226  0.3590  0.0903  0.2125
   28CHL1    O3 2001   5.072   0.487  10.385  0.0500  0.2474 -0.2524
   28CHL1   H3' 2002   5.008   0.555  10.409 -1.3964 -0.7090 -1.2381
   28CHL1    C4 2003   5.162   0.513  10.167  0.6468  0.8954 -0.0682
   28CHL1   H4A 2004   5.209   0.606  10.203  2.1648 -0.3978  1.4323
   28CHL1   H4B 2005   5.245   0.443  10.190  0.8118  1.3376  0.6812
   28CHL1    C5 2006   5.138   0.506  10.018 -0.3038  0.3055  0.7702
   28CHL1    C6 2007   5.223   0.449   9.937 -0.5483 -0.3916  0.1761
   28CHL1    H6 2008   5.319   0.411   9.976 -0.1926  2.6283  2.6897
   28CHL1    C7 2009   5.203   0.443   9.789  0.1655 -0.7958 -0.7445
   28CHL1   H7A 2010   5.299   0.469   9.739  0.7597  0.3026  0.8602
   28CHL1   H7B 2011   5.172   0.339   9.767  1.6797 -1.6410  0.7987
   28CHL1    C8 2012   5.086   0.529   9.735  0.3847 -0.2856  0.0928
   28CHL1    H8 2013   5.115   0.636   9.725 -0.0110 -0.3577 -2.5488
   28CHL1   C14 2014   5.056   0.470   9.597 -0.0922  0.0563  0.4460
   28CHL1   H14 2015   5.011   0.370   9.613  1.7371 -1.2108 -1.6929
   28CHL1   C15 2016   5.163   0.443   9.498 -0.4528 -0.0623  0.7475
   28CHL1  H15A 2017   5.248   0.512   9.483  0.4707 -1.6188 -2.0593
   28CHL1  H15B 2018   5.221   0.350   9.516 -1.8914 -1.4253 -1.1171
   28CHL1   C16 2019   5.090   0.417   9.366  0.4624  0.3133  0.2426
   28CHL1  H16A 2020   5.139   0.476   9.286 -1.1197  0.3541 -0.7517
   28CHL1  H16B 2021   5.100   0.310   9.338 -0.5833  0.9210 -2.8672
   28CHL1   C17 2022   4.940   0.464   9.388 -0.4280  0.7617 -0.1396
   28CHL1   H17 2023   4.883   0.376   9.424 -0.3555  1.5738  2.1197
   28CHL1   C13 2024   4.949   0.545   9.522  0.3060  0.3785 -0.2098
   28CHL1   C18 2025   4.997   0.686   9.496  0.1341 -0.1058 -0.1794
   28CHL1  H18A 2026   4.916   0.734   9.438 -1.6546 -1.4093  1.1372
   28CHL1  H18B 2027   4.996   0.745   9.591 -0.2082  0.1474 -0.3405
   28CHL1  H18C 2028   5.101   0.694   9.456  0.3828  1.0396  0.6254
   28CHL1   C12 2029   4.818   0.539   9.609 -0.3441  0.6561 -0.0090
   28CHL1  H12A 2030   4.734   0.605   9.577 -1.5488 -1.0203 -0.4878
   28CHL1  H12B 2031   4.782   0.433   9.602  1.1368  0.2010 -1.3998
   28CHL1   C11 2032   4.838   0.583   9.752 -0.0556 -0.8943 -0.1056
   28CHL1  H11A 2033   4.854   0.693   9.756 -1.0889 -0.7060 -0.8606
   28CHL1  H11B 2034   4.757   0.554   9.822 -1.3921  3.7138  0.5883
   28CHL1    C9 2035   4.963   0.520   9.815 -0.5724  0.3844 -0.7338
   28CHL1    H9 2036   4.931   0.415   9.829 -1.4823  0.8772  1.2834
   28CHL1   C10 2037   5.005   0.560   9.963  0.3574 -0.3843  0.5427
   28CHL1   C19 2038   5.012   0.722   9.962 -0.3660 -0.4077 -0.4012
   28CHL1  H19A 2039   5.068   0.757   9.873  2.3709  0.5881  1.5588
   28CHL1  H19B 2040   4.910   0.766   9.961  1.4060  4.6331  2.2203
   28CHL1  H19C 2041   5.057   0.758  10.058  0.3865  0.0087 -0.9014
   28CHL1    C1 2042   4.891   0.512  10.052  0.9962  0.3934 -0.3610
   28CHL1   H1A 2043   4.790   0.554  10.031 -1.2373 -2.2813  3.7217
   28CHL1   H1B 2044   4.878   0.403  10.039 -0.1222  0.0275  2.8920
   28CHL1    C2 2045   4.917   0.526  10.204  0.4137 -0.0109  0.5069
   28CHL1   H2A 2046   4.842   0.471  10.264 -0.1727 -0.6269 -0.7445
   28CHL1   H2B 2047   4.892   0.632  10.227 -1.3542  0.0168 -1.2513
   28CHL1   C20 2048   4.878   0.521   9.265 -0.1251 -0.0103 -0.5972
   28CHL1   H20 2049   4.931   0.616   9.243  1.9308 -1.1919 -1.0176
   28CHL1   C21 2050   4.729   0.540   9.292  0.9103 -0.5605  0.8599
   28CHL1  H21A 2051   4.674   0.559   9.198  0.9891 -1.1493  0.6954
   28CHL1  H21B 2052   4.699   0.629   9.352 -0.0625 -1.3371  1.5646
   28CHL1  H21C 2053   4.676   0.454   9.338 -1.7793  0.3302 -0.3885
   28CHL1   C22 2054   4.906   0.428   9.138 -0.0217 -1.0318 -0.5395
   28CHL1  H22A 2055   5.014   0.441   9.113 -0.0388  0.3876  0.0440
   28CHL1  H22B 2056   4.874   0.329   9.175  1.0396 -0.8586  0.9280
   28CHL1   C23 2057   4.823   0.464   9.010 -0.3382  0.0869 -0.1327
   28CHL1  H23A 2058   4.853   0.398   8.926 -0.5449 -1.0090  0.6207
   28CHL1  H23B 2059   4.717   0.431   9.020 -1.2366  2.0458 -2.3286
   28CHL1   C24 2060   4.836   0.612   8.972 -0.2883 -0.7600  0.0173
   28CHL1  H24A 2061   4.779   0.681   9.037  0.2718 -0.8489  0.6183
   28CHL1  H24B 2062   4.944   0.641   8.973 -0.5106  0.2105  2.2590
   28CHL1   C25 2063   4.781   0.630   8.832 -0.1464 -0.1241 -0.1756
   28CHL1   H25 2064   4.846   0.568   8.767 -0.6347  1.1214 -1.9061
   28CHL1   C26 2065   4.635   0.594   8.813 -0.2200  0.7040 -0.1521
   28CHL1  H26A 2066   4.622   0.484   8.814 -1.3817  0.8331  1.1143
   28CHL1  H26B 2067   4.565   0.634   8.889  0.5783  0.2512  0.8411
   28CHL1  H26C 2068   4.599   0.632   8.715 -1.8778 -0.8083 -0.1672
   28CHL1   C27 2069   4.788   0.784   8.794 -0.6576  0.7398  0.0895
   28CHL1  H27A 2070   4.734   0.814   8.886  0.0812 -3.0662  1.9742
   28CHL1  H27B 2071   4.892   0.824   8.795 -0.0643 -0.4428 -3.0817
   28CHL1  H27C 2072   4.735   0.798   8.698  0.6795 -2.6408 -1.3184
   29CHL1    C3 2073   5.005   0.707   6.573 -0.5760  0.3852  0.5283
   29CHL1    H3 2074   4.949   0.802   6.568  0.0889  0.7744  0.2516
   29CHL1    O3 2075   5.023   0.652   6.441 -0.5312 -0.0678 -0.3284
   29CHL1   H3' 2076   4.936   0.663   6.401 -1.0017  0.1713  0.7393
   29CHL1    C4 2077   5.141   0.736   6.626  0.3315 -0.3836 -0.0314
   29CHL1   H4A 2078   5.206   0.646   6.631  2.3847  1.0156 -0.4350
   29CHL1   H4B 2079   5.199   0.803   6.560  0.7381 -1.8768 -1.2553
   29CHL1    C5 2080   5.125   0.793   6.769  0.1508 -0.2332 -0.0872
   29CHL1    C6 2081   5.167   0.918   6.799  0.1828  0.0440 -0.1825
   29CHL1    H6 2082   5.205   0.979   6.715 -0.6063  0.7729 -0.0338
   29CHL1    C7 2083   5.161   0.961   6.943  0.3186 -0.1370 -0.8037
   29CHL1   H7A 2084   5.252   1.023   6.963  0.3079  1.1753 -4.1447
   29CHL1   H7B 2085   5.074   1.026   6.968  0.3909 -0.2599 -0.2221
   29CHL1    C8 2086   5.154   0.842   7.044  0.0673  0.0306 -0.6039
   29CHL1    H8 2087   5.253   0.792   7.047  0.0453 -0.0261 -0.8183
   29CHL1   C14 2088   5.132   0.894   7.187 -0.3666  0.0194 -0.2521
   29CHL1   H14 2089   5.047   0.965   7.172  2.0675  3.3505  0.5129
   29CHL1   C15 2090   5.242   0.990   7.235  0.0006  0.0393  0.1645
   29CHL1  H15A 2091   5.341   0.946   7.209  1.1017  1.3088  1.9386
   29CHL1  H15B 2092   5.229   1.083   7.175 -4.3304 -1.7357 -2.0870
   29CHL1   C16 2093   5.217   0.994   7.385  0.8028 -0.8565  0.5228
   29CHL1  H16A 2094   5.308   0.971   7.444 -0.5180 -0.8826  2.6432
   29CHL1  H16B 2095   5.183   1.094   7.418 -0.5314 -1.1731  0.1575
   29CHL1   C17 2096   5.103   0.888   7.406 -0.4825  0.1731 -1.1297
   29CHL1   H17 2097   5.001   0.932   7.393 -0.1161  1.2584 -0.3692
   29CHL1   C13 2098   5.111   0.793   7.295 -0.0827  0.6849  0.3175
   29CHL1   C18 2099   5.241   0.703   7.308 -0.1801 -0.1753 -0.1699
   29CHL1  H18A 2100   5.217   0.633   7.390 -0.6076 -2.1467 -1.9018
   29CHL1  H18B 2101   5.271   0.644   7.219 -1.5232 -0.7269 -0.2677
   29CHL1  H18C 2102   5.331   0.761   7.339 -1.1217  1.3725 -0.2282
   29CHL1   C12 2103   4.986   0.699   7.257 -0.5169  0.1219  0.8067
   29CHL1  H12A 2104   4.967   0.619   7.332  0.7931 -0.5430  0.4607
   29CHL1  H12B 2105   4.888   0.750   7.246  0.1324  1.9417  2.9092
   29CHL1   C11 2106   5.009   0.635   7.121 -0.4391 -1.2114  0.0589
   29CHL1  H11A 2107   5.093   0.565   7.140  1.9260  1.1177 -1.2175
   29CHL1  H11B 2108   4.923   0.580   7.077 -0.2291  0.6659 -2.9664
   29CHL1    C9 2109   5.043   0.742   7.006  0.5010 -0.2089  0.1014
   29CHL1    H9 2110   4.956   0.811   6.993  0.7045 -0.2330 -1.4634
   29CHL1   C10 2111   5.068   0.691   6.863  0.2012 -0.0782 -0.1706
   29CHL1   C19 2112   5.171   0.576   6.874 -0.6375  0.1931  0.5484
   29CHL1  H19A 2113   5.130   0.486   6.925  1.7192 -0.2407  1.8432
   29CHL1  H19B 2114   5.189   0.526   6.777  0.2123  2.0720 -0.2945
   29CHL1  H19C 2115   5.266   0.598   6.927 -0.2281 -0.6744  0.1892
   29CHL1    C1 2116   4.934   0.629   6.802  0.0483 -0.0134  0.7727
   29CHL1   H1A 2117   4.915   0.537   6.861 -0.0438  1.2970  2.9307
   29CHL1   H1B 2118   4.847   0.697   6.818  0.2143  0.0760  1.3115
   29CHL1    C2 2119   4.943   0.596   6.658  0.1617  0.0005 -0.1112
   29CHL1   H2A 2120   4.844   0.563   6.621 -0.9255  1.6888  1.2005
   29CHL1   H2B 2121   5.001   0.502   6.642 -0.0402  0.2000 -2.4126
   29CHL1   C20 2122   5.115   0.841   7.554 -0.0117 -0.7161  0.4355
   29CHL1   H20 2123   5.218   0.803   7.572  1.2092  1.6799 -1.0478
   29CHL1   C21 2124   5.016   0.730   7.592  0.1814 -0.4924 -0.6204
   29CHL1  H21A 2125   5.044   0.629   7.557  2.1548 -0.6260  1.1185
   29CHL1  H21B 2126   4.913   0.741   7.551 -0.2461 -1.8009  0.0517
   29CHL1  H21C 2127   5.010   0.714   7.702  0.4435 -1.4460 -0.7411
   29CHL1   C22 2128   5.094   0.959   7.656 -0.2050  0.3951 -0.2951
   29CHL1  H22A 2129   5.184   1.023   7.643  0.3413 -0.6472 -2.1443
   29CHL1  H22B 2130   4.999   1.013   7.638 -0.4592  0.2327  0.5319
   29CHL1   C23 2131   5.087   0.922   7.805 -0.7985  0.0691  0.3239
   29CHL1  H23A 2132   4.982   0.885   7.808 -1.4714  1.7315 -0.8262
   29CHL1  H23B 2133   5.169   0.852   7.830  1.1953  2.6269  1.4226
   29CHL1   C24 2134   5.081   1.046   7.903  0.2691 -0.6866 -0.0395
   29CHL1  H24A 2135   5.028   1.130   7.855 -0.3089 -1.5744 -0.9946
   29CHL1  H24B 2136   5.030   1.010   7.995 -2.3475 -0.3821 -1.2743
   29CHL1   C25 2137   5.220   1.107   7.922 -0.0561  0.4380 -0.5523
   29CHL1   H25 2138   5.265   1.145   7.827  2.2559 -2.2929 -0.6633
   29CHL1   C26 2139   5.209   1.229   8.011 -0.0237 -0.2693 -0.9613
   29CHL1  H26A 2140   5.197   1.201   8.118 -2.2457 -0.8102 -1.3007
   29CHL1  H26B 2141   5.307   1.280   8.025 -1.0168  1.4002  0.3378
   29CHL1  H26C 2142   5.133   1.304   7.978 -0.7018 -1.4047 -2.0231
   29CHL1   C27 2143   5.325   1.009   7.978  0.1458 -0.3511 -0.1186
   29CHL1  H27A 2144   5.303   0.955   8.073  1.8673  1.8736  1.6348
   29CHL1  H27B 2145   5.343   0.924   7.908  0.2965 -2.9774  2.8600
   29CHL1  H27C 2146   5.419   1.064   7.997 -0.6700  0.5159  1.6211
   30CHL1    C3 2147   1.480   5.337   7.081 -0.1806 -0.0854 -0.3509
   30CHL1    H3 2148   1.444   5.232   7.093  2.0015 -0.6659  1.9526
   30CHL1    O3 2149   1.502   5.354   6.941 -0.2545  0.0661 -0.0690
   30CHL1   H3' 2150   1.503   5.450   6.933  1.6277 -0.0500 -1.9269
   30CHL1    C4 2151   1.386   5.443   7.146 -0.0478 -0.1028 -0.0614
   30CHL1   H4A 2152   1.405   5.543   7.102  1.4980 -0.3173  0.0782
   30CHL1   H4B 2153   1.284   5.435   7.103 -0.6772 -0.8571  1.4691
   30CHL1    C5 2154   1.374   5.446   7.296 -0.2028 -0.6262 -0.0893
   30CHL1    C6 2155   1.259   5.443   7.356 -0.0270 -0.0617  0.4747
   30CHL1    H6 2156   1.166   5.450   7.299  0.8113 -1.8368 -1.2298
   30CHL1    C7 2157   1.248   5.455   7.509 -0.4690 -0.3137 -0.4672
   30CHL1   H7A 2158   1.167   5.526   7.540 -0.4998 -0.6128  0.1494
   30CHL1   H7B 2159   1.215   5.357   7.550 -2.7894  0.3656 -0.5401
   30CHL1    C8 2160   1.381   5.497   7.582 -0.2504  0.4226  0.5361
   30CHL1    H8 2161   1.405   5.604   7.566  2.6143 -0.2187 -0.1038
   30CHL1   C14 2162   1.366   5.461   7.731  0.0069 -0.8349 -0.0064
   30CHL1   H14 2163   1.344   5.352   7.739  0.2618 -0.8523  0.5003
   30CHL1   C15 2164   1.258   5.530   7.804  0.5000  0.6291 -0.0328
   30CHL1  H15A 2165   1.248   5.635   7.769  0.6354  0.1996 -1.4072
   30CHL1  H15B 2166   1.159   5.482   7.789  0.7201  0.0862  0.2399
   30CHL1   C16 2167   1.301   5.515   7.949  0.1552  0.0038  0.7453
   30CHL1  H16A 2168   1.309   5.616   7.995  0.4933 -0.2260  1.1958
   30CHL1  H16B 2169   1.227   5.453   8.004 -2.5410  1.5851 -0.8959
   30CHL1   C17 2170   1.443   5.448   7.954 -0.0369 -0.0333  0.3613
   30CHL1   H17 2171   1.430   5.338   7.966  0.7540 -0.3542 -1.4071
   30CHL1   C13 2172   1.498   5.472   7.815 -0.0198 -0.0299  0.2508
   30CHL1   C18 2173   1.564   5.611   7.805 -0.3803  1.0298  0.2563
   30CHL1  H18A 2174   1.571   5.651   7.702  0.8260 -0.3794 -0.2353
   30CHL1  H18B 2175   1.495   5.680   7.860 -2.9404 -2.6306  2.0316
   30CHL1  H18C 2176   1.663   5.614   7.856 -0.7504 -0.4105  1.1165
   30CHL1   C12 2177   1.595   5.369   7.752 -0.2813  0.6403 -0.6223
   30CHL1  H12A 2178   1.694   5.365   7.802 -1.9907  1.0587  3.2084
   30CHL1  H12B 2179   1.552   5.267   7.753  0.3124  0.3768  0.7434
   30CHL1   C11 2180   1.623   5.406   7.600  0.0588 -0.4698 -0.1200
   30CHL1  H11A 2181   1.671   5.505   7.606  2.8044 -1.8139  2.6270
   30CHL1  H11B 2182   1.683   5.329   7.547 -1.6483 -1.7530 -0.3195
   30CHL1    C9 2183   1.494   5.414   7.513  0.6265 -0.1957 -0.0349
   30CHL1    H9 2184   1.453   5.310   7.509  2.2347 -0.9538  1.6154
   30CHL1   C10 2185   1.511   5.450   7.364  0.4345  0.2679  0.0680
   30CHL1   C19 2186   1.569   5.597   7.349  0.9358 -0.1717 -0.0172
   30CHL1  H19A 2187   1.622   5.617   7.253  1.2904  0.8104  0.3717
   30CHL1  H19B 2188   1.479   5.662   7.356  2.1014  1.4871  0.0155
   30CHL1  H19C 2189   1.640   5.611   7.434  0.4925  1.9323  0.0624
   30CHL1    C1 2190   1.604   5.339   7.306 -0.1476 -0.4091  0.0664
   30CHL1   H1A 2191   1.707   5.357   7.343 -0.2560 -0.6608  0.5071
   30CHL1   H1B 2192   1.565   5.237   7.326 -2.0107 -0.1217 -1.7540
   30CHL1    C2 2193   1.612   5.340   7.151  0.3812 -0.6525 -0.0704
   30CHL1   H2A 2194   1.673   5.253   7.119  0.8008 -0.3716 -0.0355
   30CHL1   H2B 2195   1.676   5.427   7.125  0.2195 -0.4319  0.2477
   30CHL1   C20 2196   1.527   5.495   8.075 -0.2064 -0.5241  0.1907
   30CHL1   H20 2197   1.564   5.599   8.067  0.2106 -0.6124  0.8848
   30CHL1   C21 2198   1.654   5.410   8.087 -0.4171 -0.2711 -0.1192
   30CHL1  H21A 2199   1.718   5.444   8.172 -0.6901 -0.6771  0.2559
   30CHL1  H21B 2200   1.716   5.408   7.995 -0.7987 -1.4789 -0.3711
   30CHL1  H21C 2201   1.624   5.304   8.102 -2.5054  0.1175 -1.2323
   30CHL1   C22 2202   1.448   5.484   8.210  0.5411  0.7353  0.7370
   30CHL1  H22A 2203   1.497   5.544   8.290 -3.1690  1.0764  2.9487
   30CHL1  H22B 2204   1.349   5.534   8.204  0.1184 -0.1277  0.2746
   30CHL1   C23 2205   1.435   5.335   8.263 -0.7567 -0.7029  0.0939
   30CHL1  H23A 2206   1.407   5.270   8.177 -0.8411 -0.7964  0.1928
   30CHL1  H23B 2207   1.538   5.311   8.297 -0.5745  0.9579  0.8274
   30CHL1   C24 2208   1.338   5.338   8.379  0.0388 -0.4362  0.0020
   30CHL1  H24A 2209   1.384   5.409   8.451  2.0628 -0.4636 -1.1984
   30CHL1  H24B 2210   1.248   5.389   8.338 -1.4405 -1.6206  1.6320
   30CHL1   C25 2211   1.318   5.206   8.448 -0.4326  0.4249  0.6880
   30CHL1   H25 2212   1.412   5.150   8.469 -0.6520 -0.9017 -1.5726
   30CHL1   C26 2213   1.247   5.221   8.582  0.1077  0.2624  0.1532
   30CHL1  H26A 2214   1.241   5.121   8.630  0.3567 -0.5356 -1.4324
   30CHL1  H26B 2215   1.292   5.301   8.645  0.5018  0.9795 -1.0152
   30CHL1  H26C 2216   1.142   5.249   8.562  0.7478  1.5733 -1.5926
   30CHL1   C27 2217   1.237   5.110   8.358  0.8455  0.8807  0.1661
   30CHL1  H27A 2218   1.216   5.012   8.405 -2.5323  1.3595 -0.0889
   30CHL1  H27B 2219   1.141   5.165   8.345 -0.0411 -0.8811 -1.1815
   30CHL1  H27C 2220   1.291   5.081   8.266 -0.5011 -2.2385  0.2385
   31CHL1    C3 2221   1.898   6.687   6.706 -0.1473 -0.7364  0.1402
   31CHL1    H3 2222   1.806   6.748   6.700  0.7909  0.5936 -2.0203
   31CHL1    O3 2223   1.932   6.644   6.574  0.0202 -0.3809 -0.9044
   31CHL1   H3' 2224   1.852   6.606   6.538 -1.3035  0.4538  0.9935
   31CHL1    C4 2225   2.006   6.788   6.761  0.2381 -0.3827 -0.3625
   31CHL1   H4A 2226   2.103   6.734   6.754  1.3880  1.4848  0.4692
   31CHL1   H4B 2227   2.021   6.878   6.697  0.1213 -0.4420 -0.4748
   31CHL1    C5 2228   1.965   6.828   6.894 -0.5895 -0.0935 -0.3035
   31CHL1    C6 2229   1.928   6.954   6.926 -0.0821  1.0260 -0.3838
   31CHL1    H6 2230   1.931   7.031   6.847  0.5292  0.7133 -0.6766
   31CHL1    C7 2231   1.901   7.002   7.064 -0.2169 -0.3704 -0.4167
   31CHL1   H7A 2232   1.962   7.090   7.090 -0.2257 -0.5059  0.0728
   31CHL1   H7B 2233   1.792   7.023   7.072  0.1093  0.7580  1.6047
   31CHL1    C8 2234   1.935   6.899   7.176 -0.0298  0.5253  0.4597
   31CHL1    H8 2235   2.045   6.890   7.188 -0.1420 -1.8313  0.2014
   31CHL1   C14 2236   1.869   6.946   7.309  0.9387  0.0842 -0.4867
   31CHL1   H14 2237   1.760   6.943   7.288  1.0521  2.0285 -1.6360
   31CHL1   C15 2238   1.889   7.091   7.366  0.8307  0.0267 -0.8696
   31CHL1  H15A 2239   1.999   7.108   7.373  0.6491  0.6007  1.1993
   31CHL1  H15B 2240   1.836   7.165   7.302 -1.7558 -1.0184 -0.0703
   31CHL1   C16 2241   1.837   7.078   7.508 -0.1240  0.0468 -0.3458
   31CHL1  H16A 2242   1.921   7.125   7.564 -0.4191 -0.8538  0.8983
   31CHL1  H16B 2243   1.743   7.137   7.512 -0.4795  0.0011 -4.2365
   31CHL1   C17 2244   1.811   6.929   7.540  0.4148  0.5561 -0.8412
   31CHL1   H17 2245   1.703   6.908   7.529  0.8615 -1.3916 -1.9529
   31CHL1   C13 2246   1.886   6.850   7.428  0.5417 -0.1457 -0.2779
   31CHL1   C18 2247   2.035   6.846   7.467 -0.1398  0.2966  0.0540
   31CHL1  H18A 2248   2.093   6.814   7.377 -1.6054  0.2857 -0.9330
   31CHL1  H18B 2249   2.075   6.943   7.502  0.5340  0.2238 -0.4828
   31CHL1  H18C 2250   2.050   6.773   7.549  0.1170  1.2020  0.8295
   31CHL1   C12 2251   1.828   6.711   7.387 -0.0326 -0.0539  0.0640
   31CHL1  H12A 2252   1.858   6.641   7.468 -0.3355 -2.3593 -1.7203
   31CHL1  H12B 2253   1.718   6.720   7.387  0.0149  0.5814 -0.2770
   31CHL1   C11 2254   1.879   6.661   7.253 -0.6184  0.3180  0.7516
   31CHL1  H11A 2255   1.982   6.624   7.269 -0.4941  0.0111 -0.6122
   31CHL1  H11B 2256   1.829   6.566   7.224  0.2926 -0.4030  1.4937
   31CHL1    C9 2257   1.876   6.763   7.136  0.2642 -0.3896  0.0884
   31CHL1    H9 2258   1.771   6.791   7.113  0.6739  1.5924  0.4239
   31CHL1   C10 2259   1.941   6.717   7.007 -0.2396 -0.4608  0.2337
   31CHL1   C19 2260   2.074   6.639   7.041  0.2578 -0.3222  0.3771
   31CHL1  H19A 2261   2.123   6.610   6.946  1.8048 -1.1172  1.3858
   31CHL1  H19B 2262   2.146   6.683   7.112  2.7645 -2.1749 -0.8638
   31CHL1  H19C 2263   2.067   6.534   7.077  2.4668 -1.5638 -2.3963
   31CHL1    C1 2264   1.850   6.610   6.933 -0.3186  0.0457 -0.0309
   31CHL1   H1A 2265   1.847   6.514   6.990 -2.5199 -0.4770 -0.9004
   31CHL1   H1B 2266   1.743   6.641   6.936  0.1555  1.7889 -0.2443
   31CHL1    C2 2267   1.888   6.571   6.794 -0.2851 -0.3371  0.5048
   31CHL1   H2A 2268   1.822   6.491   6.755  0.2192 -0.5360  0.0491
   31CHL1   H2B 2269   1.990   6.526   6.791 -0.6699 -1.1651 -1.1937
   31CHL1   C20 2270   1.833   6.893   7.688 -0.1235 -0.6100 -0.4994
   31CHL1   H20 2271   1.942   6.878   7.702 -0.4467 -1.8013  1.1141
   31CHL1   C21 2272   1.774   6.754   7.721  0.0084  0.5751 -0.4760
   31CHL1  H21A 2273   1.776   6.684   7.635  3.4931  0.6694 -0.6160
   31CHL1  H21B 2274   1.664   6.756   7.741  0.1791  0.9458  0.5167
   31CHL1  H21C 2275   1.823   6.708   7.809 -2.2490 -0.0851  0.5287
   31CHL1   C22 2276   1.778   6.998   7.790  0.2107 -0.5130  0.5633
   31CHL1  H22A 2277   1.809   7.102   7.764 -1.6285 -0.0873 -0.1030
   31CHL1  H22B 2278   1.668   7.002   7.801  0.1432 -0.3876 -0.1062
   31CHL1   C23 2279   1.845   6.970   7.928  0.0093 -0.1988 -0.0867
   31CHL1  H23A 2280   1.797   6.874   7.959 -1.3704  0.9992  1.7338
   31CHL1  H23B 2281   1.955   6.968   7.917  0.1448  0.7927  0.8892
   31CHL1   C24 2282   1.809   7.077   8.033 -0.1909  0.1147 -0.9079
   31CHL1  H24A 2283   1.831   7.180   7.996 -3.6813  2.6868  3.0898
   31CHL1  H24B 2284   1.702   7.080   8.063  0.5291  0.9392  1.9025
   31CHL1   C25 2285   1.908   7.070   8.158  0.0880 -0.3559 -0.0049
   31CHL1   H25 2286   2.010   7.077   8.117 -0.4148  1.7282 -1.0250
   31CHL1   C26 2287   1.874   7.181   8.258 -0.3141 -0.2944  0.0916
   31CHL1  H26A 2288   1.909   7.281   8.225 -2.8934  2.1415  3.8834
   31CHL1  H26B 2289   1.763   7.188   8.263 -0.4084 -1.7034  0.3874
   31CHL1  H26C 2290   1.912   7.161   8.361 -0.1791  1.5501  0.4279
   31CHL1   C27 2291   1.905   6.933   8.233 -0.5371  0.3787 -0.7776
   31CHL1  H27A 2292   1.972   6.944   8.321  0.1904 -1.5582 -1.0373
   31CHL1  H27B 2293   1.956   6.850   8.180 -0.4501 -0.3414  0.3884
   31CHL1  H27C 2294   1.801   6.906   8.262 -0.6563  0.4930 -1.0995
   32CHL1    C3 2295   3.899   5.303   7.100  0.3074 -0.1409  0.1703
   32CHL1    H3 2296   3.919   5.411   7.120  0.3351  0.2104 -1.5218
   32CHL1    O3 2297   3.891   5.290   6.956  0.1500  0.4631  0.3234
   32CHL1   H3' 2298   3.882   5.199   6.929 -2.8388  0.7859 -0.0932
   32CHL1    C4 2299   4.004   5.204   7.150 -0.0506 -0.8692  0.5329
   32CHL1   H4A 2300   3.979   5.099   7.126 -0.9815 -0.5281 -0.0310
   32CHL1   H4B 2301   4.095   5.208   7.087 -1.6668  0.0208 -1.8977
   32CHL1    C5 2302   4.022   5.223   7.303 -0.6594  0.3916 -0.7718
   32CHL1    C6 2303   4.141   5.255   7.357  0.5972  1.0523 -0.4163
   32CHL1    H6 2304   4.225   5.271   7.288  1.7794 -2.4134 -0.0032
   32CHL1    C7 2305   4.153   5.273   7.506 -0.4856  0.5094 -0.4384
   32CHL1   H7A 2306   4.233   5.210   7.550 -2.0350  0.5599  2.7025
   32CHL1   H7B 2307   4.178   5.379   7.528  0.1465 -0.0182  1.6871
   32CHL1    C8 2308   4.027   5.235   7.592 -0.1471  0.1936  0.4327
   32CHL1    H8 2309   4.025   5.124   7.591 -1.6562  0.2035 -0.3761
   32CHL1   C14 2310   4.033   5.299   7.729  0.7353  0.1405 -0.3904
   32CHL1   H14 2311   4.005   5.405   7.712 -1.6168 -0.7137 -2.6443
   32CHL1   C15 2312   4.172   5.295   7.802 -0.3833 -0.8403 -0.7069
   32CHL1  H15A 2313   4.202   5.189   7.785 -1.0191 -1.1545  0.0209
   32CHL1  H15B 2314   4.255   5.361   7.769  0.8649 -1.8092  0.4102
   32CHL1   C16 2315   4.132   5.319   7.953  0.2915  0.2188  0.6515
   32CHL1  H16A 2316   4.183   5.249   8.022  0.2199 -0.1260  0.3535
   32CHL1  H16B 2317   4.159   5.424   7.981 -0.0437  0.8541 -1.2827
   32CHL1   C17 2318   3.977   5.314   7.960 -0.3958 -0.1910 -0.4074
   32CHL1   H17 2319   3.939   5.418   7.948 -2.9458 -0.9983 -0.0602
   32CHL1   C13 2320   3.924   5.247   7.830  0.3478 -0.7976  0.5427
   32CHL1   C18 2321   3.933   5.092   7.838 -0.5646 -0.7036 -0.2580
   32CHL1  H18A 2322   3.906   5.045   7.741 -1.5131  0.0921 -0.3906
   32CHL1  H18B 2323   4.036   5.055   7.860 -0.7179 -0.5312  0.7710
   32CHL1  H18C 2324   3.857   5.058   7.911  0.5599 -1.3440  0.6608
   32CHL1   C12 2325   3.792   5.300   7.768  0.0316  0.6077  0.2087
   32CHL1  H12A 2326   3.710   5.255   7.827  1.7823 -1.7441  0.9789
   32CHL1  H12B 2327   3.796   5.411   7.758  1.0484  0.4964 -0.8134
   32CHL1   C11 2328   3.773   5.247   7.622 -0.5965 -0.1516 -0.0130
   32CHL1  H11A 2329   3.750   5.138   7.622 -2.3286  0.1753  0.1979
   32CHL1  H11B 2330   3.676   5.287   7.585 -1.1497  1.4813  2.9107
   32CHL1    C9 2331   3.894   5.279   7.527 -0.7252  0.7080  0.4069
   32CHL1    H9 2332   3.901   5.389   7.525  0.3317  0.7428  2.9766
   32CHL1   C10 2333   3.884   5.220   7.385  0.1549 -0.5618  0.1204
   32CHL1   C19 2334   3.841   5.069   7.400 -0.6318 -0.0411 -0.0893
   32CHL1  H19A 2335   3.842   5.006   7.309 -1.0334 -1.5647  0.9214
   32CHL1  H19B 2336   3.914   5.014   7.463  0.1269  1.8999  0.8136
   32CHL1  H19C 2337   3.739   5.060   7.441 -0.3436  2.4087  1.4208
   32CHL1    C1 2338   3.776   5.303   7.311  0.0487  0.7168  0.4823
   32CHL1   H1A 2339   3.687   5.280   7.372  0.3855  2.0113  1.5242
   32CHL1   H1B 2340   3.803   5.410   7.329  0.5063  0.4494  1.4317
   32CHL1    C2 2341   3.759   5.277   7.159 -0.0371  0.0722  0.3653
   32CHL1   H2A 2342   3.684   5.353   7.126 -1.1067 -0.7878  0.7694
   32CHL1   H2B 2343   3.717   5.176   7.141  0.3235 -0.0766  0.3568
   32CHL1   C20 2344   3.923   5.267   8.105  0.2393 -0.4302  1.0464
   32CHL1   H20 2345   3.944   5.158   8.116 -1.1906 -0.8045  0.2939
   32CHL1   C21 2346   3.768   5.298   8.119 -0.8458 -0.0285 -0.1405
   32CHL1  H21A 2347   3.759   5.405   8.090  0.1825 -0.0472 -0.5850
   32CHL1  H21B 2348   3.732   5.301   8.224 -0.2805  2.0627  0.0345
   32CHL1  H21C 2349   3.710   5.225   8.059  1.3787 -1.9236 -0.1105
   32CHL1   C22 2350   3.995   5.351   8.211 -0.1199 -0.1372  0.2317
   32CHL1  H22A 2351   4.104   5.368   8.197 -0.2602  0.0469 -0.6337
   32CHL1  H22B 2352   3.950   5.452   8.223  2.7063  1.1338  1.1763
   32CHL1   C23 2353   3.989   5.289   8.350  0.3412 -0.0728 -1.5654
   32CHL1  H23A 2354   3.883   5.270   8.378  0.3142  1.4799 -0.5276
   32CHL1  H23B 2355   4.037   5.189   8.342  2.2954  0.8714 -2.2154
   32CHL1   C24 2356   4.057   5.373   8.458  0.1613 -0.7218 -0.2351
   32CHL1  H24A 2357   4.166   5.381   8.438  0.0095  1.1737 -0.4696
   32CHL1  H24B 2358   4.022   5.478   8.455  0.7430 -0.5473 -0.9351
   32CHL1   C25 2359   4.046   5.324   8.605 -0.4346  0.3223  0.7141
   32CHL1   H25 2360   3.944   5.351   8.640 -1.2593 -1.8666  0.1942
   32CHL1   C26 2361   4.071   5.167   8.621  0.4479  0.3321  0.9804
   32CHL1  H26A 2362   3.993   5.112   8.563 -1.7657  0.2352  3.8184
   32CHL1  H26B 2363   4.178   5.148   8.598 -0.3248 -2.4436 -0.9074
   32CHL1  H26C 2364   4.039   5.140   8.724 -1.3219 -0.7879  0.1911
   32CHL1   C27 2365   4.153   5.407   8.689  0.3304 -0.0284  0.0095
   32CHL1  H27A 2366   4.133   5.391   8.797 -2.3916 -0.6426 -0.5070
   32CHL1  H27B 2367   4.259   5.389   8.662 -0.0514 -0.4640 -1.3113
   32CHL1  H27C 2368   4.138   5.515   8.667  3.1371  0.5232  0.4811
   33CHL1    C3 2369   3.268   3.913   6.883 -0.8252 -0.2339  0.1262
   33CHL1    H3 2370   3.368   3.954   6.909 -0.6185 -1.8276  2.0484
   33CHL1    O3 2371   3.263   3.879   6.747  0.4547  0.4291  0.4148
   33CHL1   H3' 2372   3.332   3.929   6.701 -0.6504  0.4290 -1.3584
   33CHL1    C4 2373   3.243   3.787   6.964 -0.0346  0.2520 -0.0910
   33CHL1   H4A 2374   3.145   3.745   6.932  0.3619 -1.4473  0.8205
   33CHL1   H4B 2375   3.314   3.710   6.928  0.2092  0.9611 -1.1506
   33CHL1    C5 2376   3.260   3.809   7.113 -0.0666  0.2168  0.3530
   33CHL1    C6 2377   3.358   3.753   7.183 -0.4584 -0.3367 -0.1831
   33CHL1    H6 2378   3.431   3.687   7.135  1.6261  0.7765  1.3171
   33CHL1    C7 2379   3.372   3.777   7.334 -0.6031  0.7002  0.1105
   33CHL1   H7A 2380   3.402   3.679   7.376  1.4059  0.2652 -2.0893
   33CHL1   H7B 2381   3.456   3.845   7.362 -0.0971 -0.2910  1.0567
   33CHL1    C8 2382   3.246   3.834   7.400 -0.1646 -0.3892 -0.1506
   33CHL1    H8 2383   3.170   3.753   7.408  0.1359 -0.5794  1.0191
   33CHL1   C14 2384   3.283   3.891   7.538 -0.2825 -0.5722  0.1380
   33CHL1   H14 2385   3.369   3.961   7.531  1.2480 -1.7757  4.2972
   33CHL1   C15 2386   3.338   3.787   7.639 -0.0138 -0.7136 -0.0490
   33CHL1  H15A 2387   3.288   3.688   7.632  0.7836 -1.1168 -0.1268
   33CHL1  H15B 2388   3.447   3.767   7.631  0.6141  2.4378 -0.9371
   33CHL1   C16 2389   3.299   3.842   7.775 -0.6038  0.0055  0.1924
   33CHL1  H16A 2390   3.233   3.771   7.829 -0.4653  0.2892  0.7352
   33CHL1  H16B 2391   3.393   3.856   7.832  1.0782 -2.2853 -1.8059
   33CHL1   C17 2392   3.236   3.985   7.750  0.6060 -0.5718  0.1119
   33CHL1   H17 2393   3.326   4.051   7.743  1.0540 -1.3014 -1.4282
   33CHL1   C13 2394   3.170   3.963   7.617 -0.7544  0.0275 -0.3703
   33CHL1   C18 2395   3.051   3.867   7.624  0.2881 -0.4024 -0.5122
   33CHL1  H18A 2396   3.075   3.767   7.666 -1.0076 -0.4014  0.3037
   33CHL1  H18B 2397   2.968   3.916   7.679  0.4428  2.0961 -2.3632
   33CHL1  H18C 2398   3.009   3.835   7.526  0.5943  0.8064 -1.0480
   33CHL1   C12 2399   3.131   4.089   7.536  0.0543  0.2018 -0.2107
   33CHL1  H12A 2400   3.057   4.148   7.593  2.9003  2.2773  1.5932
   33CHL1  H12B 2401   3.215   4.161   7.539 -0.6860  1.0530  1.0161
   33CHL1   C11 2402   3.092   4.042   7.388  0.7390 -0.0165 -0.2474
   33CHL1  H11A 2403   2.991   3.996   7.391 -0.0289  1.6491  1.8902
   33CHL1  H11B 2404   3.090   4.142   7.341 -1.1939 -0.1254 -0.4720
   33CHL1    C9 2405   3.194   3.954   7.315  0.5947  0.0297  0.2560
   33CHL1    H9 2406   3.288   4.010   7.297  0.4993 -0.2211 -1.2129
   33CHL1   C10 2407   3.159   3.915   7.170  0.4666  1.5462  0.8785
   33CHL1   C19 2408   3.011   3.848   7.160  0.3459 -0.3701  0.7307
   33CHL1  H19A 2409   2.997   3.771   7.239 -0.1687 -1.9510 -0.8514
   33CHL1  H19B 2410   2.931   3.923   7.176 -0.3846 -1.1492  0.7898
   33CHL1  H19C 2411   2.987   3.806   7.060  0.4595 -0.5965  0.7974
   33CHL1    C1 2412   3.157   4.039   7.076  0.0978  0.4731  0.4096
   33CHL1   H1A 2413   3.073   4.107   7.100 -0.3990 -0.0102  0.0631
   33CHL1   H1B 2414   3.253   4.093   7.090  0.3217  0.1223  0.2625
   33CHL1    C2 2415   3.156   4.015   6.925 -0.1246  0.5319  0.2766
   33CHL1   H2A 2416   3.162   4.113   6.873  0.5230 -0.6707 -2.0597
   33CHL1   H2B 2417   3.060   3.969   6.894  0.2350 -0.0816  0.0577
   33CHL1   C20 2418   3.147   4.028   7.869 -0.2152  0.3941  0.6317
   33CHL1   H20 2419   3.055   3.967   7.864  0.9458 -1.3817 -0.2770
   33CHL1   C21 2420   3.108   4.182   7.856  0.6664 -0.3098  0.1920
   33CHL1  H21A 2421   3.084   4.234   7.951 -0.7587  3.2905 -1.9443
   33CHL1  H21B 2422   3.018   4.184   7.792  0.7498 -1.8135 -0.0059
   33CHL1  H21C 2423   3.188   4.245   7.811 -1.1876 -0.0079 -3.0012
   33CHL1   C22 2424   3.212   4.013   8.004 -0.2440  0.1662 -0.1716
   33CHL1  H22A 2425   3.236   3.906   8.024 -2.4560 -0.2192  0.6825
   33CHL1  H22B 2426   3.304   4.076   8.013 -0.5011  0.3766  1.2477
   33CHL1   C23 2427   3.132   4.045   8.136  0.4023  0.0741  0.2420
   33CHL1  H23A 2428   3.097   4.151   8.136  2.9077  1.0066 -1.8058
   33CHL1  H23B 2429   3.045   3.977   8.129 -1.3067  2.2430 -1.1903
   33CHL1   C24 2430   3.216   4.010   8.258  0.4902 -0.4128  0.0511
   33CHL1  H24A 2431   3.236   3.902   8.248  1.9436 -0.1336 -0.2766
   33CHL1  H24B 2432   3.315   4.060   8.247  0.6230 -1.1325 -2.8902
   33CHL1   C25 2433   3.149   4.051   8.389 -0.1360 -0.1131 -0.5692
   33CHL1   H25 2434   3.081   4.132   8.353 -2.1179 -0.6116  1.7806
   33CHL1   C26 2435   3.069   3.941   8.457  0.4445  0.4006  0.3707
   33CHL1  H26A 2436   3.021   3.989   8.545  1.4331  2.2648 -0.0607
   33CHL1  H26B 2437   2.995   3.912   8.379  2.2412 -0.5612 -1.0708
   33CHL1  H26C 2438   3.139   3.857   8.475  1.0274  0.9981  0.9158
   33CHL1   C27 2439   3.252   4.124   8.487  0.0798  0.5007  0.3780
   33CHL1  H27A 2440   3.322   4.055   8.539  0.1486 -0.5898 -1.1043
   33CHL1  H27B 2441   3.316   4.193   8.428  2.2792 -2.2865 -0.7457
   33CHL1  H27C 2442   3.183   4.176   8.557 -2.4665 -0.0764 -1.5409
   34CHL1    C3 2443   4.821   4.082   6.955  1.0646  0.2007  0.3535
   34CHL1    H3 2444   4.807   3.974   6.976  0.6917  0.4486  1.4442
   34CHL1    O3 2445   4.808   4.111   6.818  0.0518  0.3650 -0.3009
   34CHL1   H3' 2446   4.841   4.199   6.799 -0.9993  0.2580 -3.1265
   34CHL1    C4 2447   4.719   4.163   7.029  0.3475  0.4076 -0.2182
   34CHL1   H4A 2448   4.751   4.268   7.011 -0.9808  0.6309 -1.4435
   34CHL1   H4B 2449   4.616   4.144   6.993 -0.5762 -0.6454  2.7117
   34CHL1    C5 2450   4.729   4.126   7.174  0.2123  0.3786 -0.0294
   34CHL1    C6 2451   4.627   4.070   7.251  0.3421  0.1550 -0.0251
   34CHL1    H6 2452   4.527   4.051   7.209 -0.4599 -0.4012  2.0094
   34CHL1    C7 2453   4.629   4.052   7.400  0.1620  0.3586  0.3231
   34CHL1   H7A 2454   4.538   4.094   7.447 -0.6209 -0.8342 -0.0738
   34CHL1   H7B 2455   4.638   3.943   7.418  2.9791 -0.2018 -3.1877
   34CHL1    C8 2456   4.756   4.120   7.467 -0.4389  0.2796 -0.4899
   34CHL1    H8 2457   4.742   4.229   7.482  1.8092  0.3641  1.6311
   34CHL1   C14 2458   4.774   4.057   7.607  0.4707  0.3847 -0.8133
   34CHL1   H14 2459   4.781   3.946   7.603 -1.4847  0.1634  0.6682
   34CHL1   C15 2460   4.661   4.077   7.705 -0.9624  0.1128  0.9252
   34CHL1  H15A 2461   4.623   4.181   7.703 -2.3915 -0.3696 -1.5208
   34CHL1  H15B 2462   4.573   4.011   7.689 -2.2463  2.1586 -1.0082
   34CHL1   C16 2463   4.729   4.048   7.839 -0.3205 -0.3349 -0.3555
   34CHL1  H16A 2464   4.710   4.142   7.895 -0.0332 -0.5349  0.0844
   34CHL1  H16B 2465   4.685   3.959   7.889  1.2590 -0.9743 -0.0386
   34CHL1   C17 2466   4.879   4.024   7.819  0.5485 -0.3080 -0.0681
   34CHL1   H17 2467   4.892   3.917   7.795 -2.5538 -0.1905 -3.1836
   34CHL1   C13 2468   4.902   4.105   7.683 -0.1493  0.3685 -0.3044
   34CHL1   C18 2469   4.900   4.257   7.715  0.3817 -0.3887  0.0961
   34CHL1  H18A 2470   4.983   4.293   7.778 -0.3702  2.0403 -0.2205
   34CHL1  H18B 2471   4.895   4.309   7.617 -1.3323 -0.3418  0.1686
   34CHL1  H18C 2472   4.808   4.298   7.763  0.2300  0.9988 -1.3146
   34CHL1   C12 2473   5.024   4.064   7.603 -0.1168  0.6307  0.0151
   34CHL1  H12A 2474   5.121   4.083   7.654  0.4451 -0.8798 -0.4452
   34CHL1  H12B 2475   5.024   3.953   7.597  1.1218  0.4843  1.8689
   34CHL1   C11 2476   5.020   4.126   7.457 -0.5502  0.7339  0.2683
   34CHL1  H11A 2477   5.030   4.237   7.459 -1.1876  0.7913  0.3558
   34CHL1  H11B 2478   5.100   4.086   7.390 -2.2401 -0.8371 -0.8872
   34CHL1    C9 2479   4.880   4.091   7.384 -0.4512 -0.0080  0.0568
   34CHL1    H9 2480   4.877   3.981   7.373 -2.8266 -0.1885  1.8892
   34CHL1   C10 2481   4.866   4.156   7.239  0.6146 -0.7913 -0.0243
   34CHL1   C19 2482   4.892   4.310   7.245 -0.0574 -0.2549  0.1083
   34CHL1  H19A 2483   4.878   4.366   7.150  2.3248  2.8742  1.3842
   34CHL1  H19B 2484   4.830   4.364   7.320  0.1702  1.0138 -0.5878
   34CHL1  H19C 2485   4.999   4.331   7.270  0.4015  0.3937 -2.1623
   34CHL1    C1 2486   4.979   4.091   7.145 -0.6763  0.0917 -0.1333
   34CHL1   H1A 2487   5.073   4.128   7.191  0.9523 -3.2121 -0.5349
   34CHL1   H1B 2488   4.973   3.980   7.150 -0.7639  0.0840 -0.3848
   34CHL1    C2 2489   4.963   4.125   6.999  0.8381 -0.1890  0.2486
   34CHL1   H2A 2490   5.045   4.079   6.939 -0.3490  0.4933 -2.0074
   34CHL1   H2B 2491   4.969   4.235   6.987  1.5343 -0.3543 -1.1373
   34CHL1   C20 2492   4.965   4.053   7.947 -0.0282 -0.0763 -0.1290
   34CHL1   H20 2493   5.006   4.157   7.943 -0.2237 -0.0456 -1.8667
   34CHL1   C21 2494   5.095   3.970   7.947  0.2819 -0.1494 -0.4950
   34CHL1  H21A 2495   5.156   3.980   8.040  0.4051 -0.5688 -0.5251
   34CHL1  H21B 2496   5.149   3.998   7.854 -1.2329  2.7737 -0.6006
   34CHL1  H21C 2497   5.053   3.868   7.935  0.0188  0.0331 -1.1535
   34CHL1   C22 2498   4.890   4.032   8.083  0.2998  0.0190  0.8814
   34CHL1  H22A 2499   4.959   4.069   8.162  1.9115 -2.0725  0.5264
   34CHL1  H22B 2500   4.804   4.103   8.079  0.0817 -0.2798  0.0477
   34CHL1   C23 2501   4.839   3.893   8.114 -0.4596  0.2022  0.0424
   34CHL1  H23A 2502   4.773   3.838   8.043 -1.8509 -1.3396  2.3659
   34CHL1  H23B 2503   4.927   3.828   8.135 -0.2603  0.4652  0.0268
   34CHL1   C24 2504   4.765   3.896   8.244  0.0605 -0.3220  0.5441
   34CHL1  H24A 2505   4.833   3.940   8.320  1.7020 -2.8549  0.6689
   34CHL1  H24B 2506   4.669   3.950   8.235 -0.9777 -2.2266 -0.5106
   34CHL1   C25 2507   4.733   3.762   8.314 -0.1307  0.2123  0.1536
   34CHL1   H25 2508   4.826   3.704   8.331  0.2052  0.6378 -0.1835
   34CHL1   C26 2509   4.657   3.774   8.446 -0.1808  0.0746 -0.5916
   34CHL1  H26A 2510   4.726   3.812   8.525 -1.6642 -0.2133  0.9010
   34CHL1  H26B 2511   4.576   3.848   8.431  0.8327  0.9405 -1.9876
   34CHL1  H26C 2512   4.620   3.680   8.491 -1.5778  1.3535  1.0932
   34CHL1   C27 2513   4.636   3.671   8.238 -0.0857 -0.1498  0.2316
   34CHL1  H27A 2514   4.639   3.570   8.286 -0.3311  0.5233  1.7196
   34CHL1  H27B 2515   4.529   3.701   8.240  0.3110  1.4073 -0.3320
   34CHL1  H27C 2516   4.672   3.660   8.133 -2.6695  1.3198 -0.9212
   35CHL1    C3 2517   1.245   4.283   7.311 -0.1843 -0.0824  0.2408
   35CHL1    H3 2518   1.204   4.386   7.322  0.3088  0.1801 -0.3289
   35CHL1    O3 2519   1.318   4.280   7.186  0.5716  0.2898 -0.1871
   35CHL1   H3' 2520   1.378   4.204   7.189 -1.7512 -1.7255 -1.2012
   35CHL1    C4 2521   1.336   4.257   7.430 -0.1612 -0.2072 -0.6281
   35CHL1   H4A 2522   1.380   4.156   7.414 -0.0798 -0.5528  1.5014
   35CHL1   H4B 2523   1.426   4.322   7.417  1.4126 -2.1014  0.2019
   35CHL1    C5 2524   1.283   4.252   7.566  0.5283  0.0723 -0.3128
   35CHL1    C6 2525   1.341   4.318   7.666  0.0002 -0.6281 -0.4995
   35CHL1    H6 2526   1.431   4.378   7.646  1.9986 -2.9205  0.8790
   35CHL1    C7 2527   1.294   4.318   7.809  0.2678  0.1489  0.3129
   35CHL1   H7A 2528   1.368   4.290   7.887 -0.3215  0.3539  0.9494
   35CHL1   H7B 2529   1.263   4.421   7.838  0.0183  0.1153  0.1724
   35CHL1    C8 2530   1.171   4.222   7.833 -0.2963 -0.4910  0.2911
   35CHL1    H8 2531   1.206   4.119   7.852 -2.9252 -1.4783  0.1855
   35CHL1   C14 2532   1.079   4.278   7.950 -0.1994 -0.9516 -0.2406
   35CHL1   H14 2533   1.057   4.380   7.912  0.7368 -0.5552  0.2503
   35CHL1   C15 2534   1.149   4.323   8.087 -0.1720  0.3086  0.8080
   35CHL1  H15A 2535   1.236   4.256   8.105 -0.7834 -0.6209  0.3690
   35CHL1  H15B 2536   1.170   4.431   8.074 -0.4634  0.2303 -0.4402
   35CHL1   C16 2537   1.036   4.314   8.188  0.2020  0.6660  0.4752
   35CHL1  H16A 2538   1.049   4.227   8.255 -0.5548  0.4737  0.3850
   35CHL1  H16B 2539   1.032   4.403   8.254  0.0392  0.1530  1.1722
   35CHL1   C17 2540   0.911   4.281   8.109 -0.3035 -0.3813  0.3565
   35CHL1   H17 2541   0.876   4.380   8.074 -0.8917 -0.9733 -0.7768
   35CHL1   C13 2542   0.951   4.206   7.986 -0.8993 -0.4308  0.0986
   35CHL1   C18 2543   0.983   4.062   8.031 -0.3150 -0.1102  0.1659
   35CHL1  H18A 2544   1.040   4.006   7.954  0.8772 -0.5168  1.2871
   35CHL1  H18B 2545   1.044   4.056   8.124 -1.8249 -2.1979  1.1003
   35CHL1  H18C 2546   0.886   4.010   8.047 -0.3483 -0.1634 -0.2043
   35CHL1   C12 2547   0.866   4.202   7.865  0.6128 -0.4854  0.0621
   35CHL1  H12A 2548   0.783   4.133   7.890  0.2946  0.2134  0.9871
   35CHL1  H12B 2549   0.830   4.304   7.839 -0.4923 -0.5603  1.2343
   35CHL1   C11 2550   0.942   4.143   7.739  0.1174  0.7651  0.2603
   35CHL1  H11A 2551   0.955   4.033   7.748  1.3508  0.9619  1.2059
   35CHL1  H11B 2552   0.876   4.157   7.651  0.5291 -1.3994 -0.4475
   35CHL1    C9 2553   1.086   4.213   7.708  0.1875 -0.1731 -0.7730
   35CHL1    H9 2554   1.057   4.319   7.691 -0.0677  0.4643  2.8918
   35CHL1   C10 2555   1.152   4.165   7.583 -1.2238 -0.0402 -0.4262
   35CHL1   C19 2556   1.183   4.009   7.600 -0.2011  0.3836  0.2909
   35CHL1  H19A 2557   1.096   3.942   7.615  2.0326 -2.1350  3.6795
   35CHL1  H19B 2558   1.224   3.976   7.502 -1.8785  2.8365 -1.3597
   35CHL1  H19C 2559   1.262   3.992   7.676  0.7775 -0.8848 -0.9383
   35CHL1    C1 2560   1.061   4.192   7.456  0.0607  0.0160  0.3363
   35CHL1   H1A 2561   0.989   4.109   7.476  0.4796 -0.2667  0.6620
   35CHL1   H1B 2562   1.005   4.288   7.462  3.9964  2.5698 -0.6867
   35CHL1    C2 2563   1.129   4.189   7.321  0.3150 -0.5832  0.4524
   35CHL1   H2A 2564   1.061   4.203   7.234  1.4495 -2.3839 -0.8000
   35CHL1   H2B 2565   1.164   4.087   7.297 -1.3371 -0.6575 -2.0382
   35CHL1   C20 2566   0.800   4.240   8.206 -0.3442  0.6439 -0.0216
   35CHL1   H20 2567   0.825   4.154   8.272 -2.1911 -0.1163 -0.2712
   35CHL1   C21 2568   0.687   4.192   8.130  0.8000  0.3079  0.4693
   35CHL1  H21A 2569   0.668   4.260   8.043 -3.6457 -0.3680  0.6433
   35CHL1  H21B 2570   0.596   4.178   8.192  0.9315 -1.8365  0.2244
   35CHL1  H21C 2571   0.705   4.091   8.089  0.1111  0.7726 -1.0973
   35CHL1   C22 2572   0.751   4.353   8.301  0.5925 -0.5148 -0.7357
   35CHL1  H22A 2573   0.839   4.408   8.340  1.2282 -2.1449  0.2583
   35CHL1  H22B 2574   0.682   4.425   8.252  0.1943  0.3302  0.9787
   35CHL1   C23 2575   0.668   4.304   8.415  0.0090 -0.0502  0.5648
   35CHL1  H23A 2576   0.570   4.258   8.387  0.5048 -1.4023  0.9747
   35CHL1  H23B 2577   0.735   4.234   8.470  2.7499  1.1480 -1.0543
   35CHL1   C24 2578   0.637   4.426   8.506  0.0550  0.3289  0.0750
   35CHL1  H24A 2579   0.730   4.487   8.509  0.3902 -0.1730  0.0504
   35CHL1  H24B 2580   0.567   4.491   8.449  1.1798  2.0216  0.5726
   35CHL1   C25 2581   0.570   4.386   8.636 -0.2374 -0.2619 -1.4082
   35CHL1   H25 2582   0.640   4.317   8.687 -1.4745 -1.4037 -1.1878
   35CHL1   C26 2583   0.560   4.517   8.721  0.3295  0.5775  0.1259
   35CHL1  H26A 2584   0.507   4.598   8.667  1.5868  0.5478 -1.2195
   35CHL1  H26B 2585   0.505   4.495   8.815 -0.0823 -0.5746 -0.3715
   35CHL1  H26C 2586   0.661   4.549   8.755 -0.3232  1.2268  1.5190
   35CHL1   C27 2587   0.431   4.323   8.620 -0.0308 -0.2402  0.3877
   35CHL1  H27A 2588   0.368   4.382   8.551  1.6657 -0.6633 -1.6242
   35CHL1  H27B 2589   0.383   4.298   8.717  0.0201  0.4831  0.6063
   35CHL1  H27C 2590   0.457   4.223   8.579 -0.2486 -0.3707  0.5702
   36CHL1    C3 2591   2.119   4.371   7.052  0.5700 -0.4234  0.2826
   36CHL1    H3 2592   2.032   4.436   7.077 -1.5657 -2.8823 -0.2439
   36CHL1    O3 2593   2.161   4.396   6.922  0.0622  0.3716  0.3167
   36CHL1   H3' 2594   2.154   4.492   6.922  0.5680  0.4102 -0.3051
   36CHL1    C4 2595   2.232   4.389   7.152 -0.3032  0.2955  0.2980
   36CHL1   H4A 2596   2.318   4.330   7.113 -1.5109  0.4129 -2.7639
   36CHL1   H4B 2597   2.263   4.496   7.145 -0.7015  0.3575 -0.6335
   36CHL1    C5 2598   2.204   4.339   7.296 -0.3878  0.7649 -0.0956
   36CHL1    C6 2599   2.215   4.418   7.399 -0.4913 -0.5846 -0.4530
   36CHL1    H6 2600   2.249   4.518   7.367 -1.1037 -1.0007 -2.6082
   36CHL1    C7 2601   2.185   4.380   7.542 -0.1561 -0.3236 -0.6123
   36CHL1   H7A 2602   2.258   4.429   7.610  1.3909 -1.3941 -1.4457
   36CHL1   H7B 2603   2.084   4.412   7.574  0.9412 -0.6743  4.0348
   36CHL1    C8 2604   2.187   4.230   7.562 -0.2243  0.2010  0.0717
   36CHL1    H8 2605   2.293   4.203   7.549  0.0610  0.6820  1.2328
   36CHL1   C14 2606   2.126   4.194   7.694 -0.4389  0.5388 -0.5222
   36CHL1   H14 2607   2.021   4.228   7.686 -0.5689  0.1488 -0.4920
   36CHL1   C15 2608   2.180   4.264   7.822 -0.5418 -0.1259 -0.0917
   36CHL1  H15A 2609   2.290   4.271   7.831 -0.3409  0.4810 -2.4782
   36CHL1  H15B 2610   2.126   4.361   7.829 -0.5315 -0.2103  1.4143
   36CHL1   C16 2611   2.112   4.175   7.938  0.2720 -1.2556 -0.6807
   36CHL1  H16A 2612   2.189   4.153   8.015 -0.8491 -0.6045  0.6621
   36CHL1  H16B 2613   2.032   4.234   7.987 -0.4731 -3.2321  0.5975
   36CHL1   C17 2614   2.068   4.039   7.873  0.2133 -0.4184  0.2213
   36CHL1   H17 2615   1.960   4.058   7.853  0.3953  0.1319 -0.2906
   36CHL1   C13 2616   2.128   4.039   7.730 -0.7558  0.4030  1.0940
   36CHL1   C18 2617   2.281   3.995   7.730 -0.0127  0.0870 -1.4853
   36CHL1  H18A 2618   2.327   4.003   7.629  1.3392 -0.0926 -0.9024
   36CHL1  H18B 2619   2.331   4.062   7.804 -0.4511 -1.3706  0.1889
   36CHL1  H18C 2620   2.294   3.896   7.778  1.9744  1.6575  1.5695
   36CHL1   C12 2621   2.047   3.977   7.619  0.3653  0.2308 -0.4864
   36CHL1  H12A 2622   2.044   3.866   7.614 -1.0906  0.2728 -1.1456
   36CHL1  H12B 2623   1.942   4.012   7.634 -0.1844 -1.1241 -1.0142
   36CHL1   C11 2624   2.090   4.009   7.478  0.5867 -0.5493  0.1422
   36CHL1  H11A 2625   2.188   3.958   7.466  0.3287 -1.1171  0.3949
   36CHL1  H11B 2626   2.020   3.966   7.403  1.1907 -0.7714 -0.3102
   36CHL1    C9 2627   2.108   4.161   7.452 -0.2406  0.1833 -0.7054
   36CHL1    H9 2628   2.003   4.197   7.451 -0.2511  0.2871  1.2517
   36CHL1   C10 2629   2.152   4.200   7.309  0.1582 -0.1717 -0.4228
   36CHL1   C19 2630   2.273   4.108   7.280  0.3704  0.4284  0.2125
   36CHL1  H19A 2631   2.319   4.117   7.179  0.5882  1.1570  0.3737
   36CHL1  H19B 2632   2.349   4.125   7.359 -1.5117  1.6327  1.8489
   36CHL1  H19C 2633   2.244   4.000   7.284  1.3707  0.0382 -1.7512
   36CHL1    C1 2634   2.035   4.190   7.207  0.6490  0.2202 -1.2779
   36CHL1   H1A 2635   2.008   4.082   7.202  2.2717 -0.2688 -0.3918
   36CHL1   H1B 2636   1.959   4.261   7.246  1.5282  0.3025  0.3927
   36CHL1    C2 2637   2.065   4.224   7.064 -0.7232  0.5267  0.2018
   36CHL1   H2A 2638   1.974   4.209   7.001  0.0794  0.2236 -0.9280
   36CHL1   H2B 2639   2.147   4.156   7.032  0.4583  2.2235 -0.5041
   36CHL1   C20 2640   2.089   3.911   7.960  0.3377  0.4870 -0.4600
   36CHL1   H20 2641   2.197   3.893   7.978  0.0208 -1.4554 -0.3206
   36CHL1   C21 2642   2.026   3.788   7.881  0.8122 -0.6065 -0.2007
   36CHL1  H21A 2643   1.994   3.704   7.946 -0.3950  0.6979  0.9758
   36CHL1  H21B 2644   2.092   3.747   7.802  0.1388 -0.8474 -0.6433
   36CHL1  H21C 2645   1.930   3.816   7.835 -0.2044 -1.3510  1.3611
   36CHL1   C22 2646   2.016   3.912   8.101  0.0914  0.3147  0.1225
   36CHL1  H22A 2647   2.022   4.011   8.150  3.7455 -0.0575  0.7113
   36CHL1  H22B 2648   1.907   3.890   8.100 -0.1203  1.3243  0.1428
   36CHL1   C23 2649   2.080   3.797   8.191 -0.7513 -0.2490 -0.4087
   36CHL1  H23A 2650   2.071   3.705   8.129 -1.1289 -0.5107  0.0411
   36CHL1  H23B 2651   2.187   3.814   8.217 -0.9688  0.3711  0.1046
   36CHL1   C24 2652   2.014   3.788   8.323  0.0870 -0.1072 -0.0641
   36CHL1  H24A 2653   2.003   3.892   8.361 -0.6467 -0.0852 -0.3099
   36CHL1  H24B 2654   1.908   3.758   8.311  0.0668  0.8848 -2.9971
   36CHL1   C25 2655   2.094   3.704   8.431 -0.2440 -0.0689 -0.7059
   36CHL1   H25 2656   2.182   3.770   8.448 -2.4499  2.9883 -0.3220
   36CHL1   C26 2657   2.008   3.705   8.561 -0.2117 -0.4946 -0.6246
   36CHL1  H26A 2658   1.993   3.807   8.601 -2.1068 -0.9922  0.0500
   36CHL1  H26B 2659   1.908   3.658   8.545 -1.4313  1.0804  1.8218
   36CHL1  H26C 2660   2.049   3.643   8.644  0.3512 -0.2531 -0.7189
   36CHL1   C27 2661   2.138   3.564   8.377  0.2351 -0.0727 -0.8115
   36CHL1  H27A 2662   2.167   3.558   8.269  0.2478  0.4263 -0.8359
   36CHL1  H27B 2663   2.225   3.527   8.436 -0.1742 -2.3375 -1.5341
   36CHL1  H27C 2664   2.053   3.494   8.392 -1.4471  1.7888 -1.3196
   37CHL1    C3 2665   5.905   1.047   6.878 -0.6949 -0.2774 -0.0381
   37CHL1    H3 2666   5.923   0.938   6.881  2.0330  0.1216  0.8570
   37CHL1    O3 2667   5.903   1.103   6.747 -0.4065  0.0296  0.1944
   37CHL1   H3' 2668   5.985   1.070   6.710 -1.6966 -0.7300 -2.2121
   37CHL1    C4 2669   5.765   1.080   6.936 -0.0938 -0.6073  0.1612
   37CHL1   H4A 2670   5.740   1.187   6.922  3.7242  0.1919 -2.0049
   37CHL1   H4B 2671   5.688   1.029   6.874 -0.2960 -0.8965  0.6460
   37CHL1    C5 2672   5.755   1.040   7.080  0.1288  0.1112 -0.7745
   37CHL1    C6 2673   5.660   0.951   7.124 -0.4486 -0.3293  0.0273
   37CHL1    H6 2674   5.599   0.906   7.045  1.2477  1.3941 -2.3979
   37CHL1    C7 2675   5.632   0.919   7.268  0.6462 -0.2252 -0.1181
   37CHL1   H7A 2676   5.529   0.936   7.306  0.7603  1.7890 -0.6086
   37CHL1   H7B 2677   5.657   0.814   7.295 -0.9711 -0.1533  1.9295
   37CHL1    C8 2678   5.698   1.018   7.366 -0.9070 -0.6569  0.4798
   37CHL1    H8 2679   5.650   1.118   7.362  2.6338  1.2887  2.0150
   37CHL1   C14 2680   5.700   0.962   7.510 -0.1108 -0.0694 -0.2270
   37CHL1   H14 2681   5.756   0.866   7.504  0.3545  0.2478 -1.0843
   37CHL1   C15 2682   5.568   0.918   7.585 -0.1482 -0.0094  0.4749
   37CHL1  H15A 2683   5.511   1.013   7.589  1.3554  0.8822  2.8284
   37CHL1  H15B 2684   5.496   0.844   7.543  0.5539 -0.0759 -0.6541
   37CHL1   C16 2685   5.614   0.898   7.735 -0.4575 -0.4859  0.5181
   37CHL1  H16A 2686   5.540   0.946   7.803 -2.4591 -1.0040 -1.1983
   37CHL1  H16B 2687   5.619   0.791   7.766 -0.3816 -1.0705 -1.3613
   37CHL1   C17 2688   5.760   0.958   7.744 -0.0171  0.5749 -0.2300
   37CHL1   H17 2689   5.833   0.875   7.731  0.3546  1.1467 -1.9934
   37CHL1   C13 2690   5.782   1.047   7.618  0.3137  0.5950 -0.0530
   37CHL1   C18 2691   5.728   1.186   7.638 -0.1586  0.4630  0.6208
   37CHL1  H18A 2692   5.617   1.180   7.643 -0.0506 -2.4183  1.1634
   37CHL1  H18B 2693   5.767   1.244   7.725 -3.6201 -1.6338  3.8507
   37CHL1  H18C 2694   5.744   1.251   7.549 -0.2729  1.1388  1.0845
   37CHL1   C12 2695   5.924   1.054   7.569  0.3414 -0.0902 -0.2431
   37CHL1  H12A 2696   5.986   1.121   7.632  2.4700 -2.1437 -0.0103
   37CHL1  H12B 2697   5.975   0.955   7.578  2.0832  0.8072  0.1841
   37CHL1   C11 2698   5.946   1.104   7.427 -0.2061  0.1654 -0.0863
   37CHL1  H11A 2699   5.948   1.215   7.421  2.4997  0.3326  1.9964
   37CHL1  H11B 2700   6.051   1.077   7.406 -0.5802 -0.6633 -0.9686
   37CHL1    C9 2701   5.846   1.041   7.320 -0.2741  0.1693 -0.1051
   37CHL1    H9 2702   5.892   0.941   7.306  1.4564  0.7306  1.2245
   37CHL1   C10 2703   5.859   1.096   7.173  0.0945 -0.3360  0.0584
   37CHL1   C19 2704   5.846   1.249   7.176  0.1613 -0.4383 -0.4792
   37CHL1  H19A 2705   5.946   1.289   7.205  0.0112  0.0446 -0.6142
   37CHL1  H19B 2706   5.813   1.300   7.083  0.4944  1.3837  0.3464
   37CHL1  H19C 2707   5.759   1.277   7.239 -2.9589 -0.8047 -4.2614
   37CHL1    C1 2708   5.999   1.054   7.110  0.1890  0.3134 -0.4992
   37CHL1   H1A 2709   6.073   1.085   7.187 -0.3645 -1.1165  0.6631
   37CHL1   H1B 2710   6.013   0.944   7.100 -2.2696  0.0963 -2.2005
   37CHL1    C2 2711   6.012   1.113   6.968 -0.6336 -0.4859  1.3113
   37CHL1   H2A 2712   6.108   1.068   6.937 -1.0223 -0.3971 -0.0812
   37CHL1   H2B 2713   6.026   1.223   6.974 -1.9854 -0.2363  0.3709
   37CHL1   C20 2714   5.780   1.020   7.882 -0.5679  0.1158 -0.4854
   37CHL1   H20 2715   5.711   1.107   7.890  1.5093  1.8572 -0.2778
   37CHL1   C21 2716   5.923   1.078   7.892 -0.9773  0.5263  0.3640
   37CHL1  H21A 2717   5.930   1.159   7.816 -1.2387  0.2047 -0.0058
   37CHL1  H21B 2718   6.007   1.011   7.866 -1.2092  0.5129 -0.3740
   37CHL1  H21C 2719   5.944   1.118   7.994  2.8631 -1.1447  0.4236
   37CHL1   C22 2720   5.736   0.934   8.005  0.1990 -0.4997 -0.1493
   37CHL1  H22A 2721   5.639   0.881   7.999  0.1498 -0.3777 -0.4317
   37CHL1  H22B 2722   5.803   0.847   8.024  0.7216  0.0719  0.7147
   37CHL1   C23 2723   5.736   1.011   8.139 -0.5683 -0.2287  0.3747
   37CHL1  H23A 2724   5.837   1.056   8.151 -2.0054  2.7161  2.8420
   37CHL1  H23B 2725   5.656   1.088   8.134 -0.2355  0.1162  0.3898
   37CHL1   C24 2726   5.712   0.920   8.255 -0.2674 -0.2200 -0.2064
   37CHL1  H24A 2727   5.789   0.842   8.239  1.1673  1.1980 -0.4262
   37CHL1  H24B 2728   5.742   0.983   8.342  1.3241  0.1352 -0.9816
   37CHL1   C25 2729   5.578   0.859   8.293 -0.3485  0.1874 -0.4424
   37CHL1   H25 2730   5.546   0.797   8.206  1.7952 -0.3310 -0.9316
   37CHL1   C26 2731   5.610   0.755   8.409 -0.3412 -0.0618  0.4667
   37CHL1  H26A 2732   5.631   0.811   8.503 -1.4409 -0.5793  1.0425
   37CHL1  H26B 2733   5.531   0.681   8.435  0.4631 -0.2615  2.5756
   37CHL1  H26C 2734   5.708   0.710   8.380  0.6090  0.6189  2.4258
   37CHL1   C27 2735   5.475   0.960   8.336 -0.4711  0.3536  0.0171
   37CHL1  H27A 2736   5.381   0.906   8.359 -0.2848  0.3988  0.9196
   37CHL1  H27B 2737   5.499   1.014   8.430  0.0591  0.2014 -0.0287
   37CHL1  H27C 2738   5.477   1.034   8.254  1.9300 -2.4593 -2.6959
   38CHL1    C3 2739   1.759   0.394   6.598 -0.2348 -0.1547  0.1619
   38CHL1    H3 2740   1.830   0.347   6.670  0.6657 -0.7833 -1.1052
   38CHL1    O3 2741   1.830   0.428   6.478 -0.2515 -0.0929 -0.1874
   38CHL1   H3' 2742   1.794   0.511   6.447 -0.7260 -0.0893  0.3645
   38CHL1    C4 2743   1.637   0.304   6.575 -0.0010 -0.1225  0.1135
   38CHL1   H4A 2744   1.559   0.347   6.509 -0.9285 -2.1011 -0.1797
   38CHL1   H4B 2745   1.675   0.222   6.510  1.8317  1.3486 -0.7646
   38CHL1    C5 2746   1.576   0.260   6.705  0.1309  0.0637  0.3754
   38CHL1    C6 2747   1.578   0.136   6.737 -0.1950  0.5513 -0.5056
   38CHL1    H6 2748   1.609   0.059   6.665  0.1045  1.4028 -1.3024
   38CHL1    C7 2749   1.537   0.076   6.874  0.4477  0.6708  0.7179
   38CHL1   H7A 2750   1.466  -0.007   6.852  1.2868  0.7056 -2.6294
   38CHL1   H7B 2751   1.626   0.034   6.926 -0.6636  0.5304  2.6291
   38CHL1    C8 2752   1.460   0.174   6.956 -0.0619  0.3452 -0.7402
   38CHL1    H8 2753   1.356   0.169   6.916  0.1557 -3.6260 -1.2049
   38CHL1   C14 2754   1.466   0.138   7.114 -0.3308 -0.4161 -0.3462
   38CHL1   H14 2755   1.569   0.172   7.138  1.2163 -3.3003 -2.3152
   38CHL1   C15 2756   1.460  -0.008   7.155  0.1015  0.0986 -0.0718
   38CHL1  H15A 2757   1.383  -0.053   7.088 -0.1825  3.1294 -1.9408
   38CHL1  H15B 2758   1.552  -0.069   7.165  0.4512  0.8798  1.9154
   38CHL1   C16 2759   1.409   0.000   7.304 -0.5519 -0.5255 -0.6505
   38CHL1  H16A 2760   1.311  -0.051   7.314  0.2286 -1.7095  2.1618
   38CHL1  H16B 2761   1.478  -0.047   7.378 -1.9397 -1.1729  0.2815
   38CHL1   C17 2762   1.402   0.151   7.341 -0.0224 -0.6857 -0.0934
   38CHL1   H17 2763   1.503   0.184   7.373 -0.0523 -1.1729  0.5171
   38CHL1   C13 2764   1.376   0.227   7.204  0.0533 -0.0716  0.4055
   38CHL1   C18 2765   1.229   0.187   7.161 -0.5555 -0.4670 -0.3474
   38CHL1  H18A 2766   1.154   0.226   7.232 -0.7367 -0.4400 -0.5536
   38CHL1  H18B 2767   1.197   0.231   7.064 -0.3916  1.6744  0.5291
   38CHL1  H18C 2768   1.208   0.079   7.143  0.2327 -0.5615 -0.7506
   38CHL1   C12 2769   1.422   0.368   7.193 -0.2126 -0.7327 -0.0637
   38CHL1  H12A 2770   1.364   0.442   7.253 -1.4631 -0.7590 -1.1761
   38CHL1  H12B 2771   1.524   0.375   7.237 -0.8067 -0.8825  1.3883
   38CHL1   C11 2772   1.439   0.415   7.045  0.7158  0.5704 -0.4343
   38CHL1  H11A 2773   1.334   0.422   7.010 -1.4508 -2.6506  4.2955
   38CHL1  H11B 2774   1.479   0.519   7.042  1.4127  0.4823  2.7378
   38CHL1    C9 2775   1.515   0.316   6.947 -0.2728 -0.6917  0.1578
   38CHL1    H9 2776   1.616   0.305   6.991 -0.7589 -0.1528  1.4654
   38CHL1   C10 2777   1.541   0.377   6.805 -0.0544  0.0571  0.4997
   38CHL1   C19 2778   1.406   0.435   6.746 -0.2520 -0.1625  0.4485
   38CHL1  H19A 2779   1.331   0.354   6.731 -0.9264 -0.2113  3.4262
   38CHL1  H19B 2780   1.369   0.510   6.819  1.8083  1.3203  0.0513
   38CHL1  H19C 2781   1.430   0.489   6.652 -0.5749 -4.6620 -2.5217
   38CHL1    C1 2782   1.654   0.486   6.808 -0.3981 -0.0116 -0.1950
   38CHL1   H1A 2783   1.617   0.579   6.857 -1.4659 -0.1274 -0.7681
   38CHL1   H1B 2784   1.736   0.450   6.874  0.9098 -0.6054 -2.0533
   38CHL1    C2 2785   1.707   0.520   6.672  0.0481 -0.2709 -0.2079
   38CHL1   H2A 2786   1.789   0.595   6.684  0.8160 -0.8641 -1.5813
   38CHL1   H2B 2787   1.628   0.577   6.618  0.0603 -0.9342 -0.9255
   38CHL1   C20 2788   1.309   0.185   7.465 -0.4661  0.7460  0.2621
   38CHL1   H20 2789   1.208   0.146   7.438  0.3701 -2.2692  1.0993
   38CHL1   C21 2790   1.303   0.334   7.498  0.4192  0.6775 -0.3151
   38CHL1  H21A 2791   1.250   0.343   7.595  1.0693  1.2146 -0.0069
   38CHL1  H21B 2792   1.239   0.391   7.426  0.5556  1.4904  0.1966
   38CHL1  H21C 2793   1.406   0.374   7.494  0.5422  0.6308  1.6048
   38CHL1   C22 2794   1.353   0.094   7.586 -0.1593 -1.5098  0.1748
   38CHL1  H22A 2795   1.312  -0.008   7.594 -0.1558 -1.4119  1.7849
   38CHL1  H22B 2796   1.463   0.082   7.578  0.0294 -0.6061  1.1125
   38CHL1   C23 2797   1.307   0.148   7.725 -0.8457  0.1488  0.2103
   38CHL1  H23A 2798   1.366   0.240   7.748  2.4397 -1.5555 -0.7789
   38CHL1  H23B 2799   1.198   0.168   7.717 -1.1108 -0.2341  2.2903
   38CHL1   C24 2800   1.346   0.051   7.838  0.2220 -0.2138 -0.5616
   38CHL1  H24A 2801   1.297  -0.047   7.819 -1.6921  1.2626 -4.1866
   38CHL1  H24B 2802   1.456   0.040   7.845  0.5226  2.3055 -0.4989
   38CHL1   C25 2803   1.314   0.085   7.989  0.3141  0.2251  0.7444
   38CHL1   H25 2804   1.205   0.069   7.984  0.1337  1.6762 -1.0691
   38CHL1   C26 2805   1.373  -0.039   8.070  0.1388 -0.2383  0.3294
   38CHL1  H26A 2806   1.362  -0.017   8.179  1.0143 -2.1189  0.8285
   38CHL1  H26B 2807   1.323  -0.132   8.036 -0.1046 -0.9745  2.4973
   38CHL1  H26C 2808   1.482  -0.048   8.054  0.5272 -3.8090  3.5899
   38CHL1   C27 2809   1.361   0.214   8.039 -0.0680 -0.5817 -0.6082
   38CHL1  H27A 2810   1.305   0.295   7.987  0.0193 -1.0092 -1.3921
   38CHL1  H27B 2811   1.343   0.218   8.148  1.1003 -0.8982 -0.3863
   38CHL1  H27C 2812   1.471   0.220   8.021  0.3485 -2.2259  1.0949
   39CHL1    C3 2813   3.826   6.412   6.871  0.8094 -0.2449  0.0362
   39CHL1    H3 2814   3.756   6.326   6.863  0.9595 -0.4084  0.4308
   39CHL1    O3 2815   3.853   6.447   6.737  0.0738  0.4087 -0.5142
   39CHL1   H3' 2816   3.941   6.484   6.726  0.0795  0.9526  1.1226
   39CHL1    C4 2817   3.744   6.521   6.944  0.2676 -0.3644  0.1365
   39CHL1   H4A 2818   3.803   6.614   6.931 -2.1495  1.1300 -0.7543
   39CHL1   H4B 2819   3.647   6.537   6.894  0.0698 -2.2052 -0.1232
   39CHL1    C5 2820   3.735   6.504   7.093 -0.2695 -0.8498 -0.5530
   39CHL1    C6 2821   3.623   6.505   7.170  0.3845 -0.3613  0.5534
   39CHL1    H6 2822   3.529   6.520   7.116 -0.7411 -1.6874  2.0508
   39CHL1    C7 2823   3.606   6.483   7.316  0.0613  0.0323  0.0771
   39CHL1   H7A 2824   3.534   6.554   7.364 -0.6829 -0.7098  0.0922
   39CHL1   H7B 2825   3.581   6.376   7.337 -0.9160  0.3924  0.8496
   39CHL1    C8 2826   3.739   6.489   7.389 -0.0304  0.5170  0.0144
   39CHL1    H8 2827   3.767   6.596   7.398  0.1800  0.5058 -0.4892
   39CHL1   C14 2828   3.730   6.431   7.527  0.2803 -0.8445 -0.8970
   39CHL1   H14 2829   3.712   6.324   7.505  0.2418 -0.7568 -1.3145
   39CHL1   C15 2830   3.614   6.477   7.617  0.2656  0.3675 -0.2550
   39CHL1  H15A 2831   3.621   6.588   7.620  1.1762  0.2922  1.4989
   39CHL1  H15B 2832   3.512   6.445   7.587  1.3676 -2.5107 -1.3593
   39CHL1   C16 2833   3.647   6.424   7.753  0.7963  0.9775  0.9208
   39CHL1  H16A 2834   3.631   6.503   7.830  1.4261  0.7635  1.2714
   39CHL1  H16B 2835   3.593   6.332   7.783  0.0057  1.0619 -0.1831
   39CHL1   C17 2836   3.800   6.381   7.750  0.5375 -0.6427  0.2353
   39CHL1   H17 2837   3.797   6.271   7.742 -2.5385 -0.5992 -0.7202
   39CHL1   C13 2838   3.858   6.429   7.616  0.3536  0.1831  0.0740
   39CHL1   C18 2839   3.916   6.570   7.629 -0.4939  0.1198 -0.7644
   39CHL1  H18A 2840   4.021   6.568   7.665 -0.3214 -0.4363 -1.2704
   39CHL1  H18B 2841   3.917   6.611   7.526  1.1572  1.3619 -0.2807
   39CHL1  H18C 2842   3.852   6.635   7.693 -1.1858 -0.3277 -0.9829
   39CHL1   C12 2843   3.956   6.339   7.538 -0.7138 -0.0126 -0.1812
   39CHL1  H12A 2844   4.047   6.331   7.602 -0.9205  1.4440  0.3171
   39CHL1  H12B 2845   3.915   6.237   7.518  0.3424 -0.2460 -1.2526
   39CHL1   C11 2846   3.979   6.394   7.395  0.5924 -0.5361  0.4744
   39CHL1  H11A 2847   4.025   6.494   7.402 -0.5014  0.0175 -0.0546
   39CHL1  H11B 2848   4.050   6.329   7.339  0.8380  2.4372 -2.9960
   39CHL1    C9 2849   3.849   6.413   7.315  0.2877 -0.3631  0.7831
   39CHL1    H9 2850   3.815   6.307   7.311 -0.4165 -0.1662  1.2403
   39CHL1   C10 2851   3.869   6.459   7.164 -0.4146 -0.4558  0.8843
   39CHL1   C19 2852   3.971   6.579   7.168 -0.6212 -0.9651  0.7050
   39CHL1  H19A 2853   3.926   6.661   7.230  0.5041 -1.1521  1.8042
   39CHL1  H19B 2854   4.068   6.544   7.209  1.4100  0.4973 -2.4813
   39CHL1  H19C 2855   3.985   6.620   7.066  0.2109 -0.1572  1.1264
   39CHL1    C1 2856   3.934   6.333   7.086  0.7626 -0.0310  0.4329
   39CHL1   H1A 2857   4.027   6.302   7.139  0.3641  0.2647  1.3282
   39CHL1   H1B 2858   3.863   6.248   7.094  0.7630 -0.0485  0.2463
   39CHL1    C2 2859   3.956   6.372   6.936  0.4264  0.4143  0.1992
   39CHL1   H2A 2860   3.998   6.281   6.888  0.7361  0.1878  0.8846
   39CHL1   H2B 2861   4.034   6.450   6.923  1.2421 -0.5212 -0.7880
   39CHL1   C20 2862   3.870   6.413   7.880  0.2319  0.7780 -0.4048
   39CHL1   H20 2863   3.886   6.519   7.910 -0.5342  1.3409 -1.8895
   39CHL1   C21 2864   4.009   6.352   7.864  0.5242 -0.2490 -0.1077
   39CHL1  H21A 2865   4.074   6.420   7.806  0.8209  0.1368  0.6589
   39CHL1  H21B 2866   4.000   6.254   7.814 -3.6092  1.5108 -3.5313
   39CHL1  H21C 2867   4.059   6.340   7.963  0.6640 -0.6729 -0.2297
   39CHL1   C22 2868   3.805   6.326   8.004 -0.0454 -0.2739  0.0024
   39CHL1  H22A 2869   3.694   6.336   8.005 -0.0350 -0.1087 -0.2708
   39CHL1  H22B 2870   3.834   6.223   7.977  0.4208  0.0166 -0.6396
   39CHL1   C23 2871   3.859   6.381   8.139 -0.0959  0.2350 -0.1658
   39CHL1  H23A 2872   3.957   6.331   8.157  0.2336  0.1138 -2.0171
   39CHL1  H23B 2873   3.872   6.491   8.132 -3.5831  0.6908 -1.2823
   39CHL1   C24 2874   3.773   6.343   8.262 -0.5617  0.1049  0.4777
   39CHL1  H24A 2875   3.668   6.372   8.239 -0.8708 -1.1767  0.1760
   39CHL1  H24B 2876   3.778   6.232   8.267 -0.1405 -0.0413 -2.1669
   39CHL1   C25 2877   3.806   6.407   8.397 -0.5303  0.7328 -0.2902
   39CHL1   H25 2878   3.799   6.514   8.367 -0.5589  0.5867 -0.8228
   39CHL1   C26 2879   3.698   6.376   8.502 -1.0208 -0.3675  0.2729
   39CHL1  H26A 2880   3.597   6.366   8.457 -0.6285 -3.4547 -0.1563
   39CHL1  H26B 2881   3.722   6.280   8.553 -1.8259 -0.7307 -0.0143
   39CHL1  H26C 2882   3.709   6.451   8.583 -0.6625 -0.4543  0.3048
   39CHL1   C27 2883   3.947   6.387   8.456  0.3637  0.1013  0.3528
   39CHL1  H27A 2884   3.968   6.279   8.469 -2.5582 -0.6613 -0.3719
   39CHL1  H27B 2885   4.025   6.427   8.389  1.0234 -0.3689  0.8300
   39CHL1  H27C 2886   3.962   6.433   8.556 -0.8957 -0.3469  0.7646
   40CHL1    C3 2887   4.649   0.263   6.913 -0.1436 -0.0651 -0.4609
   40CHL1    H3 2888   4.678   0.158   6.936 -0.8908  0.2544  2.4571
   40CHL1    O3 2889   4.637   0.269   6.770  0.7634  0.0149 -0.3365
   40CHL1   H3' 2890   4.542   0.259   6.761  0.5685 -3.2799  2.9841
   40CHL1    C4 2891   4.524   0.309   6.982 -0.4130 -0.5329  0.1689
   40CHL1   H4A 2892   4.510   0.415   6.951  0.9404 -0.6567 -1.0297
   40CHL1   H4B 2893   4.438   0.250   6.943 -2.1686  2.2151 -0.4255
   40CHL1    C5 2894   4.551   0.303   7.129  0.0879  0.0675  0.3130
   40CHL1    C6 2895   4.463   0.239   7.208 -0.1415  0.5354 -0.1885
   40CHL1    H6 2896   4.370   0.202   7.164 -0.5036  0.5240  0.5782
   40CHL1    C7 2897   4.484   0.210   7.360 -0.4569 -0.4193  0.2056
   40CHL1   H7A 2898   4.388   0.217   7.415 -0.4682  1.8475 -0.0215
   40CHL1   H7B 2899   4.520   0.107   7.379 -0.3111 -0.2964  0.6016
   40CHL1    C8 2900   4.579   0.307   7.418 -0.2362 -0.7106  0.9986
   40CHL1    H8 2901   4.528   0.406   7.407 -0.0012 -0.7479 -0.7757
   40CHL1   C14 2902   4.613   0.269   7.561 -0.2184  1.3581 -0.0593
   40CHL1   H14 2903   4.655   0.166   7.550 -0.7303  1.1296  0.1075
   40CHL1   C15 2904   4.500   0.240   7.667 -0.4766  0.0630  0.4941
   40CHL1  H15A 2905   4.425   0.323   7.669 -0.6282 -0.0776  1.8841
   40CHL1  H15B 2906   4.445   0.144   7.662  0.8244 -0.6803  0.2409
   40CHL1   C16 2907   4.570   0.250   7.803 -0.0518 -0.2274  0.7745
   40CHL1  H16A 2908   4.510   0.318   7.868  0.3625  2.9937 -1.9101
   40CHL1  H16B 2909   4.578   0.152   7.854 -1.8619  0.5589  2.7668
   40CHL1   C17 2910   4.710   0.312   7.779  1.1246 -0.2568 -0.7966
   40CHL1   H17 2911   4.783   0.229   7.794 -1.5558 -2.5584  0.4070
   40CHL1   C13 2912   4.710   0.363   7.629  0.0722 -0.4544 -0.3102
   40CHL1   C18 2913   4.658   0.508   7.622 -0.4219  0.6179  0.0188
   40CHL1  H18A 2914   4.723   0.578   7.679 -0.9215 -0.3547  1.8680
   40CHL1  H18B 2915   4.663   0.533   7.514 -2.1646  1.0622  0.0069
   40CHL1  H18C 2916   4.551   0.507   7.652 -0.2561 -0.2618  0.6015
   40CHL1   C12 2917   4.845   0.340   7.554  0.2463  0.0609 -0.6399
   40CHL1  H12A 2918   4.933   0.397   7.592 -0.4976 -0.2576  1.7339
   40CHL1  H12B 2919   4.864   0.231   7.560 -0.1447  0.0656  1.0158
   40CHL1   C11 2920   4.829   0.370   7.401 -0.1710 -0.5150 -0.3577
   40CHL1  H11A 2921   4.810   0.480   7.403  3.0215  0.1376 -0.8448
   40CHL1  H11B 2922   4.928   0.354   7.354  0.1782  0.6251 -0.0414
   40CHL1    C9 2923   4.712   0.302   7.330 -0.1512 -0.7587  0.2711
   40CHL1    H9 2924   4.742   0.195   7.325  1.2099 -0.5599  2.7295
   40CHL1   C10 2925   4.682   0.358   7.189  0.6164 -0.1324 -0.4941
   40CHL1   C19 2926   4.647   0.511   7.194 -0.6643 -0.0932  0.3301
   40CHL1  H19A 2927   4.741   0.562   7.224 -1.8275  0.8345  2.6363
   40CHL1  H19B 2928   4.595   0.555   7.105 -1.7200  0.3527  1.1444
   40CHL1  H19C 2929   4.582   0.542   7.278 -1.1956 -0.3543  0.0225
   40CHL1    C1 2930   4.799   0.317   7.097  1.0507 -0.4101  0.5682
   40CHL1   H1A 2931   4.892   0.361   7.138 -0.0146  0.5822  2.0197
   40CHL1   H1B 2932   4.813   0.207   7.106  1.8657 -0.2297  1.8346
   40CHL1    C2 2933   4.769   0.356   6.956  0.0211  1.0450  0.6844
   40CHL1   H2A 2934   4.845   0.328   6.881 -0.9956  0.9088 -0.3221
   40CHL1   H2B 2935   4.731   0.457   6.931 -0.5071  0.4625 -1.0061
   40CHL1   C20 2936   4.757   0.403   7.893 -0.5069 -0.3171 -0.3431
   40CHL1   H20 2937   4.688   0.490   7.896 -1.7885 -1.3080  3.0054
   40CHL1   C21 2938   4.900   0.451   7.863  0.4179 -0.0876 -1.5312
   40CHL1  H21A 2939   4.945   0.505   7.949  0.2103 -1.8057 -0.2998
   40CHL1  H21B 2940   4.886   0.516   7.774 -2.7356 -0.6583 -1.5709
   40CHL1  H21C 2941   4.965   0.366   7.833 -1.5859 -1.6058 -1.7732
   40CHL1   C22 2942   4.746   0.332   8.026 -0.0013  0.2090 -0.9970
   40CHL1  H22A 2943   4.639   0.317   8.053  0.3595 -0.2812  0.2427
   40CHL1  H22B 2944   4.786   0.228   8.020 -1.6818 -0.4747 -1.0005
   40CHL1   C23 2945   4.816   0.403   8.151  0.2760 -0.9416  0.0208
   40CHL1  H23A 2946   4.925   0.401   8.132  0.4633 -1.6276  1.0973
   40CHL1  H23B 2947   4.784   0.510   8.156 -1.2752 -1.3328 -0.9842
   40CHL1   C24 2948   4.776   0.342   8.285 -0.7075  0.2205  0.9650
   40CHL1  H24A 2949   4.666   0.326   8.282 -0.8229  1.1335 -0.4198
   40CHL1  H24B 2950   4.808   0.236   8.293 -0.4200  0.1113 -1.0873
   40CHL1   C25 2951   4.812   0.406   8.413 -0.3056 -0.8760 -0.4599
   40CHL1   H25 2952   4.804   0.515   8.393 -2.0363 -0.8913 -0.0100
   40CHL1   C26 2953   4.697   0.379   8.516  0.4427  0.4136  0.0245
   40CHL1  H26A 2954   4.669   0.272   8.506 -1.4112  0.9673 -1.2521
   40CHL1  H26B 2955   4.732   0.410   8.617  2.7325 -1.5614 -0.0793
   40CHL1  H26C 2956   4.605   0.439   8.499  0.5631  0.8812  0.9321
   40CHL1   C27 2957   4.953   0.356   8.453 -0.6088 -0.2038 -0.8797
   40CHL1  H27A 2958   4.988   0.414   8.542  0.7503 -2.3506  0.0561
   40CHL1  H27B 2959   4.954   0.251   8.486  1.4845  0.3521  1.1167
   40CHL1  H27C 2960   5.026   0.349   8.369 -0.2259 -0.6270 -0.5167
   41CHL1    C3 2961   5.266   5.760   6.835 -0.0438  0.4705  0.7498
   41CHL1    H3 2962   5.362   5.758   6.890  0.8074  0.4080 -0.6685
   41CHL1    O3 2963   5.293   5.805   6.705  0.0843 -0.4259  0.6532
   41CHL1   H3' 2964   5.279   5.900   6.707  0.6603 -0.3047 -0.6434
   41CHL1    C4 2965   5.204   5.621   6.833 -0.2802 -0.5229 -0.9593
   41CHL1   H4A 2966   5.102   5.607   6.792 -0.9540 -0.3787  0.6023
   41CHL1   H4B 2967   5.272   5.548   6.784 -2.0455 -2.3541 -0.8066
   41CHL1    C5 2968   5.194   5.578   6.975  0.5114 -0.3328  0.0946
   41CHL1    C6 2969   5.245   5.466   7.020 -0.8712  0.1328  0.1326
   41CHL1    H6 2970   5.306   5.398   6.957  1.4308  1.2562  1.0214
   41CHL1    C7 2971   5.223   5.409   7.160 -0.2842  0.1957  0.4282
   41CHL1   H7A 2972   5.189   5.304   7.150 -1.9779  0.7282  0.2914
   41CHL1   H7B 2973   5.322   5.427   7.207  1.3416  0.4361 -2.8049
   41CHL1    C8 2974   5.124   5.482   7.249  0.0070 -0.5714 -0.4403
   41CHL1    H8 2975   5.026   5.429   7.245 -0.4755  0.2695  0.0159
   41CHL1   C14 2976   5.163   5.474   7.402  0.1139 -0.3711 -0.1624
   41CHL1   H14 2977   5.257   5.530   7.421  2.0873 -4.1040  2.4675
   41CHL1   C15 2978   5.200   5.335   7.463 -0.3458  0.1322 -0.1475
   41CHL1  H15A 2979   5.128   5.253   7.441 -1.5037  0.8345  0.9053
   41CHL1  H15B 2980   5.299   5.310   7.419  0.4212  0.8160  1.1159
   41CHL1   C16 2981   5.196   5.362   7.618 -0.7262 -0.6285  0.6250
   41CHL1  H16A 2982   5.137   5.279   7.661 -0.2302 -2.1773 -1.5049
   41CHL1  H16B 2983   5.297   5.352   7.664 -0.2399 -1.5964 -0.5680
   41CHL1   C17 2984   5.123   5.498   7.637 -0.3124 -0.3145  0.1846
   41CHL1   H17 2985   5.208   5.569   7.650  0.2130 -0.4239 -2.1892
   41CHL1   C13 2986   5.051   5.526   7.497 -0.1962  0.3975 -0.0572
   41CHL1   C18 2987   4.914   5.449   7.488 -0.1473  0.4841 -0.4062
   41CHL1  H18A 2988   4.856   5.474   7.397 -0.7902  0.5787  0.0243
   41CHL1  H18B 2989   4.924   5.338   7.494  0.8758  0.6359  1.0167
   41CHL1  H18C 2990   4.861   5.479   7.581  1.9487  0.7107  0.7857
   41CHL1   C12 2991   5.037   5.670   7.467 -0.5306 -0.6139  0.4202
   41CHL1  H12A 2992   4.938   5.703   7.506 -0.5403 -0.6431  0.4204
   41CHL1  H12B 2993   5.127   5.726   7.500  0.2597 -0.4413 -1.8390
   41CHL1   C11 2994   5.021   5.698   7.310 -0.2666 -0.4393 -0.3140
   41CHL1  H11A 2995   4.916   5.671   7.285 -0.6019  2.2419 -2.2680
   41CHL1  H11B 2996   5.029   5.808   7.299  1.8296 -0.5229 -0.1144
   41CHL1    C9 2997   5.125   5.632   7.220 -0.6102  0.1902 -0.7331
   41CHL1    H9 2998   5.230   5.665   7.240 -0.2550 -1.3359  0.0968
   41CHL1   C10 2999   5.108   5.674   7.066 -0.6577  0.0182 -0.6465
   41CHL1   C19 3000   4.963   5.658   7.027  0.7575 -0.3634 -0.2961
   41CHL1  H19A 3001   4.933   5.551   7.031  2.6144 -0.8856  0.9614
   41CHL1  H19B 3002   4.895   5.714   7.095  3.3693  0.0939  2.1370
   41CHL1  H19C 3003   4.947   5.688   6.921  2.8748 -1.5139 -0.9979
   41CHL1    C1 3004   5.152   5.822   7.051 -0.1069 -0.0682 -0.9577
   41CHL1   H1A 3005   5.071   5.881   7.099 -0.2343 -1.3520  0.4859
   41CHL1   H1B 3006   5.246   5.833   7.109 -1.5124 -0.9338  1.6820
   41CHL1    C2 3007   5.174   5.865   6.906  0.4178  0.5419  0.5350
   41CHL1   H2A 3008   5.212   5.968   6.918  0.1610  0.6655  0.2887
   41CHL1   H2B 3009   5.081   5.859   6.846  2.2533 -1.4569 -2.3575
   41CHL1   C20 3010   5.040   5.502   7.765 -0.1931  0.1638  0.4863
   41CHL1   H20 3011   4.954   5.432   7.762  0.5817 -0.7884 -0.1147
   41CHL1   C21 3012   4.989   5.647   7.779 -0.3261 -1.0091  0.1016
   41CHL1  H21A 3013   4.925   5.685   7.697 -0.2695 -1.2017 -0.0327
   41CHL1  H21B 3014   5.079   5.712   7.773 -1.0625 -0.0913 -1.6664
   41CHL1  H21C 3015   4.935   5.655   7.875  1.0375 -1.6699  0.9607
   41CHL1   C22 3016   5.122   5.468   7.889 -0.5129  0.0088 -0.0916
   41CHL1  H22A 3017   5.180   5.373   7.879  0.9517  0.6626  1.7082
   41CHL1  H22B 3018   5.194   5.550   7.907 -0.8101  0.2072  0.2030
   41CHL1   C23 3019   5.030   5.461   8.012 -0.3530  0.2341 -0.1841
   41CHL1  H23A 3020   4.992   5.560   8.046  0.1703  0.0396  1.0075
   41CHL1  H23B 3021   4.947   5.391   7.989 -1.8397  0.9029  2.5801
   41CHL1   C24 3022   5.102   5.408   8.137 -0.1188  0.4430  0.4123
   41CHL1  H24A 3023   5.153   5.314   8.106  0.6082  1.3916 -1.4058
   41CHL1  H24B 3024   5.177   5.478   8.177  1.2298 -0.9063  0.3408
   41CHL1   C25 3025   5.020   5.377   8.265  0.2175 -0.0953  0.0450
   41CHL1   H25 3026   5.088   5.330   8.339  2.0799  0.5257 -1.1986
   41CHL1   C26 3027   4.964   5.507   8.325  0.4065 -0.2249  0.1844
   41CHL1  H26A 3028   4.922   5.573   8.246  1.2213  1.1653  0.8500
   41CHL1  H26B 3029   4.897   5.486   8.411 -1.0511  0.7857 -0.6595
   41CHL1  H26C 3030   5.039   5.582   8.360 -1.4826  1.7844  0.1966
   41CHL1   C27 3031   4.907   5.276   8.236 -1.0503 -0.6595 -0.4171
   41CHL1  H27A 3032   4.837   5.323   8.164 -1.5489  0.4597  0.7599
   41CHL1  H27B 3033   4.966   5.191   8.194  1.9566  1.7395 -1.4858
   41CHL1  H27C 3034   4.856   5.260   8.333 -1.4151  0.0303 -0.4909
   42CHL1    C3 3035   0.837   2.642   6.935  0.3475  0.0268 -0.0933
   42CHL1    H3 3036   0.740   2.589   6.950 -0.2373  1.0819 -0.0395
   42CHL1    O3 3037   0.845   2.697   6.810  0.3477  0.6873 -0.6136
   42CHL1   H3' 3038   0.896   2.638   6.754 -0.8468 -0.3289 -0.6693
   42CHL1    C4 3039   0.827   2.744   7.047  0.7954  0.1636 -0.2975
   42CHL1   H4A 3040   0.902   2.824   7.027 -0.8923  1.9876  0.3533
   42CHL1   H4B 3041   0.731   2.798   7.031  0.2268 -0.9555 -0.7824
   42CHL1    C5 3042   0.853   2.692   7.190 -0.1067  0.5980  0.4822
   42CHL1    C6 3043   0.789   2.740   7.291  0.5239 -0.5519 -0.7200
   42CHL1    H6 3044   0.715   2.819   7.273 -0.7290 -1.2325  1.2626
   42CHL1    C7 3045   0.813   2.691   7.432  0.0183 -0.3976  0.2592
   42CHL1   H7A 3046   0.817   2.780   7.499  0.0521  0.6085 -1.0370
   42CHL1   H7B 3047   0.731   2.627   7.471 -0.9030 -0.1907 -1.2794
   42CHL1    C8 3048   0.941   2.614   7.457 -0.0229  0.6377 -0.2289
   42CHL1    H8 3049   1.029   2.681   7.469  0.5554  0.3603 -2.4648
   42CHL1   C14 3050   0.926   2.533   7.587 -0.3368  0.6364 -0.3736
   42CHL1   H14 3051   0.833   2.474   7.571 -1.8588  3.1969 -1.6435
   42CHL1   C15 3052   0.875   2.601   7.722 -0.3579  0.5239  0.1121
   42CHL1  H15A 3053   0.935   2.691   7.748 -2.4081  1.1466  3.2621
   42CHL1  H15B 3054   0.768   2.630   7.710 -0.1173  1.3998 -0.0025
   42CHL1   C16 3055   0.903   2.500   7.833  0.7153 -0.1017 -0.3295
   42CHL1  H16A 3056   0.965   2.550   7.911  0.8937 -0.5680 -0.1699
   42CHL1  H16B 3057   0.811   2.456   7.875 -0.1417  2.6834  0.9364
   42CHL1   C17 3058   0.985   2.389   7.760 -0.9076  0.6761 -0.3957
   42CHL1   H17 3059   0.909   2.314   7.727  0.2165 -0.2303 -0.9773
   42CHL1   C13 3060   1.040   2.452   7.631 -0.6994 -0.0356  0.5266
   42CHL1   C18 3061   1.165   2.538   7.655 -0.0625  0.2071  0.1239
   42CHL1  H18A 3062   1.203   2.576   7.557 -0.6825 -1.0398 -0.6209
   42CHL1  H18B 3063   1.146   2.625   7.722  0.6058  2.4593 -2.4214
   42CHL1  H18C 3064   1.248   2.472   7.686  0.7029  0.2886 -1.6229
   42CHL1   C12 3065   1.081   2.351   7.516 -0.3038  0.6893  0.4154
   42CHL1  H12A 3066   1.172   2.291   7.532 -1.0312 -1.1881 -1.9562
   42CHL1  H12B 3067   0.997   2.281   7.497 -0.0344  1.3360 -4.0756
   42CHL1   C11 3068   1.087   2.426   7.377 -0.0672 -0.3960 -0.4518
   42CHL1  H11A 3069   1.184   2.481   7.378 -0.8138  0.9576 -0.6161
   42CHL1  H11B 3070   1.090   2.337   7.310  1.4660 -0.7327  0.0173
   42CHL1    C9 3071   0.974   2.518   7.343 -0.1691 -0.3903  0.0504
   42CHL1    H9 3072   0.885   2.451   7.346  0.0952 -0.7175  2.3249
   42CHL1   C10 3073   0.967   2.588   7.203  0.6185  0.6077  0.3726
   42CHL1   C19 3074   1.098   2.665   7.182 -0.2090 -0.2362 -0.1198
   42CHL1  H19A 3075   1.109   2.711   7.081  1.5672 -0.9985 -0.3205
   42CHL1  H19B 3076   1.113   2.743   7.259  2.4016 -0.0851 -0.6908
   42CHL1  H19C 3077   1.176   2.586   7.190 -0.1183 -0.0590  0.9365
   42CHL1    C1 3078   0.946   2.480   7.091 -0.2975 -0.4988  0.2048
   42CHL1   H1A 3079   1.019   2.396   7.101 -0.2176 -0.3993  0.4507
   42CHL1   H1B 3080   0.842   2.444   7.107 -0.9930  2.2693  2.7895
   42CHL1    C2 3081   0.951   2.540   6.952  0.2249 -0.0376  0.9460
   42CHL1   H2A 3082   0.946   2.457   6.877  0.6730  0.1236  0.7331
   42CHL1   H2B 3083   1.049   2.583   6.925 -0.7235  0.6069 -1.9221
   42CHL1   C20 3084   1.095   2.305   7.844  1.4345 -0.8583  0.7477
   42CHL1   H20 3085   1.175   2.283   7.770  0.2547 -0.7807 -0.5902
   42CHL1   C21 3086   1.018   2.177   7.888  0.4213  0.6082 -0.0848
   42CHL1  H21A 3087   0.975   2.113   7.807 -0.7450  1.2420  0.0127
   42CHL1  H21B 3088   0.933   2.213   7.949  0.4018  3.1705 -1.5109
   42CHL1  H21C 3089   1.077   2.100   7.943  0.1347 -1.0969 -1.9999
   42CHL1   C22 3090   1.162   2.365   7.964 -0.2006 -0.3467 -0.7091
   42CHL1  H22A 3091   1.211   2.460   7.933  0.7779 -0.4590  0.4475
   42CHL1  H22B 3092   1.090   2.388   8.046  0.9408  1.5396 -0.1570
   42CHL1   C23 3093   1.272   2.277   8.014 -0.2512 -0.4280 -0.7572
   42CHL1  H23A 3094   1.236   2.208   8.094  0.2499 -0.7714 -0.8251
   42CHL1  H23B 3095   1.291   2.203   7.933  0.0444  0.4093 -1.4677
   42CHL1   C24 3096   1.402   2.347   8.055  0.0358  0.1730  0.1181
   42CHL1  H24A 3097   1.479   2.269   8.068  0.8173  0.9879  0.4520
   42CHL1  H24B 3098   1.434   2.420   7.978 -0.6527  2.0250  1.5234
   42CHL1   C25 3099   1.389   2.426   8.189  0.2981 -0.0720  0.2316
   42CHL1   H25 3100   1.297   2.488   8.188  0.4292  0.1237  0.1086
   42CHL1   C26 3101   1.387   2.325   8.306 -0.0099 -0.8446 -0.1163
   42CHL1  H26A 3102   1.475   2.257   8.317 -1.9548 -3.6280 -0.6889
   42CHL1  H26B 3103   1.381   2.381   8.402 -0.9367 -1.1832  0.0399
   42CHL1  H26C 3104   1.291   2.271   8.293 -0.7470  0.5834 -0.7659
   42CHL1   C27 3105   1.509   2.520   8.194  0.1468  0.3883  0.0943
   42CHL1  H27A 3106   1.514   2.572   8.096  0.4968  0.8619  0.3599
   42CHL1  H27B 3107   1.608   2.469   8.190 -0.1800 -0.2126 -0.4899
   42CHL1  H27C 3108   1.504   2.590   8.280 -0.0458 -1.2517  1.4792
   43CHL1    C3 3109   0.214   1.568   6.785  0.0747  0.3688 -0.5657
   43CHL1    H3 3110   0.303   1.635   6.796  1.7513 -1.3795 -2.5696
   43CHL1    O3 3111   0.170   1.581   6.653  0.1133  0.0689 -0.3314
   43CHL1   H3' 3112   0.088   1.531   6.648 -0.2883  0.7957 -1.3935
   43CHL1    C4 3113   0.242   1.426   6.813  0.8601 -0.4906 -0.2399
   43CHL1   H4A 3114   0.186   1.348   6.757  1.0929  0.8700 -2.4897
   43CHL1   H4B 3115   0.339   1.399   6.766  0.3723 -2.1184 -0.3615
   43CHL1    C5 3116   0.244   1.390   6.964  0.0410  0.0047  0.3517
   43CHL1    C6 3117   0.343   1.314   7.019 -0.8536  0.4197 -0.2375
   43CHL1    H6 3118   0.427   1.271   6.962  1.2702  2.1575  1.4195
   43CHL1    C7 3119   0.343   1.275   7.162  0.3455  0.0993  0.1406
   43CHL1   H7A 3120   0.372   1.167   7.163 -1.7918 -0.5207  1.2657
   43CHL1   H7B 3121   0.428   1.322   7.217  1.1293  0.9806 -1.7411
   43CHL1    C8 3122   0.205   1.289   7.233 -0.7558  0.2629 -0.3342
   43CHL1    H8 3123   0.136   1.212   7.193 -1.6367  1.7011 -1.7029
   43CHL1   C14 3124   0.216   1.262   7.380  0.2254  0.4532  0.1436
   43CHL1   H14 3125   0.292   1.336   7.412  0.9458 -0.1991 -0.0473
   43CHL1   C15 3126   0.278   1.129   7.433  0.3217  0.2980 -0.4034
   43CHL1  H15A 3127   0.240   1.041   7.376  3.2427 -1.2731 -0.0825
   43CHL1  H15B 3128   0.386   1.143   7.416  0.5873  0.4083  1.2166
   43CHL1   C16 3129   0.235   1.122   7.584  0.6509  0.3258  0.5437
   43CHL1  H16A 3130   0.188   1.022   7.586  0.1794  0.5445  1.0855
   43CHL1  H16B 3131   0.320   1.126   7.656  1.3957 -0.7564 -0.2515
   43CHL1   C17 3132   0.135   1.236   7.610  0.8167 -1.1650 -0.4950
   43CHL1   H17 3133   0.200   1.322   7.636 -0.7543 -0.4296  1.2549
   43CHL1   C13 3134   0.088   1.278   7.466  0.1262 -0.1800 -0.1771
   43CHL1   C18 3135  -0.016   1.181   7.411  0.5677 -0.4622 -0.5390
   43CHL1  H18A 3136  -0.032   1.194   7.301 -0.4531 -0.1869 -0.3655
   43CHL1  H18B 3137   0.007   1.074   7.431 -0.4009 -0.2606  2.0280
   43CHL1  H18C 3138  -0.108   1.206   7.469  1.3376 -0.6339  0.7825
   43CHL1   C12 3139   0.049   1.427   7.449  0.1756 -0.4133 -1.0240
   43CHL1  H12A 3140  -0.052   1.462   7.479  0.1952 -1.1754 -0.0169
   43CHL1  H12B 3141   0.118   1.497   7.500 -0.1837 -0.0598 -1.0142
   43CHL1   C11 3142   0.034   1.459   7.296 -0.1099 -0.0619 -1.1708
   43CHL1  H11A 3143  -0.058   1.407   7.262  0.1433 -0.5142 -1.1774
   43CHL1  H11B 3144   0.029   1.570   7.294  3.9235  0.2581 -1.8253
   43CHL1    C9 3145   0.152   1.429   7.206 -1.3118 -1.1663 -0.0539
   43CHL1    H9 3146   0.229   1.499   7.247 -1.2969 -1.4934  0.4823
   43CHL1   C10 3147   0.128   1.443   7.053  0.2340 -0.7747 -0.0839
   43CHL1   C19 3148  -0.010   1.379   7.012  0.3253 -0.5691 -0.4104
   43CHL1  H19A 3149  -0.008   1.347   6.906  1.9409  0.9253 -0.9002
   43CHL1  H19B 3150  -0.026   1.288   7.073 -0.6978  0.5436  1.0560
   43CHL1  H19C 3151  -0.095   1.448   7.030  1.2469  0.2313  1.0414
   43CHL1    C1 3152   0.120   1.597   7.019 -0.0127  1.3066 -0.6058
   43CHL1   H1A 3153   0.030   1.630   7.076 -0.4587  2.0413 -1.6975
   43CHL1   H1B 3154   0.212   1.639   7.065  0.5564  0.4779 -0.9728
   43CHL1    C2 3155   0.098   1.625   6.872  0.4020 -0.6562 -0.1358
   43CHL1   H2A 3156   0.081   1.731   6.844 -0.1459 -0.2209  1.6776
   43CHL1   H2B 3157   0.014   1.562   6.836  0.6178 -0.4003 -1.1127
   43CHL1   C20 3158   0.036   1.221   7.721  0.3987 -0.9626  0.1445
   43CHL1   H20 3159  -0.029   1.132   7.712 -1.6479  0.4024  0.7039
   43CHL1   C21 3160  -0.071   1.344   7.729 -0.1788 -0.2607  0.0400
   43CHL1  H21A 3161  -0.149   1.331   7.651 -0.6153 -0.6352  0.5287
   43CHL1  H21B 3162  -0.019   1.442   7.727  2.2905 -1.4970 -0.6621
   43CHL1  H21C 3163  -0.115   1.336   7.831  4.2403  2.6936  2.5260
   43CHL1   C22 3164   0.112   1.205   7.851  0.2197 -0.5722 -0.8640
   43CHL1  H22A 3165   0.193   1.128   7.853  0.7576 -0.0474  2.1570
   43CHL1  H22B 3166   0.149   1.306   7.878 -0.4475  0.0002 -1.9898
   43CHL1   C23 3167   0.010   1.148   7.957  0.2176 -0.5892 -1.1641
   43CHL1  H23A 3168  -0.055   1.235   7.980  4.5098  2.6687  0.0878
   43CHL1  H23B 3169  -0.028   1.054   7.913  1.2526 -1.9636  0.7381
   43CHL1   C24 3170   0.086   1.110   8.089 -0.3409 -0.2570 -0.1122
   43CHL1  H24A 3171   0.162   1.031   8.068  1.9205 -0.1070  5.5214
   43CHL1  H24B 3172   0.130   1.203   8.129  0.2957  0.3653 -2.1585
   43CHL1   C25 3173  -0.013   1.051   8.191  0.1135  0.1262 -0.1591
   43CHL1   H25 3174   0.049   1.022   8.278  1.2277  1.1253 -0.5878
   43CHL1   C26 3175  -0.121   1.149   8.241  0.3276 -0.1362  0.0628
   43CHL1  H26A 3176  -0.068   1.243   8.264  1.9652 -0.7039 -1.2141
   43CHL1  H26B 3177  -0.197   1.175   8.163  0.8014 -0.6085 -0.5692
   43CHL1  H26C 3178  -0.168   1.103   8.331  0.0241  1.4817  0.7625
   43CHL1   C27 3179  -0.084   0.930   8.136  0.5113  0.6062 -0.1324
   43CHL1  H27A 3180  -0.022   0.854   8.084 -1.2103  1.1011 -3.1498
   43CHL1  H27B 3181  -0.146   0.880   8.214  1.1689 -1.1942 -0.7122
   43CHL1  H27C 3182  -0.164   0.958   8.064 -1.0553  0.5509  1.5050
   44CHL1    C3 3183   5.726   5.554   6.679  0.1827 -0.4256 -0.2331
   44CHL1    H3 3184   5.711   5.663   6.695  1.2137  0.1526 -2.7776
   44CHL1    O3 3185   5.729   5.548   6.538  0.4515 -0.1063  0.4205
   44CHL1   H3' 3186   5.651   5.499   6.510  2.5763 -3.5502 -0.0867
   44CHL1    C4 3187   5.858   5.509   6.742  0.0925 -0.1862 -0.2481
   44CHL1   H4A 3188   5.882   5.405   6.711  1.8491  0.7764 -2.3179
   44CHL1   H4B 3189   5.948   5.559   6.701  1.0716 -1.4989  0.2367
   44CHL1    C5 3190   5.857   5.522   6.888  0.4964 -0.0254  0.2279
   44CHL1    C6 3191   5.935   5.613   6.951 -0.4207  0.2330  0.8198
   44CHL1    H6 3192   6.005   5.673   6.891 -2.4930  1.3540 -0.6028
   44CHL1    C7 3193   5.939   5.626   7.099 -0.2367  0.2717  0.2044
   44CHL1   H7A 3194   6.038   5.609   7.146 -1.0384  1.0077  2.2636
   44CHL1   H7B 3195   5.903   5.726   7.129  0.8158  0.1750  1.9156
   44CHL1    C8 3196   5.864   5.513   7.172  0.2039 -0.0638 -0.3267
   44CHL1    H8 3197   5.927   5.422   7.184 -0.2728 -0.2879  0.6478
   44CHL1   C14 3198   5.826   5.558   7.318 -0.4476  0.4486  0.2467
   44CHL1   H14 3199   5.750   5.638   7.310  0.4322  1.1922 -1.0818
   44CHL1   C15 3200   5.943   5.620   7.405 -0.3239 -0.1816 -0.2230
   44CHL1  H15A 3201   6.033   5.555   7.406  0.1161  0.4270  0.4313
   44CHL1  H15B 3202   5.985   5.719   7.378  1.2506 -0.5712  0.6317
   44CHL1   C16 3203   5.879   5.632   7.543  0.0489  0.8656 -0.1683
   44CHL1  H16A 3204   5.951   5.570   7.601  0.9833  0.3788 -1.7824
   44CHL1  H16B 3205   5.874   5.738   7.575  0.6310  0.8914 -0.1471
   44CHL1   C17 3206   5.746   5.550   7.541 -0.4644  0.7508  0.2205
   44CHL1   H17 3207   5.665   5.625   7.527 -0.5946  0.6149  0.2364
   44CHL1   C13 3208   5.750   5.463   7.409 -0.8413 -0.4171 -0.9627
   44CHL1   C18 3209   5.836   5.342   7.442 -0.1234 -0.0639 -0.2074
   44CHL1  H18A 3210   5.782   5.259   7.492 -1.5577  0.0318 -1.5509
   44CHL1  H18B 3211   5.877   5.289   7.354 -0.8758 -0.5584 -0.2639
   44CHL1  H18C 3212   5.920   5.352   7.515 -0.0241 -0.6330 -0.2315
   44CHL1   C12 3213   5.620   5.426   7.336  0.6863  0.1610  0.0034
   44CHL1  H12A 3214   5.552   5.358   7.392  0.0260 -0.0715 -1.0521
   44CHL1  H12B 3215   5.566   5.522   7.316  2.3464  0.6896 -2.5194
   44CHL1   C11 3216   5.645   5.373   7.196  0.2679  0.3043  0.2144
   44CHL1  H11A 3217   5.694   5.273   7.202 -0.0099  0.0903 -0.8232
   44CHL1  H11B 3218   5.552   5.354   7.139 -1.2722  1.1253  2.3379
   44CHL1    C9 3219   5.726   5.480   7.111 -0.5792 -0.2122  0.5093
   44CHL1    H9 3220   5.674   5.578   7.107  0.7224  0.4731 -1.7467
   44CHL1   C10 3221   5.750   5.438   6.960  1.0733  0.3855  0.6863
   44CHL1   C19 3222   5.784   5.288   6.951  0.0738  0.1702  0.6001
   44CHL1  H19A 3223   5.881   5.263   7.000 -0.0286 -0.4135  0.5160
   44CHL1  H19B 3224   5.704   5.223   6.992 -1.0324  1.2367  0.1889
   44CHL1  H19C 3225   5.785   5.260   6.843  0.6583 -2.2416  1.1711
   44CHL1    C1 3226   5.610   5.469   6.888 -0.9613 -0.1791 -0.6393
   44CHL1   H1A 3227   5.531   5.398   6.921 -0.2586 -0.0954  1.3531
   44CHL1   H1B 3228   5.573   5.568   6.922 -0.4005 -0.1529 -0.0801
   44CHL1    C2 3229   5.610   5.469   6.735 -0.0538 -0.3686  0.2292
   44CHL1   H2A 3230   5.511   5.507   6.704 -0.2733 -0.6975  0.5189
   44CHL1   H2B 3231   5.610   5.365   6.698  3.5476 -0.0533 -1.0363
   44CHL1   C20 3232   5.711   5.489   7.675 -0.1226  0.0272  0.5267
   44CHL1   H20 3233   5.776   5.401   7.697  1.4162  1.3930  1.6590
   44CHL1   C21 3234   5.564   5.439   7.676 -0.1160 -0.3562  0.4901
   44CHL1  H21A 3235   5.564   5.329   7.659  1.8236 -0.3377  0.1357
   44CHL1  H21B 3236   5.496   5.482   7.600 -2.3470 -1.0888  1.9819
   44CHL1  H21C 3237   5.517   5.457   7.775 -1.3595 -2.2487  0.3132
   44CHL1   C22 3238   5.745   5.578   7.800  0.1950 -0.2625 -0.2561
   44CHL1  H22A 3239   5.846   5.625   7.798  0.3693  0.2156  4.8037
   44CHL1  H22B 3240   5.673   5.662   7.811 -1.1822 -1.1894 -1.7775
   44CHL1   C23 3241   5.743   5.513   7.936  0.5220  0.2177 -0.1734
   44CHL1  H23A 3242   5.639   5.494   7.971  0.8727 -0.1827  0.6622
   44CHL1  H23B 3243   5.789   5.412   7.931 -0.9896 -0.6312  1.5836
   44CHL1   C24 3244   5.811   5.596   8.046 -0.6368  0.1516  0.5039
   44CHL1  H24A 3245   5.916   5.563   8.056  0.4550  2.4787 -1.9569
   44CHL1  H24B 3246   5.815   5.706   8.031  2.9307  0.1664  0.7195
   44CHL1   C25 3247   5.735   5.573   8.176 -0.4862 -0.2332 -0.6861
   44CHL1   H25 3248   5.730   5.463   8.192 -2.5812 -0.4044 -2.1232
   44CHL1   C26 3249   5.805   5.629   8.295 -0.2530  0.1399  0.2942
   44CHL1  H26A 3250   5.806   5.740   8.293  1.7719  0.2420  2.2218
   44CHL1  H26B 3251   5.773   5.589   8.394  2.5306 -0.0420  1.2300
   44CHL1  H26C 3252   5.915   5.617   8.281 -0.4529  0.7264 -2.0486
   44CHL1   C27 3253   5.591   5.639   8.171 -0.0410  0.0803 -0.4896
   44CHL1  H27A 3254   5.523   5.600   8.093 -1.4258 -0.0996  0.7530
   44CHL1  H27B 3255   5.534   5.620   8.265  1.2923  1.6313  0.6957
   44CHL1  H27C 3256   5.593   5.749   8.165 -0.7644  0.0705 -0.9472
   45CHL1    C3 3257   5.748   3.637   6.805  0.3974 -0.2074  0.8876
   45CHL1    H3 3258   5.831   3.706   6.830  0.4474  0.6541 -1.4179
   45CHL1    O3 3259   5.731   3.632   6.663  0.2443  0.4760  0.4456
   45CHL1   H3' 3260   5.649   3.583   6.656 -0.3782  0.8109  3.5761
   45CHL1    C4 3261   5.785   3.489   6.850  0.0783  0.2297  0.0513
   45CHL1   H4A 3262   5.700   3.425   6.819 -0.1404 -0.5715  2.1608
   45CHL1   H4B 3263   5.877   3.456   6.796  1.6846  1.1296  2.1070
   45CHL1    C5 3264   5.794   3.476   6.998  1.0777  0.0073  0.8932
   45CHL1    C6 3265   5.900   3.423   7.054 -0.0512  0.0392  0.7486
   45CHL1    H6 3266   5.988   3.386   7.001  1.1039  0.5974  2.1802
   45CHL1    C7 3267   5.916   3.398   7.200 -0.0939 -0.7573  0.3135
   45CHL1   H7A 3268   5.951   3.294   7.216  1.3353 -0.6425 -1.6527
   45CHL1   H7B 3269   6.001   3.455   7.244 -2.5054  2.3602  1.2328
   45CHL1    C8 3270   5.788   3.425   7.277  0.0817  0.4756  0.0731
   45CHL1    H8 3271   5.718   3.339   7.267 -1.0814  1.1633  1.8518
   45CHL1   C14 3272   5.825   3.448   7.426 -0.1596 -0.6511 -0.1442
   45CHL1   H14 3273   5.887   3.541   7.423 -1.3469  0.2221  1.3729
   45CHL1   C15 3274   5.918   3.343   7.491 -0.1339  0.3098 -0.0103
   45CHL1  H15A 3275   5.877   3.246   7.454 -0.0596  1.1778 -2.5586
   45CHL1  H15B 3276   6.020   3.365   7.454  0.9899 -0.7186  2.2733
   45CHL1   C16 3277   5.907   3.367   7.638 -0.6476  0.1089  0.2482
   45CHL1  H16A 3278   5.894   3.270   7.691  3.6321 -0.5914  0.3707
   45CHL1  H16B 3279   6.002   3.408   7.680 -0.5021  0.1487 -0.1201
   45CHL1   C17 3280   5.790   3.471   7.661 -0.7898 -0.0296  0.4935
   45CHL1   H17 3281   5.842   3.568   7.669  1.7586 -1.3219  0.6690
   45CHL1   C13 3282   5.711   3.473   7.527  0.7527 -1.0179  0.0827
   45CHL1   C18 3283   5.605   3.355   7.515 -0.6121  0.1601  0.6619
   45CHL1  H18A 3284   5.512   3.401   7.554  0.3669  1.1528  1.9168
   45CHL1  H18B 3285   5.592   3.334   7.407  2.2678  2.8896 -0.3886
   45CHL1  H18C 3286   5.635   3.265   7.572  3.4546  1.5773  1.1407
   45CHL1   C12 3287   5.647   3.604   7.475 -0.0610 -0.8556 -0.1104
   45CHL1  H12A 3288   5.562   3.638   7.538 -2.1295 -0.1918 -3.0258
   45CHL1  H12B 3289   5.729   3.679   7.484 -0.0659 -0.6869 -1.3600
   45CHL1   C11 3290   5.608   3.591   7.328  0.2841 -0.1688 -0.3520
   45CHL1  H11A 3291   5.523   3.519   7.323  0.6024 -0.5478 -0.2809
   45CHL1  H11B 3292   5.565   3.688   7.295 -1.9794 -1.1118 -0.3703
   45CHL1    C9 3293   5.718   3.549   7.226 -0.6425  0.2694 -0.3496
   45CHL1    H9 3294   5.795   3.628   7.235 -1.2593  0.9070 -0.5935
   45CHL1   C10 3295   5.675   3.538   7.077 -0.0475 -0.0253  0.1201
   45CHL1   C19 3296   5.548   3.446   7.061 -0.0336  0.0468 -0.5514
   45CHL1  H19A 3297   5.527   3.437   6.952  0.5086  1.9378 -0.8485
   45CHL1  H19B 3298   5.563   3.343   7.101  0.1915  0.9945  1.9707
   45CHL1  H19C 3299   5.459   3.496   7.105 -0.1497 -1.2285  0.7318
   45CHL1    C1 3300   5.636   3.682   7.023 -0.2117  0.5807 -1.6876
   45CHL1   H1A 3301   5.540   3.711   7.070  1.4998  0.6903  2.1034
   45CHL1   H1B 3302   5.709   3.761   7.049  0.8992 -0.6121 -1.0701
   45CHL1    C2 3303   5.620   3.685   6.879  0.3391  0.0835  0.7309
   45CHL1   H2A 3304   5.592   3.787   6.843  3.0087  1.3631  1.9668
   45CHL1   H2B 3305   5.546   3.616   6.834  0.1053 -0.0296  1.2814
   45CHL1   C20 3306   5.698   3.442   7.784  0.2008  0.6172  0.2527
   45CHL1   H20 3307   5.654   3.340   7.779  0.3315  0.5787 -0.1508
   45CHL1   C21 3308   5.599   3.558   7.802 -0.6557 -0.7537 -0.1311
   45CHL1  H21A 3309   5.545   3.560   7.899  0.8593  0.2496  0.7507
   45CHL1  H21B 3310   5.520   3.563   7.725 -2.6805  0.1442  1.8745
   45CHL1  H21C 3311   5.659   3.652   7.809  0.9812 -1.8020  0.5709
   45CHL1   C22 3312   5.799   3.448   7.903  0.2887 -0.0053 -0.7436
   45CHL1  H22A 3313   5.866   3.360   7.893 -0.3307 -0.9039  2.0798
   45CHL1  H22B 3314   5.863   3.538   7.901  3.0601 -1.5462  3.6908
   45CHL1   C23 3315   5.738   3.440   8.049 -1.0033  0.0858  0.2507
   45CHL1  H23A 3316   5.663   3.521   8.060 -1.3594 -0.0789 -0.7685
   45CHL1  H23B 3317   5.678   3.347   8.055  1.1342 -1.5015 -1.2387
   45CHL1   C24 3318   5.839   3.442   8.164 -0.8455  0.4205 -0.0697
   45CHL1  H24A 3319   5.917   3.366   8.142  0.3157  1.2567  0.9556
   45CHL1  H24B 3320   5.888   3.542   8.157 -0.6153  0.1955 -2.3864
   45CHL1   C25 3321   5.774   3.410   8.294  0.4177 -0.2310  0.9095
   45CHL1   H25 3322   5.723   3.311   8.296 -0.6409  0.2895  0.6908
   45CHL1   C26 3323   5.890   3.413   8.394  0.1602 -0.1282 -0.3000
   45CHL1  H26A 3324   5.963   3.337   8.359 -0.7558 -1.4427  0.5558
   45CHL1  H26B 3325   5.937   3.514   8.396  1.6324 -0.7515 -1.1996
   45CHL1  H26C 3326   5.851   3.393   8.496  1.2244 -1.5341 -0.1424
   45CHL1   C27 3327   5.667   3.512   8.330 -0.1328 -0.1055  0.2764
   45CHL1  H27A 3328   5.714   3.613   8.325  0.4842 -0.2697  1.9395
   45CHL1  H27B 3329   5.578   3.514   8.263  0.6448  0.4638 -0.7788
   45CHL1  H27C 3330   5.638   3.498   8.436 -1.6134 -0.2288 -0.1190
   46CHL1    C3 3331   6.644   3.946   7.031 -0.3005 -0.0131  0.5727
   46CHL1    H3 3332   6.690   4.041   7.063 -1.7615  0.9552 -0.1049
   46CHL1    O3 3333   6.616   3.960   6.889 -0.0669  0.0359 -0.0049
   46CHL1   H3' 3334   6.582   3.876   6.859 -1.5975  1.0725 -1.3686
   46CHL1    C4 3335   6.734   3.827   7.050  0.1404  0.4935 -0.4050
   46CHL1   H4A 3336   6.669   3.750   7.004  0.3617 -0.3629  0.6784
   46CHL1   H4B 3337   6.830   3.846   6.996 -0.3420 -0.1447 -1.5363
   46CHL1    C5 3338   6.760   3.798   7.194 -0.2049  0.1416 -0.5067
   46CHL1    C6 3339   6.884   3.785   7.239 -1.0565 -0.0356 -0.6291
   46CHL1    H6 3340   6.967   3.777   7.167  0.2300 -2.2966  0.9689
   46CHL1    C7 3341   6.925   3.757   7.388 -0.0694 -0.6790  0.8451
   46CHL1   H7A 3342   7.000   3.676   7.396  0.4697 -0.2401  0.3257
   46CHL1   H7B 3343   6.976   3.844   7.434 -1.4543 -0.2839  1.7196
   46CHL1    C8 3344   6.801   3.727   7.474  0.4005  0.3483 -0.2624
   46CHL1    H8 3345   6.774   3.620   7.458 -0.1563 -0.3175  3.9128
   46CHL1   C14 3346   6.827   3.746   7.622 -0.2098 -0.5084 -0.4795
   46CHL1   H14 3347   6.839   3.856   7.625  1.9048 -0.7255  1.0573
   46CHL1   C15 3348   6.950   3.687   7.685 -0.0320 -0.0292 -0.2535
   46CHL1  H15A 3349   6.963   3.590   7.634  2.3629  1.1506 -2.1121
   46CHL1  H15B 3350   7.034   3.759   7.671 -0.8090  0.6609 -1.5908
   46CHL1   C16 3351   6.916   3.679   7.832 -0.0721 -0.3227  0.3392
   46CHL1  H16A 3352   6.929   3.580   7.881  1.2816  0.9826  2.8276
   46CHL1  H16B 3353   6.973   3.754   7.892  1.1984 -1.0939  0.1479
   46CHL1   C17 3354   6.771   3.740   7.844  0.7998 -0.1541 -0.7135
   46CHL1   H17 3355   6.775   3.851   7.847 -0.0364 -0.0866  2.6394
   46CHL1   C13 3356   6.708   3.714   7.711  0.1377 -0.2227  0.4159
   46CHL1   C18 3357   6.662   3.570   7.695  0.4567  0.2971 -0.3967
   46CHL1  H18A 3358   6.740   3.497   7.726  1.7073  1.3274 -1.0029
   46CHL1  H18B 3359   6.575   3.552   7.761 -0.2247  0.5166 -1.2111
   46CHL1  H18C 3360   6.632   3.550   7.590 -1.1846  0.1646  0.0667
   46CHL1   C12 3361   6.594   3.816   7.677  0.0685  0.4896  0.1035
   46CHL1  H12A 3362   6.508   3.799   7.744  0.3714  0.5406  0.5088
   46CHL1  H12B 3363   6.631   3.919   7.694  2.6019  0.1764 -2.4978
   46CHL1   C11 3364   6.557   3.808   7.529 -0.0449  0.3926 -0.0049
   46CHL1  H11A 3365   6.489   3.722   7.516 -0.2598  0.5281  0.2120
   46CHL1  H11B 3366   6.492   3.897   7.516 -0.5948  0.1182  0.8058
   46CHL1    C9 3367   6.680   3.805   7.431  0.0583  0.2182  0.0706
   46CHL1    H9 3368   6.721   3.909   7.436  0.6940 -0.0340  0.1740
   46CHL1   C10 3369   6.637   3.792   7.278 -0.4079  0.1273  0.0251
   46CHL1   C19 3370   6.560   3.650   7.270  0.0378  0.0511  0.3767
   46CHL1  H19A 3371   6.605   3.564   7.323 -3.1034 -0.5507  2.2563
   46CHL1  H19B 3372   6.460   3.665   7.314 -0.5153  0.7804 -1.0449
   46CHL1  H19C 3373   6.539   3.627   7.163 -3.0604 -3.8761  1.6040
   46CHL1    C1 3374   6.533   3.904   7.256 -0.2742 -0.4789  0.3341
   46CHL1   H1A 3375   6.440   3.868   7.305 -0.3966  0.0992  0.5355
   46CHL1   H1B 3376   6.566   4.001   7.299 -0.2496 -1.0343  1.6267
   46CHL1    C2 3377   6.514   3.925   7.106  0.1528 -0.4923  0.2828
   46CHL1   H2A 3378   6.446   4.010   7.084  2.9293  1.2574 -2.3785
   46CHL1   H2B 3379   6.470   3.832   7.062 -2.0995 -0.2508  1.8224
   46CHL1   C20 3380   6.703   3.684   7.971 -0.2749 -0.9217 -0.5045
   46CHL1   H20 3381   6.701   3.573   7.971 -1.0589 -0.9291  0.3782
   46CHL1   C21 3382   6.561   3.735   7.990 -0.3839  0.2467  0.2685
   46CHL1  H21A 3383   6.531   3.728   8.097  1.0412 -1.4177  0.6040
   46CHL1  H21B 3384   6.501   3.675   7.919  1.5417  0.2788 -1.4776
   46CHL1  H21C 3385   6.549   3.844   7.969  3.7772  1.3110  2.3152
   46CHL1   C22 3386   6.776   3.711   8.101 -0.1126  0.0589  0.5457
   46CHL1  H22A 3387   6.720   3.669   8.187 -0.8832 -0.7795 -0.3492
   46CHL1  H22B 3388   6.871   3.656   8.114 -0.3527 -0.4431  0.2065
   46CHL1   C23 3389   6.802   3.865   8.140 -0.1540  1.0035  0.2801
   46CHL1  H23A 3390   6.870   3.915   8.068  0.0671  0.1325 -0.1218
   46CHL1  H23B 3391   6.705   3.918   8.128  0.3363  1.5728 -1.3704
   46CHL1   C24 3392   6.866   3.873   8.286  0.8883 -0.4440 -0.5523
   46CHL1  H24A 3393   6.862   3.980   8.314  0.9153  0.2299 -2.8931
   46CHL1  H24B 3394   6.814   3.801   8.354  2.7154 -0.7733  0.5600
   46CHL1   C25 3395   7.018   3.844   8.285  0.6148  0.3845 -0.2763
   46CHL1   H25 3396   7.029   3.740   8.247  0.5727  0.8445 -1.6098
   46CHL1   C26 3397   7.100   3.941   8.200 -0.3888  0.1383  0.2935
   46CHL1  H26A 3398   7.206   3.923   8.227  0.3782  1.6553 -1.5055
   46CHL1  H26B 3399   7.086   3.928   8.090 -0.8376  1.6358  0.1536
   46CHL1  H26C 3400   7.074   4.045   8.230 -1.1596  0.6652 -1.9840
   46CHL1   C27 3401   7.075   3.849   8.430  1.0658  0.1099  0.5103
   46CHL1  H27A 3402   7.014   3.791   8.501 -1.6477  0.9597 -0.9813
   46CHL1  H27B 3403   7.167   3.787   8.436 -0.3876 -2.3463 -0.8600
   46CHL1  H27C 3404   7.079   3.950   8.477 -0.8981  0.4377  0.0729
   47CHL1    C3 3405   6.300   5.114   6.881 -0.2876 -0.3768 -0.3241
   47CHL1    H3 3406   6.333   5.009   6.901 -3.8949 -1.7368 -0.7022
   47CHL1    O3 3407   6.292   5.138   6.741  0.6497 -0.5426 -0.1122
   47CHL1   H3' 3408   6.232   5.070   6.708 -0.8899  0.6994 -0.0145
   47CHL1    C4 3409   6.163   5.122   6.944  0.5443 -0.4774 -0.7646
   47CHL1   H4A 3410   6.110   5.220   6.935  1.4310  0.0713 -0.1500
   47CHL1   H4B 3411   6.106   5.050   6.881  0.0481  0.3430 -1.2663
   47CHL1    C5 3412   6.162   5.085   7.094 -0.0259  0.1170  0.2608
   47CHL1    C6 3413   6.073   5.002   7.147 -0.2179  0.0187  0.0542
   47CHL1    H6 3414   6.001   4.955   7.077  0.3743 -0.1016 -0.4800
   47CHL1    C7 3415   6.065   4.977   7.299 -0.1976  0.0081 -0.5133
   47CHL1   H7A 3416   5.963   4.955   7.338 -0.6633 -0.8239 -2.1167
   47CHL1   H7B 3417   6.121   4.882   7.318  2.6964  1.5695 -0.6405
   47CHL1    C8 3418   6.143   5.073   7.383 -0.1067  0.5748  0.1362
   47CHL1    H8 3419   6.087   5.169   7.391 -2.3777 -0.5100 -1.5286
   47CHL1   C14 3420   6.153   5.034   7.532 -0.2397 -0.0015 -0.6460
   47CHL1   H14 3421   6.217   4.943   7.542  0.2704  0.4704  0.5226
   47CHL1   C15 3422   6.024   4.995   7.613 -0.2185 -0.1134 -0.1018
   47CHL1  H15A 3423   5.953   5.075   7.583  1.7003  1.5838 -0.3202
   47CHL1  H15B 3424   5.997   4.890   7.587 -0.1077 -0.9131  2.7413
   47CHL1   C16 3425   6.068   5.019   7.761  0.1900  0.0936  1.1153
   47CHL1  H16A 3426   6.002   5.092   7.812 -0.8382 -0.5138  0.6720
   47CHL1  H16B 3427   6.056   4.919   7.809 -0.1034 -0.8635 -0.8555
   47CHL1   C17 3428   6.216   5.067   7.761 -0.0820  0.6484 -0.6102
   47CHL1   H17 3429   6.269   4.970   7.770  2.1595  2.0133  2.5930
   47CHL1   C13 3430   6.237   5.128   7.620  0.2433 -0.3867  0.7958
   47CHL1   C18 3431   6.181   5.273   7.632  1.2139  0.4062 -0.9667
   47CHL1  H18A 3432   6.086   5.258   7.689  2.2347 -1.6369  0.3164
   47CHL1  H18B 3433   6.247   5.339   7.692 -0.4912  0.4721  0.9736
   47CHL1  H18C 3434   6.167   5.321   7.533  1.0233 -1.0312 -1.6631
   47CHL1   C12 3435   6.378   5.140   7.558  0.0268  0.2335  0.1530
   47CHL1  H12A 3436   6.440   5.206   7.624 -1.0394  1.5352 -0.0938
   47CHL1  H12B 3437   6.440   5.048   7.557  1.4160  1.0164  2.9458
   47CHL1   C11 3438   6.371   5.196   7.413 -0.0718 -0.7501 -0.0202
   47CHL1  H11A 3439   6.357   5.306   7.417  1.8366 -0.3741 -2.0526
   47CHL1  H11B 3440   6.475   5.186   7.376  0.1400 -1.9973  0.8343
   47CHL1    C9 3441   6.281   5.111   7.318  0.0172 -0.7121 -0.3710
   47CHL1    H9 3442   6.335   5.015   7.308 -0.2789 -0.7907 -1.4194
   47CHL1   C10 3443   6.268   5.157   7.175  0.2063 -0.1584  0.1482
   47CHL1   C19 3444   6.209   5.298   7.189  0.7145 -0.0283 -0.0970
   47CHL1  H19A 3445   6.125   5.315   7.260 -0.2364  0.9463 -1.3919
   47CHL1  H19B 3446   6.297   5.363   7.206  0.6515 -0.3746  1.8174
   47CHL1  H19C 3447   6.163   5.349   7.102 -1.9769 -0.9405  0.6803
   47CHL1    C1 3448   6.408   5.156   7.105 -1.2904  0.1252 -0.0873
   47CHL1   H1A 3449   6.492   5.209   7.153 -1.2140 -1.2086  1.3303
   47CHL1   H1B 3450   6.448   5.053   7.098 -0.2916  0.4086  1.0837
   47CHL1    C2 3451   6.408   5.196   6.960 -0.5471 -0.7298  0.8766
   47CHL1   H2A 3452   6.509   5.207   6.915 -0.2373  0.3406  1.7881
   47CHL1   H2B 3453   6.386   5.305   6.966  3.3955  0.5921 -3.0459
   47CHL1   C20 3454   6.262   5.141   7.882  0.8569  0.3829 -0.1631
   47CHL1   H20 3455   6.238   5.248   7.867 -4.1030 -0.4037  0.3875
   47CHL1   C21 3456   6.414   5.123   7.896 -0.1463 -0.3396 -0.0363
   47CHL1  H21A 3457   6.439   5.014   7.897 -0.8338 -0.4995  0.1311
   47CHL1  H21B 3458   6.461   5.176   7.981  0.4798  2.0571 -1.7877
   47CHL1  H21C 3459   6.471   5.161   7.809 -1.4742 -0.2570 -0.9014
   47CHL1   C22 3460   6.194   5.091   8.011  0.6070  0.5623  0.0962
   47CHL1  H22A 3461   6.095   5.141   8.005  0.8238  0.8405 -1.8003
   47CHL1  H22B 3462   6.192   4.980   8.007  0.8617  0.5583  0.0552
   47CHL1   C23 3463   6.255   5.145   8.143 -0.8090 -0.0363  0.0625
   47CHL1  H23A 3464   6.354   5.094   8.145 -0.9398 -0.3529 -0.8952
   47CHL1  H23B 3465   6.280   5.251   8.122  3.2237 -0.9098 -0.5114
   47CHL1   C24 3466   6.170   5.115   8.276  0.3693  0.3919  0.6293
   47CHL1  H24A 3467   6.065   5.150   8.262  0.0328 -0.3009  1.2820
   47CHL1  H24B 3468   6.162   5.005   8.293 -2.2193 -0.0445 -2.4814
   47CHL1   C25 3469   6.230   5.190   8.399 -0.7157  0.8155 -0.2668
   47CHL1   H25 3470   6.338   5.167   8.407 -0.7965  0.9670  1.9825
   47CHL1   C26 3471   6.226   5.342   8.390  0.1639 -0.2256 -0.1370
   47CHL1  H26A 3472   6.118   5.367   8.385  0.3645  0.8840  0.6936
   47CHL1  H26B 3473   6.260   5.404   8.475 -0.7660  2.1187 -1.3805
   47CHL1  H26C 3474   6.278   5.387   8.302 -0.6314  0.9923 -0.0101
   47CHL1   C27 3475   6.163   5.140   8.530  0.1927  0.4767  0.5936
   47CHL1  H27A 3476   6.216   5.180   8.619  0.2632  1.7634 -0.0101
   47CHL1  H27B 3477   6.056   5.171   8.534 -0.2737 -0.4988 -2.2438
   47CHL1  H27C 3478   6.143   5.031   8.531 -0.9595  0.5978 -1.9247
   48CHL1    C3 3479   4.172   1.786   6.223  0.1918 -0.1139  0.2280
   48CHL1    H3 3480   4.087   1.719   6.196  0.6565 -0.1921 -1.1054
   48CHL1    O3 3481   4.219   1.846   6.100  0.4343  0.2362 -0.0772
   48CHL1   H3' 3482   4.281   1.782   6.065 -1.3838 -1.1605 -0.9160
   48CHL1    C4 3483   4.122   1.903   6.308 -0.1234  0.3397  0.1183
   48CHL1   H4A 3484   4.213   1.966   6.316  1.2284 -1.6047  0.7983
   48CHL1   H4B 3485   4.047   1.954   6.244 -0.8669  1.7290  2.0163
   48CHL1    C5 3486   4.061   1.864   6.439  0.0896  0.7907  0.4073
   48CHL1    C6 3487   3.938   1.890   6.477  0.5030 -0.0866  0.3403
   48CHL1    H6 3488   3.880   1.943   6.400  3.3521  1.8077 -0.6736
   48CHL1    C7 3489   3.865   1.845   6.604  0.3057  0.1685  0.3140
   48CHL1   H7A 3490   3.795   1.925   6.636  1.1576  0.9013  0.3796
   48CHL1   H7B 3491   3.808   1.750   6.604  1.0784 -0.4150  3.6278
   48CHL1    C8 3492   3.973   1.821   6.708  0.0776 -0.3797 -0.6252
   48CHL1    H8 3493   4.016   1.920   6.733 -0.8507 -0.2408  0.4988
   48CHL1   C14 3494   3.912   1.752   6.828 -0.0679  0.0532 -0.2347
   48CHL1   H14 3495   3.861   1.665   6.782 -0.6190  0.9236 -1.3074
   48CHL1   C15 3496   3.788   1.820   6.901  0.2655 -0.0313  0.1634
   48CHL1  H15A 3497   3.815   1.924   6.929 -0.1811 -0.2194  1.3386
   48CHL1  H15B 3498   3.696   1.815   6.839 -0.3390 -1.6940  1.1491
   48CHL1   C16 3499   3.763   1.729   7.021 -0.4968  0.5681  0.5658
   48CHL1  H16A 3500   3.742   1.790   7.111 -2.4537  1.4549 -0.4491
   48CHL1  H16B 3501   3.681   1.656   7.002 -0.0896  0.2040  0.1978
   48CHL1   C17 3502   3.895   1.647   7.029 -0.2625  0.3766 -0.3490
   48CHL1   H17 3503   3.869   1.552   6.978  0.2719 -1.0952  1.9629
   48CHL1   C13 3504   4.003   1.703   6.935 -0.3376  0.7635  0.2675
   48CHL1   C18 3505   4.069   1.830   7.003  0.2371  0.3962 -0.3594
   48CHL1  H18A 3506   4.133   1.884   6.931  1.7683 -0.3504  0.3850
   48CHL1  H18B 3507   3.999   1.910   7.034  1.3219  1.0826  0.3710
   48CHL1  H18C 3508   4.140   1.798   7.083 -0.8971 -2.2811 -0.3204
   48CHL1   C12 3509   4.105   1.608   6.872  0.6672  0.3333 -0.3438
   48CHL1  H12A 3510   4.181   1.567   6.941 -0.6853 -0.8882  0.4688
   48CHL1  H12B 3511   4.044   1.530   6.821 -0.1035  0.7484 -0.0732
   48CHL1   C11 3512   4.176   1.681   6.756  0.5029  0.2798 -0.0992
   48CHL1  H11A 3513   4.239   1.764   6.795  1.8533 -0.5828 -0.3573
   48CHL1  H11B 3514   4.239   1.606   6.703 -1.0050 -0.7698 -0.4396
   48CHL1    C9 3515   4.080   1.730   6.644 -0.0833  0.6253 -0.1297
   48CHL1    H9 3516   4.020   1.640   6.620 -1.1682  1.8294 -2.2002
   48CHL1   C10 3517   4.160   1.785   6.523 -0.1922  0.5643  0.7162
   48CHL1   C19 3518   4.272   1.893   6.565  0.7677  0.7417 -0.3773
   48CHL1  H19A 3519   4.349   1.842   6.627 -0.6873 -1.4253 -0.2663
   48CHL1  H19B 3520   4.333   1.944   6.487  1.8189  2.3977  1.4155
   48CHL1  H19C 3521   4.230   1.973   6.630  0.1235  1.8419 -2.0623
   48CHL1    C1 3522   4.214   1.663   6.439 -0.4786 -0.0210 -0.6383
   48CHL1   H1A 3523   4.303   1.618   6.489 -0.0181  2.9659  1.4651
   48CHL1   H1B 3524   4.132   1.589   6.425 -0.0231 -1.0389  1.4923
   48CHL1    C2 3525   4.269   1.699   6.301  0.0999  0.4105  0.3264
   48CHL1   H2A 3526   4.273   1.604   6.244 -0.6437 -0.9181  2.3902
   48CHL1   H2B 3527   4.369   1.747   6.306  0.8390 -1.1895  2.7876
   48CHL1   C20 3528   3.928   1.609   7.176 -0.2057 -0.3919  0.0023
   48CHL1   H20 3529   3.951   1.696   7.241  0.0259 -0.5367  0.1166
   48CHL1   C21 3530   4.049   1.510   7.185  0.1729  0.1257 -0.5127
   48CHL1  H21A 3531   4.048   1.436   7.101  0.2873 -0.4217 -0.0392
   48CHL1  H21B 3532   4.058   1.458   7.283  0.9551  1.4073  0.1172
   48CHL1  H21C 3533   4.144   1.567   7.176 -0.9382  1.9837 -0.9203
   48CHL1   C22 3534   3.805   1.525   7.237  0.6690  0.2268 -0.2490
   48CHL1  H22A 3535   3.714   1.590   7.243 -0.4240 -1.2968  0.2108
   48CHL1  H22B 3536   3.777   1.455   7.156 -3.0603 -0.2713  1.2684
   48CHL1   C23 3537   3.814   1.443   7.366 -0.6661 -0.1414 -0.5891
   48CHL1  H23A 3538   3.715   1.393   7.378  0.4937 -2.3987  0.2311
   48CHL1  H23B 3539   3.894   1.366   7.364  0.9713  1.2692  2.6652
   48CHL1   C24 3540   3.841   1.530   7.491 -0.8962 -0.4199  0.4092
   48CHL1  H24A 3541   3.937   1.585   7.490 -0.2649 -1.4626 -1.7524
   48CHL1  H24B 3542   3.765   1.610   7.484  0.8120  1.2037 -0.1761
   48CHL1   C25 3543   3.827   1.449   7.623  0.0501  0.0961 -0.7176
   48CHL1   H25 3544   3.732   1.391   7.614 -0.4186 -0.0868  3.5134
   48CHL1   C26 3545   3.945   1.366   7.658 -0.4257  0.4744  0.4305
   48CHL1  H26A 3546   3.985   1.292   7.586  3.4009  2.5300  0.1481
   48CHL1  H26B 3547   4.035   1.431   7.667  0.5992 -1.1712  3.2403
   48CHL1  H26C 3548   3.930   1.314   7.755  0.4925  3.1016  2.1082
   48CHL1   C27 3549   3.794   1.544   7.741  0.1370  0.0258  0.2598
   48CHL1  H27A 3550   3.707   1.609   7.717 -0.8811 -1.6859 -0.8987
   48CHL1  H27B 3551   3.763   1.484   7.830  1.2419  0.8869  1.2516
   48CHL1  H27C 3552   3.875   1.612   7.773 -2.1141  2.5057  1.1386
   49CHL1    C3 3553   0.845   0.315   6.741 -0.5180 -0.0653 -0.6944
   49CHL1    H3 3554   0.878   0.210   6.731 -0.8796 -0.1179 -1.3563
   49CHL1    O3 3555   0.827   0.372   6.613  0.1585  0.6459 -0.5246
   49CHL1   H3' 3556   0.872   0.309   6.557  0.9558 -1.6774  2.5174
   49CHL1    C4 3557   0.711   0.330   6.823  0.0302  0.0378 -0.2883
   49CHL1   H4A 3558   0.675   0.435   6.821 -1.6503 -0.3934  2.6107
   49CHL1   H4B 3559   0.642   0.265   6.765  0.7659 -1.0918  0.0908
   49CHL1    C5 3560   0.729   0.290   6.965  0.7602 -0.2623  0.7194
   49CHL1    C6 3561   0.656   0.199   7.024 -0.0706  0.2204  0.4651
   49CHL1    H6 3562   0.567   0.152   6.980  0.2272 -1.0556  1.1851
   49CHL1    C7 3563   0.670   0.156   7.168  0.2502  0.2405  0.6130
   49CHL1   H7A 3564   0.565   0.138   7.199 -0.3736  0.0466 -1.4514
   49CHL1   H7B 3565   0.735   0.066   7.180  1.0923  0.8091  0.4463
   49CHL1    C8 3566   0.741   0.274   7.239  0.2023  0.3591  0.7790
   49CHL1    H8 3567   0.677   0.365   7.238  0.9587  0.8994  0.5534
   49CHL1   C14 3568   0.760   0.228   7.386 -0.2531  0.4380 -0.1167
   49CHL1   H14 3569   0.827   0.139   7.383 -0.7256 -0.0713  2.3006
   49CHL1   C15 3570   0.641   0.181   7.466  0.1084  0.3548 -0.2719
   49CHL1  H15A 3571   0.565   0.261   7.459 -0.1326  0.1712  0.2274
   49CHL1  H15B 3572   0.602   0.091   7.415  0.6675  0.8789 -1.6797
   49CHL1   C16 3573   0.687   0.161   7.611 -0.4089  0.2633 -0.4182
   49CHL1  H16A 3574   0.621   0.202   7.689  0.6835  0.2070  0.5583
   49CHL1  H16B 3575   0.709   0.053   7.628 -2.7912 -0.6959 -2.7060
   49CHL1   C17 3576   0.816   0.252   7.610 -0.1094  0.0681 -0.0897
   49CHL1   H17 3577   0.896   0.179   7.582 -0.6312 -0.4669 -0.2049
   49CHL1   C13 3578   0.823   0.329   7.475 -0.4290  0.1780 -1.6621
   49CHL1   C18 3579   0.732   0.452   7.495 -0.2089 -0.4817 -0.0462
   49CHL1  H18A 3580   0.709   0.503   7.399  0.1274  0.4973  0.3760
   49CHL1  H18B 3581   0.646   0.432   7.562  1.2235 -0.5722  1.8662
   49CHL1  H18C 3582   0.787   0.523   7.561 -4.7030  1.8208  1.6375
   49CHL1   C12 3583   0.966   0.351   7.418 -0.8932 -0.2285  0.2181
   49CHL1  H12A 3584   1.023   0.423   7.480  3.5433 -1.0925 -2.4518
   49CHL1  H12B 3585   1.026   0.258   7.421 -0.8648 -0.2146  0.0647
   49CHL1   C11 3586   0.958   0.398   7.274 -0.1451  0.3030 -0.0514
   49CHL1  H11A 3587   0.905   0.494   7.290  0.9324  0.6223  1.9755
   49CHL1  H11B 3588   1.055   0.399   7.219 -0.5775 -0.0027 -0.8337
   49CHL1    C9 3589   0.875   0.305   7.183  0.2703 -0.4623 -0.4459
   49CHL1    H9 3590   0.926   0.207   7.169 -0.2802 -1.0958  1.6423
   49CHL1   C10 3591   0.850   0.364   7.041  0.1131  0.8672  0.5887
   49CHL1   C19 3592   0.812   0.516   7.046 -0.1663  0.6572 -0.3623
   49CHL1  H19A 3593   0.738   0.536   7.127  2.1715  0.2408  2.0071
   49CHL1  H19B 3594   0.904   0.575   7.066  0.0494  0.2846 -0.2426
   49CHL1  H19C 3595   0.766   0.559   6.955  0.6314  0.4503 -0.8639
   49CHL1    C1 3596   0.970   0.338   6.952  0.2862  0.1204 -0.1029
   49CHL1   H1A 3597   1.063   0.381   6.997 -0.3456 -1.2050  2.7321
   49CHL1   H1B 3598   0.975   0.227   6.955 -0.2082  0.0766  3.5861
   49CHL1    C2 3599   0.963   0.385   6.809  0.3136 -0.5758 -0.1691
   49CHL1   H2A 3600   1.053   0.366   6.748  0.0885  0.7217 -0.9429
   49CHL1   H2B 3601   0.952   0.495   6.810 -0.1086 -0.6126 -0.3941
   49CHL1   C20 3602   0.838   0.306   7.753  0.0886  0.2793 -0.4391
   49CHL1   H20 3603   0.752   0.367   7.790  2.4732  3.2446  0.5626
   49CHL1   C21 3604   0.957   0.402   7.759  0.6895 -0.1608 -0.5590
   49CHL1  H21A 3605   0.949   0.469   7.671 -1.6159  0.0841 -0.2314
   49CHL1  H21B 3606   1.054   0.349   7.751  1.0002 -0.2527  2.4953
   49CHL1  H21C 3607   0.963   0.453   7.857  3.2501 -1.1139 -0.1506
   49CHL1   C22 3608   0.854   0.196   7.859 -0.5831 -0.5558 -0.4514
   49CHL1  H22A 3609   0.767   0.126   7.852 -0.9890  0.0727 -2.2070
   49CHL1  H22B 3610   0.947   0.137   7.842  0.2707  0.4847  0.4722
   49CHL1   C23 3611   0.852   0.240   8.004 -0.0873  0.8737  0.4306
   49CHL1  H23A 3612   0.954   0.278   8.025  0.8306  0.7013 -3.1938
   49CHL1  H23B 3613   0.784   0.326   8.023 -0.6361  0.1911  1.7132
   49CHL1   C24 3614   0.816   0.123   8.103 -0.4971  0.0733  0.3313
   49CHL1  H24A 3615   0.709   0.094   8.086 -0.4198 -0.3907  0.6051
   49CHL1  H24B 3616   0.886   0.039   8.082  0.1004  0.8283 -0.8053
   49CHL1   C25 3617   0.826   0.180   8.249  0.0711 -0.2443  0.0527
   49CHL1   H25 3618   0.787   0.285   8.250 -0.6587 -0.5026 -0.3185
   49CHL1   C26 3619   0.729   0.102   8.337 -0.8860  0.7485  0.2005
   49CHL1  H26A 3620   0.758  -0.005   8.344 -1.1344  0.6329 -0.4387
   49CHL1  H26B 3621   0.729   0.147   8.438 -0.2352  0.4529  0.3402
   49CHL1  H26C 3622   0.623   0.109   8.304 -0.7467 -1.8158 -1.1335
   49CHL1   C27 3623   0.974   0.176   8.302  0.6092  0.3640  0.4051
   49CHL1  H27A 3624   0.991   0.193   8.411  0.5023  0.7676  0.3592
   49CHL1  H27B 3625   1.024   0.085   8.262 -1.8338 -0.8220 -0.1437
   49CHL1  H27C 3626   1.029   0.259   8.255  0.0877 -0.4661 -1.7733
   50CHL1    C3 3627   2.340   1.775   6.706 -0.3168 -0.7406 -0.2410
   50CHL1    H3 3628   2.411   1.837   6.765 -1.7466  1.6881 -0.9269
   50CHL1    O3 3629   2.339   1.826   6.573  0.1180  0.0651  0.4884
   50CHL1   H3' 3630   2.321   1.919   6.585 -1.4119 -0.4682  2.9866
   50CHL1    C4 3631   2.372   1.628   6.699  0.1522 -0.7631  0.1625
   50CHL1   H4A 3632   2.296   1.576   6.638  0.3267  1.1980 -1.8559
   50CHL1   H4B 3633   2.465   1.614   6.641  0.9181 -0.7445  1.3418
   50CHL1    C5 3634   2.387   1.570   6.839  0.7049  0.6835 -0.4583
   50CHL1    C6 3635   2.505   1.526   6.878 -0.7030 -0.0955 -0.7239
   50CHL1    H6 3636   2.588   1.524   6.805  0.6033 -1.3380  0.7316
   50CHL1    C7 3637   2.536   1.479   7.015 -0.5400  0.5246 -0.1281
   50CHL1   H7A 3638   2.609   1.395   7.015 -0.1638  0.8525 -0.2558
   50CHL1   H7B 3639   2.580   1.570   7.061  0.6224  0.3222 -0.7969
   50CHL1    C8 3640   2.401   1.445   7.090 -0.5837 -0.2957 -0.3206
   50CHL1    H8 3641   2.368   1.349   7.045 -4.5348 -0.9923  3.4229
   50CHL1   C14 3642   2.425   1.422   7.238 -0.6650  0.1721 -0.5088
   50CHL1   H14 3643   2.459   1.519   7.281 -2.1817  0.6328 -0.3105
   50CHL1   C15 3644   2.537   1.318   7.268 -0.3399 -0.1043 -0.3966
   50CHL1  H15A 3645   2.534   1.233   7.196  0.8496 -1.4357  1.0624
   50CHL1  H15B 3646   2.633   1.371   7.251  0.5030 -1.1551  0.9371
   50CHL1   C16 3647   2.505   1.276   7.411 -0.7474 -0.2782  0.2374
   50CHL1  H16A 3648   2.466   1.172   7.417 -2.3254  0.3595  2.4346
   50CHL1  H16B 3649   2.589   1.299   7.480 -1.0438 -2.0563  1.2590
   50CHL1   C17 3650   2.392   1.369   7.463  0.1386 -0.3277  0.7996
   50CHL1   H17 3651   2.444   1.464   7.488 -0.6758  0.1928  0.5835
   50CHL1   C13 3652   2.308   1.388   7.327 -0.2112 -0.4366  0.1318
   50CHL1   C18 3653   2.235   1.256   7.280  0.2278 -0.1789 -0.2480
   50CHL1  H18A 3654   2.297   1.166   7.303  0.3479  0.3319  1.5756
   50CHL1  H18B 3655   2.145   1.242   7.342  0.2843 -1.2396 -0.3776
   50CHL1  H18C 3656   2.209   1.247   7.172 -0.6586 -1.6630  0.0649
   50CHL1   C12 3657   2.212   1.505   7.307  0.1255 -0.5927 -0.3769
   50CHL1  H12A 3658   2.114   1.485   7.355  0.4370 -0.7476  0.2037
   50CHL1  H12B 3659   2.258   1.601   7.339  0.3780 -0.1904 -1.9124
   50CHL1   C11 3660   2.170   1.534   7.164  0.4267  0.1737 -0.5918
   50CHL1  H11A 3661   2.109   1.446   7.136 -2.9925  1.3275  2.5026
   50CHL1  H11B 3662   2.093   1.614   7.167  1.7279  1.4932  2.6671
   50CHL1    C9 3663   2.294   1.559   7.080 -0.5053  0.8097  0.2351
   50CHL1    H9 3664   2.345   1.653   7.109 -0.4220  0.4282  1.3578
   50CHL1   C10 3665   2.260   1.586   6.929  0.5909 -0.2411  0.3336
   50CHL1   C19 3666   2.159   1.476   6.879  0.5945 -0.1542 -1.0798
   50CHL1  H19A 3667   2.136   1.493   6.772  0.0815  0.7338 -0.8395
   50CHL1  H19B 3668   2.204   1.378   6.906  3.5005  1.3515  0.0042
   50CHL1  H19C 3669   2.062   1.482   6.933  1.6089  3.9426  0.6562
   50CHL1    C1 3670   2.201   1.725   6.912 -0.0197  0.3480  0.8122
   50CHL1   H1A 3671   2.098   1.725   6.953 -0.0455 -3.0071  0.9713
   50CHL1   H1B 3672   2.260   1.798   6.971 -0.5491  0.4269  1.2490
   50CHL1    C2 3673   2.202   1.791   6.771  0.1101 -1.0195  0.3687
   50CHL1   H2A 3674   2.174   1.898   6.780 -0.2433 -0.9928 -0.8756
   50CHL1   H2B 3675   2.118   1.748   6.712 -2.7753  0.9383  2.7157
   50CHL1   C20 3676   2.309   1.319   7.580 -0.7630  0.8248  0.3185
   50CHL1   H20 3677   2.234   1.244   7.550  0.4158 -0.2709  0.0171
   50CHL1   C21 3678   2.249   1.441   7.639 -0.5730 -0.3738 -0.2660
   50CHL1  H21A 3679   2.193   1.497   7.562  2.3077  2.0770 -0.7471
   50CHL1  H21B 3680   2.315   1.517   7.686 -0.2320  0.4538 -1.9935
   50CHL1  H21C 3681   2.180   1.410   7.721  3.1248 -1.6638  2.6419
   50CHL1   C22 3682   2.401   1.245   7.678 -0.3451  0.0458 -0.5833
   50CHL1  H22A 3683   2.444   1.154   7.630 -1.7830 -0.4894 -0.9367
   50CHL1  H22B 3684   2.494   1.300   7.704 -0.9272 -0.6635  3.5767
   50CHL1   C23 3685   2.345   1.196   7.809 -0.4187 -0.2670 -0.3123
   50CHL1  H23A 3686   2.326   1.285   7.873 -0.1102 -0.5128  0.1194
   50CHL1  H23B 3687   2.250   1.142   7.786  1.0852 -1.6586 -4.0785
   50CHL1   C24 3688   2.440   1.105   7.888 -0.3092  0.0396  0.5477
   50CHL1  H24A 3689   2.452   1.008   7.836  0.1791 -0.1108  0.9352
   50CHL1  H24B 3690   2.538   1.153   7.909  0.7756 -2.0760  0.6130
   50CHL1   C25 3691   2.370   1.068   8.018 -0.5324  0.6133 -0.3698
   50CHL1   H25 3692   2.369   1.165   8.073 -0.2894  1.6632 -2.1556
   50CHL1   C26 3693   2.222   1.013   8.018 -0.4909 -0.2454 -0.3733
   50CHL1  H26A 3694   2.200   0.958   8.112  0.6764 -0.6687 -0.3311
   50CHL1  H26B 3695   2.155   1.099   7.996  0.3309  0.3740 -0.4861
   50CHL1  H26C 3696   2.213   0.938   7.936 -1.4888 -2.6301  1.7751
   50CHL1   C27 3697   2.454   0.978   8.108 -0.2031  0.0867 -0.2494
   50CHL1  H27A 3698   2.455   0.871   8.079  0.5421 -0.3309  1.2149
   50CHL1  H27B 3699   2.559   1.012   8.095 -0.6634  0.8033 -2.6085
   50CHL1  H27C 3700   2.434   0.969   8.217  0.8731 -1.9897 -0.1719
   51CHL1    C3 3701   1.499   3.677   6.973 -0.5705 -0.0044  0.3621
   51CHL1    H3 3702   1.531   3.767   7.029  0.0246 -0.8769  1.4517
   51CHL1    O3 3703   1.495   3.695   6.825  0.4441  0.0962  0.0876
   51CHL1   H3' 3704   1.560   3.636   6.787  0.8671  0.9277 -0.4909
   51CHL1    C4 3705   1.601   3.551   7.004 -0.0428 -0.4249  0.3258
   51CHL1   H4A 3706   1.556   3.469   6.943  1.0699 -0.0852 -0.9998
   51CHL1   H4B 3707   1.692   3.581   6.947 -1.6099 -0.9872 -2.7024
   51CHL1    C5 3708   1.601   3.511   7.146 -0.8941  0.8625 -0.5752
   51CHL1    C6 3709   1.714   3.507   7.225  0.1877 -0.9105  0.1236
   51CHL1    H6 3710   1.806   3.538   7.174 -0.7581 -1.9752 -2.3818
   51CHL1    C7 3711   1.712   3.488   7.379 -0.1417 -0.9368  0.2508
   51CHL1   H7A 3712   1.813   3.456   7.413  0.2223 -0.2290 -0.1266
   51CHL1   H7B 3713   1.717   3.589   7.425 -0.7543  0.5039 -2.5923
   51CHL1    C8 3714   1.591   3.409   7.423 -0.0878 -0.0941  0.4087
   51CHL1    H8 3715   1.599   3.307   7.379  0.2521  0.3001 -0.4902
   51CHL1   C14 3716   1.585   3.408   7.574 -0.1221  0.2480 -0.6400
   51CHL1   H14 3717   1.573   3.512   7.610 -1.8725 -0.1763  0.0904
   51CHL1   C15 3718   1.710   3.351   7.655  0.0780  0.3251 -0.0525
   51CHL1  H15A 3719   1.753   3.262   7.604 -0.7011  0.3988 -0.8872
   51CHL1  H15B 3720   1.779   3.438   7.662  0.1956  0.2151  0.1582
   51CHL1   C16 3721   1.659   3.317   7.795 -0.1306  0.5031  0.2009
   51CHL1  H16A 3722   1.689   3.212   7.813  0.4305  0.8468  1.3592
   51CHL1  H16B 3723   1.703   3.361   7.887  1.7671 -2.3083  0.7880
   51CHL1   C17 3724   1.504   3.339   7.784  0.3344  0.3011 -0.2151
   51CHL1   H17 3725   1.488   3.447   7.805  0.2328  0.2492 -0.0251
   51CHL1   C13 3726   1.467   3.327   7.632  0.1095  0.3301 -0.7793
   51CHL1   C18 3727   1.468   3.176   7.593 -0.3967  0.2014  0.1063
   51CHL1  H18A 3728   1.374   3.123   7.622 -1.0137  1.2882  0.1430
   51CHL1  H18B 3729   1.461   3.166   7.483 -0.7515  0.8385  0.0712
   51CHL1  H18C 3730   1.555   3.119   7.633 -0.9905 -0.3120  0.7156
   51CHL1   C12 3731   1.342   3.408   7.579  0.5502  0.5561 -0.2768
   51CHL1  H12A 3732   1.248   3.357   7.608  0.3091  0.1784 -1.6347
   51CHL1  H12B 3733   1.347   3.508   7.627  2.6601  0.3795  0.0021
   51CHL1   C11 3734   1.331   3.419   7.423 -0.1336 -0.7561 -0.4293
   51CHL1  H11A 3735   1.332   3.313   7.390  1.2256 -0.5449 -1.1117
   51CHL1  H11B 3736   1.239   3.475   7.398 -0.2244  0.0657  1.5224
   51CHL1    C9 3737   1.462   3.478   7.361  0.0801  0.7004 -0.1856
   51CHL1    H9 3738   1.462   3.583   7.396  0.8396  1.3102 -1.8934
   51CHL1   C10 3739   1.458   3.488   7.204  0.1344  0.0845  0.4096
   51CHL1   C19 3740   1.414   3.361   7.132 -0.5731  0.1418 -0.0272
   51CHL1  H19A 3741   1.306   3.343   7.152 -0.5188  0.5817  0.7088
   51CHL1  H19B 3742   1.432   3.353   7.023 -0.9168  0.6530 -0.1265
   51CHL1  H19C 3743   1.457   3.274   7.186  0.8933  0.5446 -0.5218
   51CHL1    C1 3744   1.364   3.603   7.168 -0.1588  1.1173  0.8492
   51CHL1   H1A 3745   1.256   3.581   7.188 -0.6088 -2.1141 -3.5727
   51CHL1   H1B 3746   1.393   3.699   7.214  1.0649  0.6854  1.0023
   51CHL1    C2 3747   1.358   3.628   7.018  0.2967 -0.3609  0.5167
   51CHL1   H2A 3748   1.286   3.709   6.993 -0.7370 -0.9066  1.6342
   51CHL1   H2B 3749   1.328   3.533   6.969  0.7250  0.4741 -1.4571
   51CHL1   C20 3750   1.433   3.254   7.888  0.3598 -0.2878 -0.8408
   51CHL1   H20 3751   1.438   3.149   7.854  1.0777 -0.5833  0.1320
   51CHL1   C21 3752   1.285   3.288   7.896  0.2723 -0.1111 -0.2233
   51CHL1  H21A 3753   1.243   3.256   7.994 -1.4293  1.3978 -0.4051
   51CHL1  H21B 3754   1.225   3.228   7.825  2.4726 -1.3938 -1.1079
   51CHL1  H21C 3755   1.268   3.397   7.884 -0.7077 -0.4126 -1.9173
   51CHL1   C22 3756   1.499   3.270   8.029 -0.2525 -0.0816  0.0631
   51CHL1  H22A 3757   1.436   3.202   8.090  0.0218 -1.5835 -1.2530
   51CHL1  H22B 3758   1.606   3.241   8.031 -0.9666 -3.4240 -1.4968
   51CHL1   C23 3759   1.497   3.414   8.088 -0.2546 -0.5534 -0.3558
   51CHL1  H23A 3760   1.542   3.484   8.014 -1.3476  1.6371  0.9262
   51CHL1  H23B 3761   1.391   3.443   8.107  0.4513  1.7758  0.4037
   51CHL1   C24 3762   1.570   3.422   8.229  0.8783 -0.5477  0.1490
   51CHL1  H24A 3763   1.675   3.393   8.208  0.7082  0.0544 -1.7372
   51CHL1  H24B 3764   1.582   3.529   8.256 -2.0500 -0.4728  1.6029
   51CHL1   C25 3765   1.510   3.333   8.342  0.4051  0.2755 -0.4452
   51CHL1   H25 3766   1.518   3.223   8.325  0.0188  0.3658 -1.2359
   51CHL1   C26 3767   1.581   3.353   8.473 -0.3024  0.3685  0.0023
   51CHL1  H26A 3768   1.531   3.303   8.559 -1.6424 -0.5445 -1.2466
   51CHL1  H26B 3769   1.680   3.304   8.456 -0.6952 -0.0760 -1.1252
   51CHL1  H26C 3770   1.602   3.461   8.490  0.7712  0.1073  0.4532
   51CHL1   C27 3771   1.366   3.365   8.369 -0.2632 -0.7545 -0.3031
   51CHL1  H27A 3772   1.324   3.321   8.463 -2.7010  0.2668 -0.8266
   51CHL1  H27B 3773   1.365   3.475   8.387  1.3854 -0.7052 -0.4141
   51CHL1  H27C 3774   1.299   3.335   8.285  0.8131  1.2204 -1.9382
   52CHL1    C3 3775   4.668   2.096   6.844  0.0682 -0.0464  0.4417
   52CHL1    H3 3776   4.592   2.172   6.817  0.3361 -1.1592 -4.4428
   52CHL1    O3 3777   4.756   2.098   6.734 -0.6351  0.5793  0.4302
   52CHL1   H3' 3778   4.820   2.028   6.751  0.7375  1.8943  0.8599
   52CHL1    C4 3779   4.743   2.126   6.968  0.0277 -0.0055  0.4099
   52CHL1   H4A 3780   4.830   2.057   6.966  0.7327  0.8713 -1.6871
   52CHL1   H4B 3781   4.768   2.234   6.974 -3.3351  1.1103 -2.1498
   52CHL1    C5 3782   4.659   2.113   7.096  0.0804 -0.3712  0.5304
   52CHL1    C6 3783   4.647   2.205   7.190 -0.1597 -0.8216 -0.0260
   52CHL1    H6 3784   4.702   2.301   7.184  0.6489 -1.3658 -3.2840
   52CHL1    C7 3785   4.571   2.175   7.320  0.1577 -0.6185 -0.1182
   52CHL1   H7A 3786   4.631   2.223   7.400 -1.6494  1.9782 -0.1800
   52CHL1   H7B 3787   4.475   2.231   7.318  1.3438  1.5711  0.5737
   52CHL1    C8 3788   4.553   2.026   7.349  0.2843  0.0438 -0.0053
   52CHL1    H8 3789   4.646   1.977   7.385 -2.0452 -2.6718  2.8067
   52CHL1   C14 3790   4.448   2.023   7.462  0.1271  0.1720  0.6219
   52CHL1   H14 3791   4.353   2.058   7.417  0.6961  0.4811 -0.3705
   52CHL1   C15 3792   4.479   2.102   7.591 -0.6878 -0.2851  0.1225
   52CHL1  H15A 3793   4.581   2.077   7.626 -0.6437 -0.3749 -0.0684
   52CHL1  H15B 3794   4.485   2.213   7.584  1.9861 -0.4333 -0.9940
   52CHL1   C16 3795   4.382   2.043   7.702 -0.5661  0.2024  1.0458
   52CHL1  H16A 3796   4.446   2.013   7.788  2.5228 -0.1498 -1.1893
   52CHL1  H16B 3797   4.304   2.116   7.733 -2.8159 -1.1966 -0.9435
   52CHL1   C17 3798   4.312   1.917   7.635  0.3302  0.1793 -0.1643
   52CHL1   H17 3799   4.216   1.952   7.591  1.0334  0.3437 -1.6527
   52CHL1   C13 3800   4.406   1.884   7.514 -0.4078  0.2089 -0.2496
   52CHL1   C18 3801   4.532   1.807   7.567 -0.2036 -0.0309  0.6237
   52CHL1  H18A 3802   4.623   1.820   7.504  0.4260 -0.2693  1.4681
   52CHL1  H18B 3803   4.562   1.850   7.665  0.3440 -0.8216  0.8035
   52CHL1  H18C 3804   4.516   1.698   7.580  2.6173 -0.3846  1.7583
   52CHL1   C12 3805   4.340   1.823   7.381  0.4598  0.2560 -0.9307
   52CHL1  H12A 3806   4.302   1.719   7.390 -1.2098  0.9862  1.1152
   52CHL1  H12B 3807   4.243   1.873   7.360 -0.4483 -0.0665  2.0707
   52CHL1   C11 3808   4.433   1.818   7.260 -0.5938 -0.8010 -0.1774
   52CHL1  H11A 3809   4.510   1.738   7.270  0.2575 -0.4930 -3.2778
   52CHL1  H11B 3810   4.389   1.778   7.166  0.2138  0.4732 -1.1364
   52CHL1    C9 3811   4.494   1.964   7.229 -0.1364  0.0580  0.2145
   52CHL1    H9 3812   4.410   2.032   7.206 -0.4649 -0.9636 -1.8009
   52CHL1   C10 3813   4.590   1.970   7.109  0.1713  0.1157  0.6868
   52CHL1   C19 3814   4.695   1.863   7.122 -0.3935  0.3301  1.0053
   52CHL1  H19A 3815   4.760   1.850   7.033  1.2437  0.3501  2.1446
   52CHL1  H19B 3816   4.762   1.874   7.210 -0.3635  1.3585  0.8665
   52CHL1  H19C 3817   4.652   1.761   7.124 -0.1121  0.2120  1.1827
   52CHL1    C1 3818   4.512   1.941   6.976  0.8941  0.4833  0.3005
   52CHL1   H1A 3819   4.466   1.840   6.975 -0.0753  0.8701  1.7840
   52CHL1   H1B 3820   4.428   2.014   6.976  1.9958  1.7988 -0.3560
   52CHL1    C2 3821   4.588   1.972   6.845 -0.4134 -0.2114  0.0628
   52CHL1   H2A 3822   4.512   1.971   6.765  0.2194 -1.7017 -0.5613
   52CHL1   H2B 3823   4.649   1.881   6.823  0.6857  0.5849 -0.2573
   52CHL1   C20 3824   4.286   1.802   7.739  0.3781  1.1697  0.0582
   52CHL1   H20 3825   4.381   1.764   7.783  0.1537  0.4201 -0.0793
   52CHL1   C21 3826   4.230   1.674   7.672 -0.4234 -1.1242  0.1345
   52CHL1  H21A 3827   4.300   1.645   7.590  3.2174 -1.1433  3.0011
   52CHL1  H21B 3828   4.129   1.694   7.631 -0.2763 -0.4164  0.1195
   52CHL1  H21C 3829   4.221   1.585   7.738 -0.3380 -0.2451  1.3474
   52CHL1   C22 3830   4.203   1.848   7.861 -1.0144 -0.2332  0.4390
   52CHL1  H22A 3831   4.122   1.911   7.819  0.6200  1.7088  0.0486
   52CHL1  H22B 3832   4.155   1.759   7.907  0.4833  0.4277  3.5589
   52CHL1   C23 3833   4.276   1.929   7.967  0.2597 -0.1507 -0.3493
   52CHL1  H23A 3834   4.377   1.885   7.977  0.5159  0.1068 -1.6742
   52CHL1  H23B 3835   4.289   2.036   7.943  2.7377 -0.5161 -0.8537
   52CHL1   C24 3836   4.209   1.924   8.103  0.8106 -0.1802 -0.4715
   52CHL1  H24A 3837   4.115   1.980   8.089  2.1465  2.4094  0.2909
   52CHL1  H24B 3838   4.189   1.817   8.129  0.3505 -0.0117 -0.1331
   52CHL1   C25 3839   4.286   1.976   8.230  0.1895 -0.0784  0.2084
   52CHL1   H25 3840   4.385   1.926   8.228  0.3729  0.2888 -1.0883
   52CHL1   C26 3841   4.313   2.124   8.235 -0.2203 -0.3828 -0.4167
   52CHL1  H26A 3842   4.372   2.159   8.323 -3.5151  0.6033  1.5540
   52CHL1  H26B 3843   4.363   2.149   8.138  0.5120 -0.7423 -0.1432
   52CHL1  H26C 3844   4.213   2.172   8.239  0.2510  0.6798 -0.9668
   52CHL1   C27 3845   4.208   1.925   8.358 -0.1230 -0.1313  0.0488
   52CHL1  H27A 3846   4.215   1.815   8.364  0.3535 -0.1399 -0.6284
   52CHL1  H27B 3847   4.255   1.960   8.453 -0.9780  0.7361  0.1758
   52CHL1  H27C 3848   4.101   1.956   8.357  0.5353  2.3293 -0.4370
   53CHL1    C3 3849   3.860   5.811   7.141  0.0536  0.7310  0.1990
   53CHL1    H3 3850   3.952   5.873   7.146  1.8756 -1.7637 -0.5745
   53CHL1    O3 3851   3.821   5.783   7.008  0.2509 -0.4069  0.0208
   53CHL1   H3' 3852   3.740   5.738   7.034  0.0958 -0.1761 -0.0689
   53CHL1    C4 3853   3.886   5.676   7.211 -0.1420 -1.1032 -0.4907
   53CHL1   H4A 3854   3.799   5.608   7.205 -0.8081 -0.2575 -0.6118
   53CHL1   H4B 3855   3.973   5.632   7.156  2.5220  1.8429  1.0290
   53CHL1    C5 3856   3.928   5.709   7.354  0.6621  0.1278  0.2211
   53CHL1    C6 3857   4.042   5.664   7.405  0.1702 -0.4918 -0.4649
   53CHL1    H6 3858   4.102   5.590   7.350 -1.0275 -0.5804 -1.6960
   53CHL1    C7 3859   4.092   5.691   7.545 -0.3724  0.4855 -0.1723
   53CHL1   H7A 3860   4.131   5.597   7.590 -3.7413 -0.4958  0.9916
   53CHL1   H7B 3861   4.180   5.759   7.536 -0.6253  0.8275 -0.0851
   53CHL1    C8 3862   3.975   5.733   7.635  0.6640 -0.6073  0.4125
   53CHL1    H8 3863   3.918   5.639   7.646  1.2587 -1.0039  0.1472
   53CHL1   C14 3864   4.021   5.779   7.766 -0.7885 -0.9796 -0.9471
   53CHL1   H14 3865   4.078   5.871   7.740 -0.5994 -0.2162  1.8204
   53CHL1   C15 3866   4.124   5.701   7.859 -0.5883 -0.1310 -0.2360
   53CHL1  H15A 3867   4.096   5.594   7.860  1.0390 -0.5936 -0.0457
   53CHL1  H15B 3868   4.231   5.714   7.832 -0.6022 -0.2311 -0.3415
   53CHL1   C16 3869   4.102   5.771   8.001 -0.3296  0.0735 -0.1809
   53CHL1  H16A 3870   4.076   5.692   8.075 -1.2250  1.6120  1.1844
   53CHL1  H16B 3871   4.188   5.835   8.028 -0.9287  0.7757  0.0752
   53CHL1   C17 3872   3.991   5.872   7.979 -0.0281 -0.0643 -0.8257
   53CHL1   H17 3873   4.036   5.967   7.945 -0.5939  0.7759  0.6481
   53CHL1   C13 3874   3.913   5.832   7.855  0.0993 -0.7186  0.0282
   53CHL1   C18 3875   3.820   5.714   7.879  0.3733 -0.0809 -0.0152
   53CHL1  H18A 3876   3.770   5.677   7.787  1.1156 -3.0594  0.6923
   53CHL1  H18B 3877   3.874   5.620   7.903 -1.6819 -2.4801 -3.6795
   53CHL1  H18C 3878   3.744   5.721   7.960  2.9872  0.6125  2.5150
   53CHL1   C12 3879   3.839   5.956   7.788 -0.5215 -0.6613 -0.1534
   53CHL1  H12A 3880   3.765   6.013   7.848  0.2994 -0.6154  0.8384
   53CHL1  H12B 3881   3.921   6.020   7.749 -1.5606 -0.4370 -2.0821
   53CHL1   C11 3882   3.772   5.909   7.659 -0.4926 -0.0734  0.2828
   53CHL1  H11A 3883   3.691   5.838   7.686  0.0855 -0.9042 -0.1099
   53CHL1  H11B 3884   3.722   5.994   7.607  0.2196  1.1601  1.5399
   53CHL1    C9 3885   3.875   5.839   7.566 -0.7211 -0.5061  0.1878
   53CHL1    H9 3886   3.952   5.917   7.544  1.5266 -2.1496  1.7228
   53CHL1   C10 3887   3.825   5.791   7.436 -0.6210 -0.0396 -0.1220
   53CHL1   C19 3888   3.705   5.696   7.461 -0.1439  0.6298 -0.7472
   53CHL1  H19A 3889   3.727   5.598   7.508  0.0296  0.9598 -0.1282
   53CHL1  H19B 3890   3.623   5.742   7.520  1.8794  1.2218  1.7639
   53CHL1  H19C 3891   3.663   5.663   7.364 -0.1975 -0.6520 -0.3135
   53CHL1    C1 3892   3.777   5.914   7.347  0.4287  1.1509  0.1355
   53CHL1   H1A 3893   3.691   5.950   7.407  2.1975  0.8861  3.0186
   53CHL1   H1B 3894   3.859   5.989   7.341  0.3031  1.5270  2.4868
   53CHL1    C2 3895   3.746   5.876   7.201 -0.0300 -0.0742  0.7324
   53CHL1   H2A 3896   3.729   5.974   7.152  2.4271 -0.6321 -1.5094
   53CHL1   H2B 3897   3.656   5.812   7.185 -0.4239  0.9020 -1.3025
   53CHL1   C20 3898   3.922   5.917   8.107  0.1344  0.2623  0.1956
   53CHL1   H20 3899   3.826   5.964   8.075 -1.8335 -3.5237  0.0370
   53CHL1   C21 3900   4.023   6.021   8.168 -0.1442 -0.4821  0.3618
   53CHL1  H21A 3901   4.040   6.110   8.103 -1.8348  0.6918  1.4357
   53CHL1  H21B 3902   4.120   5.968   8.184  0.8474  1.8974  3.1068
   53CHL1  H21C 3903   3.985   6.062   8.264  0.0856  0.5402  0.0285
   53CHL1   C22 3904   3.874   5.803   8.207  0.0466  0.5791  0.2546
   53CHL1  H22A 3905   3.824   5.716   8.158  1.9764  0.3913 -1.5264
   53CHL1  H22B 3906   3.964   5.775   8.266  0.2199  0.3374 -0.1266
   53CHL1   C23 3907   3.757   5.851   8.302 -0.7318  0.5647 -0.0735
   53CHL1  H23A 3908   3.791   5.943   8.353  0.0799  0.5408 -0.5526
   53CHL1  H23B 3909   3.688   5.883   8.221  1.3484  2.4610 -1.2181
   53CHL1   C24 3910   3.703   5.749   8.401  0.1820  0.6318  0.5455
   53CHL1  H24A 3911   3.600   5.786   8.416  0.0853  1.1473 -1.2233
   53CHL1  H24B 3912   3.709   5.648   8.354  0.5127 -0.4733  2.8218
   53CHL1   C25 3913   3.770   5.741   8.544 -0.3055 -0.2136  1.3470
   53CHL1   H25 3914   3.879   5.732   8.526 -0.0396 -1.3724  3.1896
   53CHL1   C26 3915   3.740   5.865   8.626 -0.4307 -0.3836  0.4668
   53CHL1  H26A 3916   3.771   5.962   8.583  0.7985 -0.6155  0.7936
   53CHL1  H26B 3917   3.633   5.872   8.656 -0.0084  0.2495  1.9406
   53CHL1  H26C 3918   3.798   5.863   8.721 -1.4023  1.0015  1.1347
   53CHL1   C27 3919   3.719   5.618   8.616 -0.0325  0.1293 -0.6223
   53CHL1  H27A 3920   3.608   5.626   8.625 -0.0948 -1.0468 -0.2803
   53CHL1  H27B 3921   3.743   5.521   8.568  0.9742  0.8783 -1.6902
   53CHL1  H27C 3922   3.760   5.614   8.719 -2.0379 -1.8577  0.1871
   54CHL1    C3 3923   0.578   5.746   7.090  0.5293  0.3261  0.4606
   54CHL1    H3 3924   0.635   5.669   7.145 -1.1578 -0.9786  0.4747
   54CHL1    O3 3925   0.573   5.710   6.950  0.2407  0.0998  0.2028
   54CHL1   H3' 3926   0.520   5.630   6.953 -1.4646  1.2327  1.5603
   54CHL1    C4 3927   0.439   5.754   7.154  0.8133  0.4827  0.0272
   54CHL1   H4A 3928   0.386   5.835   7.099 -0.9523  0.5716  1.7492
   54CHL1   H4B 3929   0.380   5.662   7.138  0.1177  0.6448  1.4789
   54CHL1    C5 3930   0.449   5.795   7.299 -0.3584 -0.4230 -0.0378
   54CHL1    C6 3931   0.398   5.731   7.401 -0.0199 -0.5574 -0.5225
   54CHL1    H6 3932   0.348   5.634   7.387 -1.9534  0.2846  0.2160
   54CHL1    C7 3933   0.398   5.764   7.549  0.0044  0.9516 -0.1944
   54CHL1   H7A 3934   0.296   5.758   7.594  0.0726  1.2356  0.0041
   54CHL1   H7B 3935   0.470   5.702   7.606 -0.7982 -1.9087 -2.0614
   54CHL1    C8 3936   0.431   5.913   7.567  0.2789 -0.8141 -0.2717
   54CHL1    H8 3937   0.342   5.975   7.544 -0.1070 -1.1940  0.1888
   54CHL1   C14 3938   0.482   5.927   7.716  0.2060 -0.1030  0.1436
   54CHL1   H14 3939   0.574   5.866   7.713 -0.3093 -0.8890 -0.3342
   54CHL1   C15 3940   0.396   5.863   7.827 -0.3604 -0.3241  0.2808
   54CHL1  H15A 3941   0.286   5.867   7.812 -0.4778  1.4129  1.3990
   54CHL1  H15B 3942   0.417   5.754   7.823  0.0416 -0.2205 -1.8010
   54CHL1   C16 3943   0.440   5.935   7.954 -0.0966  0.0106  0.6299
   54CHL1  H16A 3944   0.349   5.987   7.993  1.6534  3.0702  0.9895
   54CHL1  H16B 3945   0.474   5.872   8.038 -0.9531 -1.7411 -0.2784
   54CHL1   C17 3946   0.548   6.040   7.908  0.3153  0.2834  0.7845
   54CHL1   H17 3947   0.636   5.973   7.904  1.1168  1.3927 -2.0824
   54CHL1   C13 3948   0.523   6.065   7.760 -0.0862 -0.0742  0.3966
   54CHL1   C18 3949   0.395   6.155   7.747 -1.1195 -0.9757 -0.4397
   54CHL1  H18A 3950   0.394   6.243   7.815  1.4684 -1.7511  0.6903
   54CHL1  H18B 3951   0.380   6.216   7.655  1.1409  1.9125  0.9432
   54CHL1  H18C 3952   0.306   6.105   7.791 -0.3342 -2.1617 -0.1692
   54CHL1   C12 3953   0.641   6.114   7.672  0.4908  0.3852 -0.3139
   54CHL1  H12A 3954   0.666   6.221   7.687 -1.0412  0.8692 -1.0388
   54CHL1  H12B 3955   0.725   6.046   7.698 -1.7195 -2.3083  0.2880
   54CHL1   C11 3956   0.611   6.099   7.520  0.0111 -0.3254 -0.4678
   54CHL1  H11A 3957   0.548   6.187   7.492 -0.5232 -0.2346  0.9115
   54CHL1  H11B 3958   0.708   6.111   7.468  0.4910  0.2363  0.5332
   54CHL1    C9 3959   0.546   5.958   7.479 -0.1018 -0.2171  0.2405
   54CHL1    H9 3960   0.630   5.890   7.505  0.0702  0.2593  0.9686
   54CHL1   C10 3961   0.520   5.931   7.328  0.0527 -0.0309 -0.4186
   54CHL1   C19 3962   0.444   6.048   7.275  0.8001  0.0432 -0.3276
   54CHL1  H19A 3963   0.499   6.144   7.281 -0.2769  0.7441 -1.1355
   54CHL1  H19B 3964   0.418   6.037   7.167  0.6350 -0.6740 -0.2215
   54CHL1  H19C 3965   0.345   6.060   7.325  0.8484  0.4411 -0.3260
   54CHL1    C1 3966   0.650   5.925   7.253 -0.0616  0.3210  0.1918
   54CHL1   H1A 3967   0.699   6.024   7.255  1.2976 -0.3462  0.8114
   54CHL1   H1B 3968   0.715   5.859   7.313  1.1952  2.6063  1.4635
   54CHL1    C2 3969   0.656   5.881   7.102  0.0170  0.2865  0.3590
   54CHL1   H2A 3970   0.757   5.856   7.063 -0.9390 -3.7632 -0.0058
   54CHL1   H2B 3971   0.607   5.959   7.040  2.2348 -0.1726 -2.1936
   54CHL1   C20 3972   0.588   6.148   8.011  0.4237 -0.1262 -0.0837
   54CHL1   H20 3973   0.592   6.247   7.962  0.6117 -0.3880 -0.5988
   54CHL1   C21 3974   0.725   6.110   8.067  0.5200 -0.2787  0.1841
   54CHL1  H21A 3975   0.767   6.190   8.131 -2.1665  2.6702 -1.4335
   54CHL1  H21B 3976   0.807   6.094   7.994  2.3333  2.7486  1.3567
   54CHL1  H21C 3977   0.714   6.021   8.132 -1.8208 -0.2747 -0.1373
   54CHL1   C22 3978   0.486   6.161   8.131  0.1409 -0.8494 -0.5384
   54CHL1  H22A 3979   0.391   6.183   8.078  0.8985  1.6763 -0.9692
   54CHL1  H22B 3980   0.477   6.074   8.200  0.4517  0.4508  1.2027
   54CHL1   C23 3981   0.493   6.292   8.223 -0.3552 -0.0976  0.1864
   54CHL1  H23A 3982   0.572   6.260   8.294  1.4854  3.3317 -0.1002
   54CHL1  H23B 3983   0.546   6.367   8.161  1.2499 -1.8204 -0.6355
   54CHL1   C24 3984   0.363   6.338   8.278  0.3472  0.0087  0.6856
   54CHL1  H24A 3985   0.298   6.372   8.195  2.1143  1.8856 -0.0132
   54CHL1  H24B 3986   0.308   6.252   8.321 -2.1314 -0.8374 -3.6222
   54CHL1   C25 3987   0.384   6.453   8.380  0.1878  0.0864 -0.0258
   54CHL1   H25 3988   0.432   6.537   8.325 -0.1315  0.6370  0.5213
   54CHL1   C26 3989   0.251   6.514   8.414  0.6384 -0.5666  0.4770
   54CHL1  H26A 3990   0.280   6.591   8.489 -0.6568  0.0338  0.3842
   54CHL1  H26B 3991   0.204   6.549   8.320  0.2450 -3.5424 -0.5465
   54CHL1  H26C 3992   0.190   6.430   8.454  0.8885 -1.7334 -1.4922
   54CHL1   C27 3993   0.458   6.411   8.502  0.1728 -0.8491  0.4939
   54CHL1  H27A 3994   0.421   6.317   8.550 -1.8673  1.2991  3.5796
   54CHL1  H27B 3995   0.564   6.399   8.472 -0.3312  1.7815 -2.8251
   54CHL1  H27C 3996   0.443   6.497   8.571  1.4132  1.4516 -1.9320
   55CHL1    C3 3997   5.749   4.042   6.875  0.3064 -0.1671 -0.4202
   55CHL1    H3 3998   5.740   3.931   6.878  1.1186 -0.2202  1.2131
   55CHL1    O3 3999   5.783   4.084   6.741  0.5613  1.5180  0.0003
   55CHL1   H3' 4000   5.852   4.148   6.761  2.0952  0.7799 -2.5115
   55CHL1    C4 4001   5.623   4.101   6.928  0.3623 -0.4509  0.1460
   55CHL1   H4A 4002   5.615   4.211   6.915 -0.7626 -0.5707 -0.2875
   55CHL1   H4B 4003   5.539   4.063   6.866  1.1651 -0.4745 -0.9547
   55CHL1    C5 4004   5.605   4.061   7.068 -0.1310 -0.1073  0.2047
   55CHL1    C6 4005   5.490   4.009   7.103 -0.2855 -0.2592 -0.0194
   55CHL1    H6 4006   5.413   4.003   7.024 -0.9615  3.8199  0.1335
   55CHL1    C7 4007   5.448   3.977   7.241  0.1476  0.0172  0.0189
   55CHL1   H7A 4008   5.344   4.013   7.261  0.0483  0.1100 -0.6475
   55CHL1   H7B 4009   5.459   3.867   7.251  2.6791  0.3180  1.1687
   55CHL1    C8 4010   5.538   4.039   7.347 -0.7457  0.4395  0.6851
   55CHL1    H8 4011   5.519   4.147   7.361 -1.6334  0.2737  0.8358
   55CHL1   C14 4012   5.513   3.962   7.474  0.4324  0.2107 -0.4012
   55CHL1   H14 4013   5.557   3.860   7.466  1.6571  0.4109  2.5657
   55CHL1   C15 4014   5.365   3.938   7.514  0.2466  0.0307 -0.4785
   55CHL1  H15A 4015   5.306   4.031   7.514 -0.4810 -0.4027  1.1104
   55CHL1  H15B 4016   5.312   3.866   7.449 -3.6083  1.0946  1.2398
   55CHL1   C16 4017   5.383   3.879   7.654 -0.4401  0.4546 -0.3838
   55CHL1  H16A 4018   5.306   3.917   7.725  0.2408 -1.5339  1.5322
   55CHL1  H16B 4019   5.377   3.768   7.655  0.5170  0.3905 -0.9519
   55CHL1   C17 4020   5.527   3.918   7.706 -0.0552  0.6483 -1.1290
   55CHL1   H17 4021   5.590   3.826   7.696  0.7866  1.4325 -3.9542
   55CHL1   C13 4022   5.586   4.015   7.596  0.2892  0.4274  0.3807
   55CHL1   C18 4023   5.549   4.162   7.625 -0.0367 -0.3613  0.2516
   55CHL1  H18A 4024   5.440   4.177   7.607  0.3585  0.5856 -1.7007
   55CHL1  H18B 4025   5.576   4.193   7.728  1.6600  1.9264 -0.7905
   55CHL1  H18C 4026   5.595   4.234   7.554 -1.1713  1.7977  1.6065
   55CHL1   C12 4027   5.736   4.001   7.568 -0.3944  0.3407 -0.2651
   55CHL1  H12A 4028   5.791   4.046   7.654 -0.5888 -1.9917  1.1642
   55CHL1  H12B 4029   5.762   3.893   7.567  1.8683  0.8385  0.1156
   55CHL1   C11 4030   5.779   4.067   7.436  0.5558 -0.0568 -0.1629
   55CHL1  H11A 4031   5.757   4.175   7.447  3.3176  0.4666  1.1220
   55CHL1  H11B 4032   5.887   4.050   7.418  0.8990 -0.1634  1.7123
   55CHL1    C9 4033   5.688   4.023   7.316  0.3995 -0.2143 -0.3711
   55CHL1    H9 4034   5.704   3.914   7.303  0.6189 -0.2022 -0.2124
   55CHL1   C10 4035   5.716   4.082   7.172  0.1495  0.2288  0.2139
   55CHL1   C19 4036   5.742   4.237   7.189 -1.0551  0.2125  0.5105
   55CHL1  H19A 4037   5.748   4.290   7.091  1.1594 -1.1888 -0.1886
   55CHL1  H19B 4038   5.669   4.281   7.260 -1.3866 -2.5036  1.9583
   55CHL1  H19C 4039   5.839   4.246   7.243 -1.3886  0.9424  1.0061
   55CHL1    C1 4040   5.838   4.019   7.111  0.3354  0.0542 -0.4238
   55CHL1   H1A 4041   5.930   4.037   7.172 -0.3827  1.2223  0.3505
   55CHL1   H1B 4042   5.821   3.909   7.111 -2.1408  0.3740 -0.3179
   55CHL1    C2 4043   5.870   4.064   6.965 -0.3147  0.0819  0.2292
   55CHL1   H2A 4044   5.953   4.004   6.922  0.5017  1.1893  0.2200
   55CHL1   H2B 4045   5.906   4.169   6.969  0.0433  0.1073 -2.1141
   55CHL1   C20 4046   5.533   3.960   7.854 -0.0460  0.1783  0.3800
   55CHL1   H20 4047   5.486   4.058   7.875  1.7731  0.9184  1.2199
   55CHL1   C21 4048   5.682   3.974   7.892 -0.0716 -0.3666  0.0637
   55CHL1  H21A 4049   5.729   3.878   7.865  1.0002  0.0751  0.2998
   55CHL1  H21B 4050   5.693   3.989   8.001  0.4752 -2.3710  0.3201
   55CHL1  H21C 4051   5.732   4.056   7.836  1.3706 -0.4660  1.1638
   55CHL1   C22 4052   5.452   3.868   7.946  0.2708  0.4738  1.5424
   55CHL1  H22A 4053   5.346   3.860   7.914  0.8722  1.1617 -0.8131
   55CHL1  H22B 4054   5.509   3.773   7.957  1.3174  0.6994 -1.2422
   55CHL1   C23 4055   5.435   3.914   8.091 -0.4925 -0.0492 -0.0523
   55CHL1  H23A 4056   5.533   3.950   8.129 -0.5089 -0.3477  0.2801
   55CHL1  H23B 4057   5.367   4.001   8.101 -3.6609 -2.4972  2.2017
   55CHL1   C24 4058   5.384   3.798   8.183 -0.5180 -0.6005  0.5317
   55CHL1  H24A 4059   5.298   3.753   8.129 -0.4046  0.3854 -0.5107
   55CHL1  H24B 4060   5.462   3.720   8.190 -1.1078 -1.3187 -0.5653
   55CHL1   C25 4061   5.346   3.852   8.325 -0.0390 -0.2537 -0.0234
   55CHL1   H25 4062   5.417   3.937   8.332 -0.7378  0.4144 -0.7767
   55CHL1   C26 4063   5.201   3.891   8.328  0.4666  0.3021 -0.6208
   55CHL1  H26A 4064   5.185   3.958   8.416  1.0785 -0.2957 -0.0471
   55CHL1  H26B 4065   5.176   3.943   8.233 -0.7174 -0.9099 -0.9952
   55CHL1  H26C 4066   5.146   3.795   8.338  1.8475 -0.4132  0.6039
   55CHL1   C27 4067   5.371   3.741   8.423  0.1646 -0.5476  0.2043
   55CHL1  H27A 4068   5.316   3.751   8.519  0.4959 -0.6740  0.4117
   55CHL1  H27B 4069   5.334   3.647   8.376  0.9609 -0.6651 -0.2190
   55CHL1  H27C 4070   5.481   3.729   8.437  0.3753  0.4367 -0.4602
   56CHL1    C3 4071   6.761   4.898   6.799  0.7383  0.3336 -0.0071
   56CHL1    H3 4072   6.652   4.900   6.821  0.5719 -0.6926 -0.6340
   56CHL1    O3 4073   6.785   4.896   6.661  0.5954  0.3769  0.7114
   56CHL1   H3' 4074   6.745   4.977   6.629 -1.2108  0.5471  3.1104
   56CHL1    C4 4075   6.826   5.020   6.872  0.4329 -0.4524 -0.1042
   56CHL1   H4A 4076   6.931   5.023   6.834 -0.3105 -0.8220 -2.3714
   56CHL1   H4B 4077   6.778   5.112   6.832 -0.7324 -0.4629  1.2103
   56CHL1    C5 4078   6.812   5.010   7.022 -0.1016 -0.8140 -0.2748
   56CHL1    C6 4079   6.760   5.108   7.095  0.6233 -0.3043 -0.7691
   56CHL1    H6 4080   6.736   5.201   7.041  0.5275 -0.5119 -1.0849
   56CHL1    C7 4081   6.744   5.110   7.246  0.2611  0.2150 -0.1948
   56CHL1   H7A 4082   6.778   5.207   7.288 -0.5651  0.5360 -0.2573
   56CHL1   H7B 4083   6.639   5.097   7.281  0.1532  0.3250 -0.4747
   56CHL1    C8 4084   6.825   4.999   7.315  1.0749  0.0255  0.6661
   56CHL1    H8 4085   6.927   5.042   7.325  1.5171 -0.3370 -1.6736
   56CHL1   C14 4086   6.782   4.976   7.457 -0.3270  0.0822  0.1746
   56CHL1   H14 4087   6.679   4.939   7.440 -0.2230  1.2313 -4.2870
   56CHL1   C15 4088   6.771   5.101   7.553 -0.2104 -0.1558 -0.3369
   56CHL1  H15A 4089   6.867   5.157   7.550 -0.3972  0.2533  0.8729
   56CHL1  H15B 4090   6.699   5.175   7.514  0.2096 -0.6125 -2.0819
   56CHL1   C16 4091   6.770   5.046   7.695 -0.2553 -0.0046  0.4497
   56CHL1  H16A 4092   6.835   5.099   7.769  0.1789 -1.6885  1.3155
   56CHL1  H16B 4093   6.672   5.061   7.745 -1.9287 -3.9209 -1.2912
   56CHL1   C17 4094   6.786   4.890   7.680 -1.0080  1.2688 -0.5774
   56CHL1   H17 4095   6.685   4.849   7.658 -0.3811 -1.7832  1.5909
   56CHL1   C13 4096   6.855   4.866   7.539 -0.4367 -0.4533  0.0390
   56CHL1   C18 4097   7.009   4.893   7.549 -0.5977  0.0731  0.3806
   56CHL1  H18A 4098   7.043   4.912   7.445 -2.6000 -0.2429 -0.3668
   56CHL1  H18B 4099   7.033   4.982   7.611 -0.9973  2.1835 -2.3370
   56CHL1  H18C 4100   7.062   4.802   7.588  1.7430  1.1060 -0.2161
   56CHL1   C12 4101   6.830   4.735   7.469 -0.2702  0.3782  0.2684
   56CHL1  H12A 4102   6.894   4.660   7.521  0.1735  1.4931  1.3976
   56CHL1  H12B 4103   6.725   4.700   7.473  0.3918 -1.6047  1.4749
   56CHL1   C11 4104   6.880   4.743   7.315 -0.0249  0.0621 -0.4604
   56CHL1  H11A 4105   6.991   4.752   7.320  0.3865 -3.7547  1.0692
   56CHL1  H11B 4106   6.849   4.647   7.268  0.1468 -0.2022 -0.0403
   56CHL1    C9 4107   6.821   4.868   7.235 -0.2379  0.1901 -0.2920
   56CHL1    H9 4108   6.714   4.841   7.242 -0.6202  1.6575 -0.1295
   56CHL1   C10 4109   6.866   4.879   7.089  0.0689  0.2864 -0.3475
   56CHL1   C19 4110   7.026   4.881   7.077 -0.2448 -0.1788 -0.0035
   56CHL1  H19A 4111   7.052   4.903   6.972  1.5785  0.1626  0.4867
   56CHL1  H19B 4112   7.090   4.954   7.132 -1.7067  0.1938  1.2594
   56CHL1  H19C 4113   7.069   4.782   7.105  2.2075  1.0564  0.8726
   56CHL1    C1 4114   6.804   4.759   7.010  0.2707  0.0563 -0.4891
   56CHL1   H1A 4115   6.846   4.666   7.055  0.3531 -0.3490 -1.3891
   56CHL1   H1B 4116   6.695   4.758   7.030  0.4279  0.1101  0.4240
   56CHL1    C2 4117   6.829   4.767   6.859  0.2038  0.3085  0.3095
   56CHL1   H2A 4118   6.789   4.677   6.808  0.9885  1.0015 -1.6571
   56CHL1   H2B 4119   6.939   4.773   6.842  0.4175 -2.3393  0.4609
   56CHL1   C20 4120   6.848   4.818   7.801 -0.0669  0.4438  0.2662
   56CHL1   H20 4121   6.959   4.824   7.794 -0.0387  1.0063  1.0354
   56CHL1   C21 4122   6.819   4.666   7.784 -1.1984  0.2918 -0.2557
   56CHL1  H21A 4123   6.900   4.614   7.729 -0.1759 -0.5251  1.9030
   56CHL1  H21B 4124   6.723   4.663   7.728 -0.7689 -1.5844 -0.9673
   56CHL1  H21C 4125   6.799   4.615   7.881  2.4272 -1.5654 -0.3211
   56CHL1   C22 4126   6.807   4.862   7.938  0.4230 -0.5839  0.1471
   56CHL1  H22A 4127   6.879   4.816   8.009  0.8108  0.5755  0.5216
   56CHL1  H22B 4128   6.817   4.972   7.933 -1.6215 -0.4148 -2.6794
   56CHL1   C23 4129   6.656   4.830   7.969 -0.9418  0.6976  0.4874
   56CHL1  H23A 4130   6.602   4.866   7.880 -2.6665  2.4170  2.1415
   56CHL1  H23B 4131   6.637   4.720   7.968 -0.0152  0.5291 -0.0253
   56CHL1   C24 4132   6.604   4.897   8.095 -0.1747  0.2912 -1.1948
   56CHL1  H24A 4133   6.629   5.005   8.089 -1.5508  1.0730  3.2311
   56CHL1  H24B 4134   6.496   4.873   8.107 -0.5575  1.1936 -2.5289
   56CHL1   C25 4135   6.677   4.846   8.226  0.1379  0.5422 -0.4103
   56CHL1   H25 4136   6.785   4.872   8.231  0.0142  0.9589  0.1079
   56CHL1   C26 4137   6.611   4.915   8.341  0.0473  0.1888  0.6263
   56CHL1  H26A 4138   6.662   4.891   8.437 -0.9121 -2.2257  0.6033
   56CHL1  H26B 4139   6.503   4.892   8.347 -0.1723  0.3130 -1.7377
   56CHL1  H26C 4140   6.609   5.024   8.316 -2.8747  0.0788  0.0451
   56CHL1   C27 4141   6.674   4.691   8.253  0.2742 -0.0459  0.3013
   56CHL1  H27A 4142   6.732   4.637   8.176 -1.6166  0.3777 -1.4847
   56CHL1  H27B 4143   6.720   4.684   8.355  2.6140  2.6634 -0.4341
   56CHL1  H27C 4144   6.567   4.662   8.262 -0.3731  2.0781 -0.0837
   57SAPC     N 4145   6.302   3.239  10.990 -0.2078  0.0308  0.4132
   57SAPC   C12 4146   6.345   3.271  10.843 -0.5507  0.0063  0.4164
   57SAPC  H12A 4147   6.358   3.378  10.838 -0.8758  0.1299  1.7711
   57SAPC  H12B 4148   6.264   3.244  10.777 -0.4389  0.3840  0.1243
   57SAPC   C13 4149   6.309   3.098  11.007 -0.0381  0.3093  0.0923
   57SAPC  H13A 4150   6.410   3.067  11.028 -0.5307 -0.9930  0.6905
   57SAPC  H13B 4151   6.251   3.058  11.090  1.9107 -1.4885  0.6702
   57SAPC  H13C 4152   6.282   3.039  10.921 -0.1918 -1.6892  1.4441
   57SAPC   C14 4153   6.393   3.308  11.081  0.9164 -0.4037 -0.6218
   57SAPC  H14A 4154   6.383   3.415  11.066 -1.3536  0.0197  2.7912
   57SAPC  H14B 4155   6.357   3.292  11.182  0.5633 -0.1427 -0.7054
   57SAPC  H14C 4156   6.494   3.278  11.058  0.0968 -0.8615 -4.1452
   57SAPC   C15 4157   6.161   3.294  11.015  0.2560  0.1835 -0.0757
   57SAPC  H15A 4158   6.120   3.263  11.110 -0.6156 -1.3407 -0.9011
   57SAPC  H15B 4159   6.160   3.402  11.016  0.1475  0.1891 -0.6471
   57SAPC  H15C 4160   6.088   3.272  10.938 -0.9425  1.4943  0.6434
   57SAPC   C11 4161   6.474   3.205  10.782 -0.3367 -0.7198  0.4928
   57SAPC  H11A 4162   6.490   3.247  10.680 -2.5431 -0.9472 -0.0049
   57SAPC  H11B 4163   6.473   3.094  10.773  0.6266 -1.0492  3.4436
   57SAPC     P 4164   6.729   3.198  10.828 -0.3392  0.1037 -0.0955
   57SAPC   O13 4165   6.817   3.284  10.907 -0.2705  0.5335  0.3212
   57SAPC   O14 4166   6.734   3.054  10.859 -0.2558  0.3434 -0.0268
   57SAPC   O12 4167   6.584   3.245  10.859 -0.3155 -0.6921  0.2510
   57SAPC   O11 4168   6.751   3.227  10.676  0.3834  0.7488 -0.2120
   57SAPC    C1 4169   6.741   3.346  10.613  1.1497  0.4189 -0.5907
   57SAPC    HA 4170   6.636   3.382  10.611  0.9848 -0.0456 -2.0030
   57SAPC    HB 4171   6.810   3.418  10.662  2.4040 -0.5124 -0.9492
   57SAPC    C2 4172   6.793   3.346  10.469 -0.7544 -0.3839  0.0093
   57SAPC    HS 4173   6.800   3.450  10.431  0.8129  0.4674  2.3649
   57SAPC   O21 4174   6.718   3.261  10.382 -0.5714 -0.0573  0.5131
   57SAPC   C21 4175   6.606   3.322  10.337  0.6278 -0.6164  0.3005
   57SAPC   O22 4176   6.568   3.434  10.358  0.0153  0.1446 -0.0433
   57SAPC   C22 4177   6.535   3.217  10.251  0.1839  0.2794  0.8193
   57SAPC   H2R 4178   6.592   3.200  10.156 -1.3937  1.7445 -0.4501
   57SAPC   H2S 4179   6.525   3.121  10.306  2.6590 -0.0805  0.7736
   57SAPC    C3 4180   6.943   3.307  10.463 -0.5581  0.4102 -0.7186
   57SAPC    HX 4181   6.960   3.207  10.508  1.4049  0.9168 -0.2467
   57SAPC    HY 4182   7.000   3.388  10.513 -1.4931  0.0029  1.0801
   57SAPC   O31 4183   6.985   3.291  10.332 -0.8503 -0.8571  0.5521
   57SAPC   C31 4184   6.971   3.172  10.267 -0.0608  0.8929 -0.1646
   57SAPC   O32 4185   6.917   3.074  10.313 -0.2142  0.1321  0.1124
   57SAPC   C32 4186   7.024   3.195  10.126 -0.0249  0.1149  0.5889
   57SAPC   H2X 4187   7.122   3.148  10.106 -1.0839 -1.3573 -1.5046
   57SAPC   H2Y 4188   7.034   3.304  10.109  0.1609  0.0405  0.2257
   57SAPC   C23 4189   6.393   3.251  10.206  0.4230 -0.3750 -0.4739
   57SAPC   H3R 4190   6.334   3.309  10.280  0.3410  0.3686 -1.1203
   57SAPC   H3S 4191   6.331   3.159  10.194  0.9114 -0.6997 -0.5297
   57SAPC   C24 4192   6.387   3.335  10.074 -0.2099  0.2704 -0.4895
   57SAPC   H4R 4193   6.440   3.433  10.076  1.5827 -0.6189 -1.9906
   57SAPC   H4S 4194   6.279   3.353  10.051 -0.6829  0.1845  1.4917
   57SAPC   C25 4195   6.436   3.261   9.952  0.2736 -1.1228  0.0255
   57SAPC   H5R 4196   6.441   3.152   9.962 -1.9272 -1.2052  0.9620
   57SAPC   C26 4197   6.463   3.321   9.835  0.1492  0.5559 -0.0218
   57SAPC   H6R 4198   6.520   3.258   9.766  1.0053 -2.3566  3.0436
   57SAPC   C27 4199   6.448   3.461   9.786 -0.4830  0.0404  0.1021
   57SAPC   H7R 4200   6.554   3.482   9.761  0.0163 -1.3371  0.9923
   57SAPC   H7S 4201   6.426   3.529   9.871 -0.1470 -0.6776  0.7687
   57SAPC   C28 4202   6.356   3.488   9.674  0.7632 -1.1516  0.0256
   57SAPC   H8R 4203   6.249   3.473   9.693  0.0806  1.8228 -0.8656
   57SAPC   C29 4204   6.397   3.518   9.546  0.5629  0.7433  0.6970
   57SAPC   H9R 4205   6.323   3.530   9.465 -0.0461 -0.5016  1.0356
   57SAPC  C210 4206   6.543   3.533   9.500 -0.7291  0.2005 -0.0135
   57SAPC  H10R 4207   6.589   3.434   9.480 -1.4360 -0.2379  0.4758
   57SAPC  H10S 4208   6.608   3.592   9.568  1.1943 -0.9113 -0.8170
   57SAPC  C211 4209   6.561   3.622   9.380  0.1547 -0.0958  0.7952
   57SAPC  H11R 4210   6.600   3.724   9.387 -0.7624  0.3597 -0.4425
   57SAPC  C212 4211   6.527   3.586   9.254  0.3339  0.5979  0.4568
   57SAPC  H12R 4212   6.549   3.658   9.174  1.4056 -0.2487 -0.0300
   57SAPC  C213 4213   6.478   3.457   9.200 -0.1496  0.3975  0.6114
   57SAPC  H13R 4214   6.532   3.388   9.268  1.9028  0.8124 -0.5082
   57SAPC  H13S 4215   6.523   3.450   9.098 -2.0727  1.0404 -0.3212
   57SAPC  C214 4216   6.325   3.454   9.185 -0.8610  0.1309  0.5600
   57SAPC  H14R 4217   6.284   3.388   9.262  2.7946  0.3907  2.9683
   57SAPC  C215 4218   6.259   3.525   9.092  0.6113 -0.3587  0.4094
   57SAPC  H15R 4219   6.150   3.509   9.084  0.5786  0.2066 -0.4547
   57SAPC  C216 4220   6.320   3.615   8.988 -0.0935 -0.1921  0.4271
   57SAPC  H16R 4221   6.429   3.593   8.979 -0.0588  0.8747 -3.4667
   57SAPC  H16S 4222   6.291   3.721   9.007  0.0011  0.0960 -0.9397
   57SAPC  C217 4223   6.279   3.582   8.846  0.8173  0.0566  0.0255
   57SAPC  H17R 4224   6.319   3.669   8.790 -0.6326  0.8598  0.1738
   57SAPC  H17S 4225   6.170   3.604   8.836  0.3743 -0.8869  2.2921
   57SAPC  C218 4226   6.313   3.445   8.797  1.0804 -0.0882 -0.3566
   57SAPC  H18R 4227   6.246   3.370   8.843 -1.9357  0.7078 -3.0586
   57SAPC  H18S 4228   6.418   3.437   8.832  0.5645  1.1206  1.6102
   57SAPC  C219 4229   6.313   3.419   8.645 -0.0141 -0.3489 -0.6450
   57SAPC  H19R 4230   6.387   3.496   8.615  0.3025  0.3440  1.7231
   57SAPC  H19S 4231   6.211   3.448   8.612 -0.0803 -0.1248 -0.2417
   57SAPC  C220 4232   6.371   3.289   8.586  0.1718  0.2905 -0.6191
   57SAPC  H20R 4233   6.313   3.214   8.644  1.3839  0.0478  0.3143
   57SAPC  H20S 4234   6.481   3.281   8.601  0.2681  3.3083  1.1091
   57SAPC  H20T 4235   6.335   3.276   8.481 -3.1908 -2.8856  0.7178
   57SAPC   C33 4236   6.915   3.142  10.029 -0.5182  1.1683  0.2036
   57SAPC   H3X 4237   6.831   3.215  10.035  0.1115  1.9125  0.0879
   57SAPC   H3Y 4238   6.879   3.047  10.074 -0.1824  0.7379 -0.4311
   57SAPC   C34 4239   6.954   3.145   9.888  0.3299 -0.2668  0.1012
   57SAPC   H4X 4240   7.040   3.078   9.866  0.7964  0.4818 -0.3952
   57SAPC   H4Y 4241   6.969   3.245   9.842  0.6217 -0.2549  0.2206
   57SAPC   C35 4242   6.835   3.100   9.802 -0.1295 -0.5575  0.6439
   57SAPC   H5X 4243   6.746   3.165   9.812  0.1263  0.1544 -1.1741
   57SAPC   H5Y 4244   6.805   2.997   9.830 -0.9337 -1.8614 -4.0766
   57SAPC   C36 4245   6.869   3.100   9.644 -0.0099 -0.0942 -0.6221
   57SAPC   H6X 4246   6.778   3.070   9.588  0.9626 -1.1897 -1.6682
   57SAPC   H6Y 4247   6.943   3.019   9.628  0.0640 -0.3932  1.0412
   57SAPC   C37 4248   6.922   3.229   9.586 -0.2115 -0.6138 -0.3857
   57SAPC   H7X 4249   7.014   3.262   9.638  0.8394 -2.9489 -0.6438
   57SAPC   H7Y 4250   6.844   3.306   9.604  0.0891 -0.5496  0.6674
   57SAPC   C38 4251   6.949   3.218   9.428  0.6380  0.0103 -0.8359
   57SAPC   H8X 4252   6.915   3.120   9.390 -1.0334  0.2728 -0.1345
   57SAPC   H8Y 4253   7.059   3.224   9.422  0.7523 -0.6720  0.3371
   57SAPC   C39 4254   6.874   3.324   9.355  0.2786 -0.5374 -0.7428
   57SAPC   H9X 4255   6.910   3.423   9.391 -1.5625  0.7898 -2.3435
   57SAPC   H9Y 4256   6.764   3.317   9.371 -0.5711  0.8032 -4.8045
   57SAPC  C310 4257   6.908   3.315   9.209  0.1141  0.1353 -0.4650
   57SAPC  H10X 4258   6.888   3.211   9.177 -0.2094  0.9507 -3.1964
   57SAPC  H10Y 4259   7.019   3.330   9.210  0.6814 -3.3358  0.4214
   57SAPC  C311 4260   6.854   3.413   9.110  0.0391 -0.8770 -0.1757
   57SAPC  H11X 4261   6.889   3.518   9.115 -1.3759 -0.2679 -1.8442
   57SAPC  H11Y 4262   6.747   3.425   9.135  0.5493  0.4566  1.5384
   57SAPC  C312 4263   6.879   3.369   8.968 -0.1576  0.3313 -0.2316
   57SAPC  H12X 4264   6.880   3.258   8.963  0.5519  0.3065  0.3714
   57SAPC  H12Y 4265   6.983   3.403   8.955 -0.6987  1.3685 -2.3353
   57SAPC  C313 4266   6.773   3.421   8.871 -1.2325  0.1757 -0.0972
   57SAPC  H13X 4267   6.779   3.531   8.864  1.3562  0.0261 -1.6096
   57SAPC  H13Y 4268   6.671   3.394   8.907 -0.5375  1.6169  3.4407
   57SAPC  C314 4269   6.796   3.388   8.720  0.0169 -0.9383  0.0175
   57SAPC  H14X 4270   6.722   3.457   8.674 -0.1849 -1.5684 -0.6217
   57SAPC  H14Y 4271   6.764   3.284   8.698  1.5817 -1.1028 -1.7581
   57SAPC  C315 4272   6.933   3.423   8.668  0.1028 -0.5128  0.2478
   57SAPC  H15X 4273   7.021   3.409   8.734  1.4841  2.3457 -0.8113
   57SAPC  H15Y 4274   6.935   3.534   8.667 -2.9234 -0.3283  2.0065
   57SAPC  C316 4275   6.959   3.371   8.529  0.0733  0.1481  0.0700
   57SAPC  H16X 4276   6.875   3.302   8.508  0.5323 -0.8396  1.3251
   57SAPC  H16Y 4277   7.056   3.317   8.529  0.1401  0.2683 -0.5591
   57SAPC  C317 4278   6.966   3.474   8.415 -0.7179  0.2031 -0.1772
   57SAPC  H17X 4279   7.057   3.536   8.431 -0.2950 -0.2265 -0.8215
   57SAPC  H17Y 4280   6.875   3.536   8.430 -0.7421  0.6189 -1.7987
   57SAPC  C318 4281   6.948   3.418   8.276 -0.4217  0.4457 -0.2622
   57SAPC  H18X 4282   6.976   3.495   8.202 -3.2368  0.0270 -1.8870
   57SAPC  H18Y 4283   6.845   3.379   8.264 -0.6542  0.9624  0.0543
   57SAPC  H18Z 4284   7.015   3.329   8.268 -1.5371 -0.5086  0.6398
   58SAPC     N 4285   4.593   3.342  11.066  0.0384  0.0419 -0.1124
   58SAPC   C12 4286   4.525   3.366  10.935 -0.3234 -0.1898  0.1005
   58SAPC  H12A 4287   4.513   3.473  10.932 -1.3156 -0.2404  1.5742
   58SAPC  H12B 4288   4.431   3.313  10.925  0.2496 -0.8308 -3.0355
   58SAPC   C13 4289   4.624   3.195  11.080 -0.9863  0.1562  0.0909
   58SAPC  H13A 4290   4.681   3.174  11.169  0.8519  1.9976 -0.5716
   58SAPC  H13B 4291   4.539   3.130  11.067 -0.8319  0.1704 -1.0705
   58SAPC  H13C 4292   4.700   3.165  11.009 -1.3311  0.5894 -0.4610
   58SAPC   C14 4293   4.721   3.421  11.076 -0.1487 -0.1885 -0.7249
   58SAPC  H14A 4294   4.785   3.413  11.163 -2.8288  1.7323  1.5820
   58SAPC  H14B 4295   4.775   3.391  10.987  2.8113 -0.8142  1.1540
   58SAPC  H14C 4296   4.707   3.527  11.063  3.3164  0.6342  1.1354
   58SAPC   C15 4297   4.511   3.395  11.183  0.3931 -0.2574  0.6955
   58SAPC  H15A 4298   4.409   3.360  11.191  0.4514 -0.6926 -0.3294
   58SAPC  H15B 4299   4.554   3.365  11.277  0.1102 -3.9443 -0.1743
   58SAPC  H15C 4300   4.517   3.502  11.188  1.1307 -0.2112 -0.6341
   58SAPC   C11 4301   4.596   3.318  10.800 -0.3669 -0.3198  0.2864
   58SAPC  H11A 4302   4.514   3.328  10.727  1.1471  1.3822 -1.2851
   58SAPC  H11B 4303   4.613   3.208  10.801 -1.6235 -0.5270  0.8856
   58SAPC     P 4304   4.841   3.346  10.722 -0.3692  0.3651  0.2773
   58SAPC   O13 4305   4.912   3.450  10.642 -0.3040 -0.2787  0.6438
   58SAPC   O14 4306   4.914   3.296  10.838 -0.6016 -0.4377  0.0359
   58SAPC   O12 4307   4.706   3.408  10.768 -0.0220 -0.3212  0.7413
   58SAPC   O11 4308   4.795   3.224  10.622  0.2029  0.0890 -0.2537
   58SAPC    C1 4309   4.729   3.256  10.504  1.1175 -0.6858  0.5907
   58SAPC    HA 4310   4.644   3.324  10.525  1.7683  0.1527  0.5596
   58SAPC    HB 4311   4.800   3.299  10.430 -0.2561 -2.0319 -1.6595
   58SAPC    C2 4312   4.660   3.129  10.433  0.4535  0.2877 -0.1366
   58SAPC    HS 4313   4.743   3.055  10.438  0.7344  0.5415 -0.9511
   58SAPC   O21 4314   4.636   3.156  10.289  0.1617 -0.6657 -0.0499
   58SAPC   C21 4315   4.589   3.052  10.224 -0.3778  0.9034 -0.3407
   58SAPC   O22 4316   4.575   2.936  10.264 -0.0372 -0.1238 -1.0496
   58SAPC   C22 4317   4.561   3.093  10.079 -0.4861 -0.6470  0.5346
   58SAPC   H2R 4318   4.454   3.121  10.090 -0.7109 -1.1221 -0.3315
   58SAPC   H2S 4319   4.627   3.176  10.045 -2.1431  0.8720  0.9118
   58SAPC    C3 4320   4.525   3.085  10.501 -0.0015  0.2773  0.1128
   58SAPC    HX 4321   4.556   3.059  10.604  1.8938 -4.1552 -1.3307
   58SAPC    HY 4322   4.489   2.986  10.468 -0.0779  0.8231 -1.5798
   58SAPC   O31 4323   4.424   3.185  10.492  0.2675 -0.3582  1.1569
   58SAPC   C31 4324   4.322   3.163  10.410 -0.6201  0.4946  0.3680
   58SAPC   O32 4325   4.306   3.061  10.345  0.1409 -0.4588 -0.2049
   58SAPC   C32 4326   4.232   3.290  10.413 -0.1657  0.2874  0.4703
   58SAPC   H2X 4327   4.264   3.362  10.491  1.3923 -1.2641  1.3338
   58SAPC   H2Y 4328   4.131   3.245  10.427 -0.4450  1.0401  0.9094
   58SAPC   C23 4329   4.553   2.980   9.970 -0.3399  0.1013  0.0558
   58SAPC   H3R 4330   4.460   2.920   9.974  0.6145 -1.4053  0.8429
   58SAPC   H3S 4331   4.625   2.897   9.991 -1.0682 -0.8198 -0.9981
   58SAPC   C24 4332   4.586   3.038   9.833  0.5355  0.0532  0.5405
   58SAPC   H4R 4333   4.614   2.954   9.766  0.6758 -0.2848  1.0121
   58SAPC   H4S 4334   4.675   3.105   9.835  0.3419  0.4822 -2.0649
   58SAPC   C25 4335   4.463   3.105   9.776  0.6716 -0.3397  0.0446
   58SAPC   H5R 4336   4.382   3.134   9.845  0.1471 -0.9671 -0.2911
   58SAPC   C26 4337   4.442   3.129   9.644 -0.1950  0.3598  0.5446
   58SAPC   H6R 4338   4.345   3.166   9.609 -0.5651 -1.1103 -0.1063
   58SAPC   C27 4339   4.533   3.096   9.529  0.1131 -0.0869 -0.4276
   58SAPC   H7R 4340   4.638   3.117   9.561  1.1273 -2.6778 -1.7664
   58SAPC   H7S 4341   4.515   3.174   9.452  2.0009  2.9795  1.9705
   58SAPC   C28 4342   4.525   2.959   9.478  1.0138  0.2655  0.6438
   58SAPC   H8R 4343   4.535   2.881   9.555 -2.7366 -0.6333  0.4168
   58SAPC   C29 4344   4.514   2.914   9.351  0.4314  0.4127  0.3532
   58SAPC   H9R 4345   4.504   2.806   9.336  0.3771  0.6597 -1.6132
   58SAPC  C210 4346   4.502   3.001   9.226 -0.4421  0.2623 -0.0758
   58SAPC  H10R 4347   4.563   2.951   9.147 -1.0772 -0.4332 -0.1327
   58SAPC  H10S 4348   4.541   3.103   9.246  1.4002 -0.4798  0.3465
   58SAPC  C211 4349   4.357   3.021   9.177 -0.1694  0.5928  0.3052
   58SAPC  H11R 4350   4.294   3.082   9.243 -0.1006  0.1488  0.7866
   58SAPC  C212 4351   4.308   2.989   9.058 -0.1210  0.1761  0.6866
   58SAPC  H12R 4352   4.216   3.036   9.020  0.3287  0.4175 -0.1466
   58SAPC  C213 4353   4.371   2.931   8.935 -0.6264 -0.3467  0.0944
   58SAPC  H13R 4354   4.479   2.911   8.953 -0.8858  0.2168  2.7325
   58SAPC  H13S 4355   4.363   3.008   8.855 -0.3248 -2.1392 -1.7320
   58SAPC  C214 4356   4.301   2.815   8.885 -0.0341 -0.2599 -1.2310
   58SAPC  H14R 4357   4.202   2.791   8.925 -0.4903 -0.3745 -2.3935
   58SAPC  C215 4358   4.338   2.734   8.778  0.4358  0.1225  0.4583
   58SAPC  H15R 4359   4.272   2.653   8.743 -0.0121 -0.3722  2.3423
   58SAPC  C216 4360   4.453   2.759   8.686  0.2832  0.1888  0.0677
   58SAPC  H16R 4361   4.522   2.673   8.672 -0.6269 -0.6942  0.8267
   58SAPC  H16S 4362   4.513   2.847   8.718  0.4540 -1.1745  4.0496
   58SAPC  C217 4363   4.396   2.782   8.542 -0.2335 -0.7458 -0.2773
   58SAPC  H17R 4364   4.323   2.866   8.542  0.4456 -0.1429 -0.4284
   58SAPC  H17S 4365   4.344   2.687   8.517  0.0361 -0.2227 -3.2500
   58SAPC  C218 4366   4.508   2.831   8.445 -0.0417 -0.0150 -0.3940
   58SAPC  H18R 4367   4.475   2.815   8.340  0.5508 -1.1634 -0.4233
   58SAPC  H18S 4368   4.597   2.772   8.474 -0.7857 -0.6165  0.7494
   58SAPC  C219 4369   4.545   2.985   8.456 -0.1083 -0.1071 -0.8425
   58SAPC  H19R 4370   4.592   3.004   8.555  0.2252 -3.3836 -0.2707
   58SAPC  H19S 4371   4.452   3.046   8.453  0.2762  0.4734 -1.3772
   58SAPC  C220 4372   4.646   3.041   8.354 -0.9152 -0.4483  0.7166
   58SAPC  H20R 4373   4.732   2.973   8.336  0.3595  0.9802  1.1718
   58SAPC  H20S 4374   4.679   3.146   8.372 -1.2476 -0.0881 -0.6436
   58SAPC  H20T 4375   4.594   3.050   8.257 -1.8340  0.7376  1.2918
   58SAPC   C33 4376   4.230   3.362  10.273 -0.0768  0.6417 -0.2490
   58SAPC   H3X 4377   4.132   3.415  10.275 -0.0796  0.6463 -0.5239
   58SAPC   H3Y 4378   4.217   3.291  10.189  3.9592  0.2366 -0.7051
   58SAPC   C34 4379   4.342   3.460  10.241  0.1000 -0.1302  0.2867
   58SAPC   H4X 4380   4.421   3.384  10.222  0.9914  0.3303  1.9305
   58SAPC   H4Y 4381   4.349   3.528  10.329 -0.1572  1.1256 -0.6370
   58SAPC   C35 4382   4.324   3.544  10.113 -0.1743  0.0754  0.0777
   58SAPC   H5X 4383   4.416   3.599  10.085 -2.2697  2.0718 -3.6611
   58SAPC   H5Y 4384   4.243   3.616  10.137 -0.3283  0.2264 -0.8336
   58SAPC   C36 4385   4.296   3.463   9.984 -0.3807 -0.8192 -0.2423
   58SAPC   H6X 4386   4.192   3.423   9.992  0.0741 -1.7860  1.3420
   58SAPC   H6Y 4387   4.366   3.378   9.987 -0.0741 -0.5505  1.3103
   58SAPC   C37 4388   4.319   3.552   9.860  0.5946  0.4705 -0.4097
   58SAPC   H7X 4389   4.418   3.601   9.868  1.0125 -0.5401  0.9524
   58SAPC   H7Y 4390   4.258   3.645   9.866  1.0294  0.6673  1.6369
   58SAPC   C38 4391   4.313   3.469   9.729 -1.0052  0.0738 -0.7095
   58SAPC   H8X 4392   4.228   3.399   9.741 -1.3253  0.8621  2.9166
   58SAPC   H8Y 4393   4.406   3.411   9.710 -1.8273 -0.5004 -3.4261
   58SAPC   C39 4394   4.301   3.562   9.607  0.2286 -0.1825 -0.0665
   58SAPC   H9X 4395   4.393   3.623   9.595 -0.5842  0.6854 -2.3648
   58SAPC   H9Y 4396   4.223   3.640   9.622 -0.3336 -0.6715 -0.4061
   58SAPC  C310 4397   4.284   3.488   9.469  0.1668 -0.2723 -1.0038
   58SAPC  H10X 4398   4.374   3.425   9.454  1.7752  1.8587 -0.8623
   58SAPC  H10Y 4399   4.279   3.571   9.395  1.4381 -1.6748 -2.7705
   58SAPC  C311 4400   4.161   3.398   9.452 -0.4068 -0.6825 -0.0482
   58SAPC  H11X 4401   4.064   3.451   9.462  0.5135  1.1390 -0.4604
   58SAPC  H11Y 4402   4.153   3.333   9.542  0.6404  0.3248  0.8133
   58SAPC  C312 4403   4.164   3.322   9.321 -0.6520  0.7887 -1.0442
   58SAPC  H12X 4404   4.091   3.239   9.331 -0.6494  0.9820  0.9273
   58SAPC  H12Y 4405   4.260   3.267   9.330 -0.2746  0.8847 -3.7579
   58SAPC  C313 4406   4.160   3.398   9.188  1.0505 -1.0725  0.0802
   58SAPC  H13X 4407   4.238   3.477   9.188  1.1860 -1.0943  2.8385
   58SAPC  H13Y 4408   4.058   3.442   9.192  1.3579 -0.3896  0.7401
   58SAPC  C314 4409   4.170   3.311   9.064 -0.1952  0.4799  0.7116
   58SAPC  H14X 4410   4.110   3.219   9.078  1.9316 -1.1438 -0.2217
   58SAPC  H14Y 4411   4.274   3.270   9.059 -0.9372 -1.4898  0.3875
   58SAPC  C315 4412   4.132   3.370   8.936 -0.0632  0.2494  0.8611
   58SAPC  H15X 4413   4.175   3.470   8.912  0.4567 -0.1181  0.2228
   58SAPC  H15Y 4414   4.024   3.395   8.935 -0.7737 -2.4227 -0.8688
   58SAPC  C316 4415   4.140   3.280   8.811  0.8619 -0.0632  0.3607
   58SAPC  H16X 4416   4.089   3.335   8.729  0.4897 -1.7289 -0.5745
   58SAPC  H16Y 4417   4.091   3.181   8.827 -3.0916  1.5610 -0.5767
   58SAPC  C317 4418   4.285   3.286   8.767 -0.7992 -0.5792  0.6112
   58SAPC  H17X 4419   4.363   3.241   8.831  0.6786 -0.9607 -1.3387
   58SAPC  H17Y 4420   4.317   3.392   8.757 -1.9806 -0.3725 -1.5399
   58SAPC  C318 4421   4.305   3.230   8.620 -0.6459 -0.5313 -0.0956
   58SAPC  H18X 4422   4.229   3.265   8.547  0.8317  1.4132 -0.7817
   58SAPC  H18Y 4423   4.294   3.120   8.626 -2.7574 -0.4174 -0.9531
   58SAPC  H18Z 4424   4.408   3.248   8.581  0.2126  0.6460  2.4536
   59SAPC     N 4425   3.670   3.733  11.609 -0.0823  0.5310  0.2513
   59SAPC   C12 4426   3.701   3.808  11.484 -0.2833 -0.1926  0.1269
   59SAPC  H12A 4427   3.787   3.868  11.509 -0.7508 -0.2407  2.0685
   59SAPC  H12B 4428   3.623   3.878  11.460  0.0387 -0.6211 -2.3796
   59SAPC   C13 4429   3.545   3.655  11.600  0.5136 -0.5197 -0.1422
   59SAPC  H13A 4430   3.540   3.621  11.497 -2.2241 -0.4541 -0.0942
   59SAPC  H13B 4431   3.557   3.567  11.662  1.7156  0.4054  0.9849
   59SAPC  H13C 4432   3.457   3.709  11.629  0.7492  0.1529 -0.6550
   59SAPC   C14 4433   3.785   3.636  11.638 -0.0611 -0.8460  0.1888
   59SAPC  H14A 4434   3.870   3.695  11.669  0.4115 -1.1695 -0.4704
   59SAPC  H14B 4435   3.753   3.566  11.713 -0.3017 -0.6416  0.2782
   59SAPC  H14C 4436   3.812   3.580  11.550  0.5475  2.1216 -1.6695
   59SAPC   C15 4437   3.652   3.824  11.730  0.1291  0.1424 -0.5192
   59SAPC  H15A 4438   3.742   3.874  11.764  0.2696  1.4054 -2.5959
   59SAPC  H15B 4439   3.572   3.894  11.709  0.6410  1.1662  0.7770
   59SAPC  H15C 4440   3.626   3.773  11.821  2.2853  0.4981  0.3601
   59SAPC   C11 4441   3.740   3.720  11.362  0.2290 -0.5560  0.9097
   59SAPC  H11A 4442   3.815   3.643  11.389  2.2711  1.5457  1.5531
   59SAPC  H11B 4443   3.793   3.780  11.286 -0.8813 -2.0358 -1.1249
   59SAPC     P 4444   3.546   3.719  11.191  0.0587  0.1084 -0.0705
   59SAPC   O13 4445   3.399   3.687  11.189 -1.0070  0.5756 -0.3462
   59SAPC   O14 4446   3.581   3.862  11.195  0.1776 -0.1241 -0.3540
   59SAPC   O12 4447   3.626   3.644  11.307 -0.0315 -0.4271 -0.3306
   59SAPC   O11 4448   3.621   3.643  11.073  0.1766 -1.1168 -0.1525
   59SAPC    C1 4449   3.554   3.611  10.947  0.2343 -0.2120  1.0270
   59SAPC    HA 4450   3.622   3.541  10.893  0.1128  0.0972  0.4738
   59SAPC    HB 4451   3.464   3.550  10.968  0.5454 -0.9232  0.3935
   59SAPC    C2 4452   3.520   3.728  10.847  0.0737  0.3299  0.5499
   59SAPC    HS 4453   3.421   3.773  10.868 -0.0560 -0.1614  1.0259
   59SAPC   O21 4454   3.522   3.678  10.713  0.1914  0.2244 -0.4204
   59SAPC   C21 4455   3.434   3.741  10.629 -0.2855 -0.1023  0.4053
   59SAPC   O22 4456   3.373   3.843  10.655  0.1857  0.2398 -0.2080
   59SAPC   C22 4457   3.444   3.667  10.491  0.4247 -0.6249  0.5197
   59SAPC   H2R 4458   3.502   3.573  10.507 -0.0850 -0.9811  0.3133
   59SAPC   H2S 4459   3.342   3.637  10.458  0.2115 -1.4084  1.7937
   59SAPC    C3 4460   3.632   3.831  10.859 -0.8300 -0.7184  0.1777
   59SAPC    HX 4461   3.725   3.773  10.842 -0.2496  0.4195 -0.6372
   59SAPC    HY 4462   3.642   3.882  10.957  1.9866 -0.1198 -0.3438
   59SAPC   O31 4463   3.627   3.931  10.742 -0.1330  0.7627 -0.6057
   59SAPC   C31 4464   3.555   4.037  10.762 -0.3463 -0.5711 -0.1006
   59SAPC   O32 4465   3.498   4.069  10.864  0.7515 -0.2437  0.2818
   59SAPC   C32 4466   3.574   4.129  10.643 -0.2685  0.1729 -0.5445
   59SAPC   H2X 4467   3.593   4.065  10.555  1.3577 -0.3304  0.1399
   59SAPC   H2Y 4468   3.673   4.176  10.662  0.4513 -0.9998 -1.2736
   59SAPC   C23 4469   3.520   3.746  10.389 -0.1216  0.4101  0.5054
   59SAPC   H3R 4470   3.557   3.675  10.312 -1.3536  1.5333 -1.1944
   59SAPC   H3S 4471   3.606   3.789  10.445 -1.0349  0.8526  1.5939
   59SAPC   C24 4472   3.437   3.850  10.314  0.4416  0.3851 -0.0590
   59SAPC   H4R 4473   3.399   3.931  10.380  1.7870  2.1903 -1.4147
   59SAPC   H4S 4474   3.346   3.796  10.280 -0.7334  1.3708  1.3802
   59SAPC   C25 4475   3.520   3.922  10.207 -0.1510 -0.2122  0.4419
   59SAPC   H5R 4476   3.609   3.971  10.249 -1.3656  1.7404  0.8367
   59SAPC   C26 4477   3.491   3.928  10.077 -0.5740 -0.1031  0.1549
   59SAPC   H6R 4478   3.568   3.966  10.008 -1.7343 -0.3465 -1.3372
   59SAPC   C27 4479   3.379   3.867   9.998 -0.5722 -0.3319 -0.5990
   59SAPC   H7R 4480   3.307   3.948   9.974  0.3719  0.5444 -0.4958
   59SAPC   H7S 4481   3.321   3.794  10.059 -3.2435  1.0696 -1.3088
   59SAPC   C28 4482   3.432   3.801   9.875 -0.4375 -0.5299 -0.6814
   59SAPC   H8R 4483   3.541   3.786   9.880 -0.5483 -0.9485  0.9968
   59SAPC   C29 4484   3.355   3.752   9.779  0.0854 -0.3234 -0.0885
   59SAPC   H9R 4485   3.406   3.693   9.702 -0.3238 -0.2441 -0.4211
   59SAPC  C210 4486   3.204   3.763   9.785  0.2664 -0.2785  0.0492
   59SAPC  H10R 4487   3.185   3.872   9.772 -1.5109 -0.6225 -0.4710
   59SAPC  H10S 4488   3.163   3.742   9.886 -0.2309  1.4187  0.2333
   59SAPC  C211 4489   3.135   3.679   9.685  0.1310 -0.4769 -0.1193
   59SAPC  H11R 4490   3.075   3.599   9.732 -0.2752  0.1712  0.4836
   59SAPC  C212 4491   3.146   3.671   9.548  0.3123 -0.3742 -0.2286
   59SAPC  H12R 4492   3.072   3.608   9.498  2.0214 -1.8673 -1.0148
   59SAPC  C213 4493   3.238   3.758   9.462  0.6472  0.0100  0.1447
   59SAPC  H13R 4494   3.257   3.847   9.526 -1.4784 -1.1377  2.5521
   59SAPC  H13S 4495   3.174   3.785   9.375 -0.7267  0.3671  1.2227
   59SAPC  C214 4496   3.364   3.691   9.414  0.1900  0.2457  0.0488
   59SAPC  H14R 4497   3.435   3.685   9.497 -1.2154 -2.0478  1.1965
   59SAPC  C215 4498   3.388   3.636   9.293 -0.4558 -0.3972 -0.3919
   59SAPC  H15R 4499   3.489   3.597   9.274 -0.5363 -0.0334 -1.6259
   59SAPC  C216 4500   3.302   3.643   9.166 -0.4991 -0.0444  0.2848
   59SAPC  H16R 4501   3.254   3.743   9.171  0.8167  0.6199  0.1356
   59SAPC  H16S 4502   3.224   3.564   9.167 -0.2524 -0.2990 -0.1486
   59SAPC  C217 4503   3.386   3.645   9.037 -0.4629 -0.2999  0.9416
   59SAPC  H17R 4504   3.427   3.542   9.025  0.8060 -0.1056  3.0545
   59SAPC  H17S 4505   3.469   3.719   9.038 -0.4053 -0.2976 -0.8314
   59SAPC  C218 4506   3.323   3.661   8.897 -0.0902 -0.5434 -0.0696
   59SAPC  H18R 4507   3.284   3.564   8.856 -1.8461 -1.1043  2.6631
   59SAPC  H18S 4508   3.401   3.687   8.822 -2.3232 -0.3608 -2.4850
   59SAPC  C219 4509   3.229   3.779   8.891  0.9089 -0.0999 -0.1597
   59SAPC  H19R 4510   3.256   3.853   8.969  2.8825 -0.2574 -0.6338
   59SAPC  H19S 4511   3.128   3.749   8.926  1.0716  1.7959  2.1489
   59SAPC  C220 4512   3.215   3.831   8.752  0.4289  0.3794  0.2986
   59SAPC  H20R 4513   3.304   3.881   8.710  0.4322 -0.6789 -1.0439
   59SAPC  H20S 4514   3.139   3.911   8.747 -0.3828 -0.3187  1.0920
   59SAPC  H20T 4515   3.177   3.757   8.678  1.5215 -1.1577  1.2084
   59SAPC   C33 4516   3.448   4.215  10.629  0.1453  0.3317 -0.6534
   59SAPC   H3X 4517   3.415   4.272  10.719  0.0998 -1.6952  0.6693
   59SAPC   H3Y 4518   3.362   4.159  10.585 -0.4458  0.5840  0.1572
   59SAPC   C34 4519   3.474   4.334  10.532  0.3411 -0.4040  0.0648
   59SAPC   H4X 4520   3.559   4.390  10.578  0.1051  0.6462 -0.7369
   59SAPC   H4Y 4521   3.384   4.398  10.543 -0.6434 -1.8330  0.5016
   59SAPC   C35 4522   3.503   4.303  10.388  0.1096  0.2578  0.5320
   59SAPC   H5X 4523   3.434   4.229  10.342  1.0104  0.6780 -1.6180
   59SAPC   H5Y 4524   3.606   4.260  10.385  1.0899  2.5109  0.5083
   59SAPC   C36 4525   3.516   4.434  10.307  0.2105  0.4527  0.5993
   59SAPC   H6X 4526   3.556   4.512  10.376 -0.3393 -0.4426  1.9634
   59SAPC   H6Y 4527   3.418   4.471  10.270 -0.0495  0.4990  1.3083
   59SAPC   C37 4528   3.604   4.412  10.185 -0.3943 -0.2680  0.2817
   59SAPC   H7X 4529   3.652   4.313  10.199  1.8979  0.6760 -0.4475
   59SAPC   H7Y 4530   3.690   4.482  10.189  0.8384 -1.7661  1.8933
   59SAPC   C38 4531   3.526   4.410  10.058  0.6053 -0.3333  0.5334
   59SAPC   H8X 4532   3.593   4.442   9.975  1.6376  1.8577  2.0974
   59SAPC   H8Y 4533   3.455   4.495  10.051 -1.1423 -1.8624 -2.8203
   59SAPC   C39 4534   3.443   4.282  10.035  0.0677  0.0910  1.1691
   59SAPC   H9X 4535   3.357   4.290  10.104  0.6748 -2.8495  2.4395
   59SAPC   H9Y 4536   3.514   4.196  10.031 -1.1364 -0.9865  2.2674
   59SAPC  C310 4537   3.391   4.292   9.888 -0.2627  0.2526  0.6453
   59SAPC  H10X 4538   3.402   4.399   9.863 -2.6678 -0.4877 -5.1206
   59SAPC  H10Y 4539   3.285   4.262   9.872 -0.4194  0.3276  1.5068
   59SAPC  C311 4540   3.470   4.208   9.792  0.6888 -0.0104  0.3101
   59SAPC  H11X 4541   3.459   4.101   9.818  0.3782  0.1796  0.9981
   59SAPC  H11Y 4542   3.573   4.247   9.807  0.1959  0.8089  1.7728
   59SAPC  C312 4543   3.436   4.211   9.642  0.0782  0.6594  0.6628
   59SAPC  H12X 4544   3.456   4.311   9.597 -0.8427  0.9160  0.8181
   59SAPC  H12Y 4545   3.330   4.179   9.636  0.5623 -0.9854  0.4210
   59SAPC  C313 4546   3.519   4.106   9.572 -0.2493  0.5645  0.2583
   59SAPC  H13X 4547   3.492   4.015   9.630 -0.5293 -1.2519 -2.4811
   59SAPC  H13Y 4548   3.629   4.113   9.568 -0.1196 -1.1854 -0.5266
   59SAPC  C314 4549   3.464   4.081   9.431  0.9139  0.0041 -1.0723
   59SAPC  H14X 4550   3.436   4.174   9.377  0.0113  0.1422 -0.4009
   59SAPC  H14Y 4551   3.372   4.019   9.435  1.3501 -0.6056 -0.1347
   59SAPC  C315 4552   3.566   4.010   9.328 -0.1508  0.0931  0.7395
   59SAPC  H15X 4553   3.590   3.910   9.371 -2.6586 -0.3362  1.2926
   59SAPC  H15Y 4554   3.665   4.061   9.329  0.6616 -1.3629 -0.4013
   59SAPC  C316 4555   3.519   3.997   9.183 -0.1442 -0.6063 -1.0022
   59SAPC  H16X 4556   3.442   3.917   9.181  0.3861 -1.1438 -0.3824
   59SAPC  H16Y 4557   3.600   3.948   9.124  1.3722 -1.9298  1.9175
   59SAPC  C317 4558   3.462   4.120   9.119  0.1509 -0.2722  0.3022
   59SAPC  H17X 4559   3.531   4.204   9.142  2.0465 -2.4441  3.2397
   59SAPC  H17Y 4560   3.366   4.132   9.175 -0.1859 -2.6148  0.3074
   59SAPC  C318 4561   3.439   4.102   8.969  0.1701  0.4923 -0.4944
   59SAPC  H18X 4562   3.406   3.997   8.956 -2.4953  1.1015  0.5570
   59SAPC  H18Y 4563   3.533   4.122   8.914  2.1989 -0.6402  2.3097
   59SAPC  H18Z 4564   3.357   4.161   8.922  1.8394  1.8533 -1.8318
   60SAPC     N 4565   0.317   6.404  10.975 -0.1749 -0.2021 -0.2501
   60SAPC   C12 4566   0.390   6.484  11.086 -0.3869 -0.6077 -0.0438
   60SAPC  H12A 4567   0.493   6.453  11.093 -0.1948 -0.2161 -1.1025
   60SAPC  H12B 4568   0.344   6.456  11.180  0.4275  0.0293  0.5650
   60SAPC   C13 4569   0.389   6.407  10.850 -0.0686  0.2736  0.5833
   60SAPC  H13A 4570   0.345   6.351  10.769  2.8315  0.4003 -1.2196
   60SAPC  H13B 4571   0.423   6.506  10.823  2.2997  0.6632  4.2775
   60SAPC  H13C 4572   0.482   6.356  10.871 -1.0898 -0.5543  3.6571
   60SAPC   C14 4573   0.306   6.264  11.022  0.0886 -0.9157  0.4085
   60SAPC  H14A 4574   0.253   6.258  11.116 -1.2266  0.9957 -0.1516
   60SAPC  H14B 4575   0.246   6.201  10.958 -1.5421 -0.3082  1.2697
   60SAPC  H14C 4576   0.402   6.217  11.039  0.1885 -0.4631  1.1568
   60SAPC   C15 4577   0.178   6.472  10.955 -0.7196 -0.0487  0.1218
   60SAPC  H15A 4578   0.188   6.575  10.926  1.5797  0.2850  1.8635
   60SAPC  H15B 4579   0.121   6.420  10.880  0.3790  0.2520 -0.9392
   60SAPC  H15C 4580   0.128   6.463  11.051 -0.0410 -1.3110  0.3846
   60SAPC   C11 4581   0.392   6.644  11.072 -0.3377 -0.8109 -0.2251
   60SAPC  H11A 4582   0.430   6.694  11.164 -0.6737 -0.8947 -0.0372
   60SAPC  H11B 4583   0.293   6.691  11.055  0.7433  1.2382 -1.1629
   60SAPC     P 4584   0.620   6.705  10.961  0.1804  0.0984  0.3478
   60SAPC   O13 4585   0.655   6.830  11.034  0.3196  0.2161 -0.1023
   60SAPC   O14 4586   0.697   6.582  10.997  0.1964  0.4310  0.6245
   60SAPC   O12 4587   0.469   6.685  10.956  0.5154  0.2572 -0.5393
   60SAPC   O11 4588   0.640   6.735  10.806  0.4797  0.0582  0.2783
   60SAPC    C1 4589   0.671   6.634  10.711  0.6108 -0.1841 -0.1457
   60SAPC    HA 4590   0.782   6.629  10.715  0.5878 -0.4367  0.2530
   60SAPC    HB 4591   0.630   6.533  10.730  1.6764 -1.0878 -2.3364
   60SAPC    C2 4592   0.641   6.662  10.554 -0.7310 -0.0585  0.4486
   60SAPC    HS 4593   0.694   6.589  10.489  0.4186  1.4100 -0.3344
   60SAPC   O21 4594   0.693   6.797  10.520 -0.1424  0.1389  0.3286
   60SAPC   C21 4595   0.752   6.808  10.401  0.6262 -0.1162 -0.3332
   60SAPC   O22 4596   0.776   6.718  10.319  0.4679  0.2044 -0.2170
   60SAPC   C22 4597   0.797   6.954  10.389 -0.4985 -0.4587  0.7846
   60SAPC   H2R 4598   0.710   7.023  10.390  0.8082  1.2743  0.5843
   60SAPC   H2S 4599   0.855   6.974  10.482  0.1692  0.3150  0.2175
   60SAPC    C3 4600   0.495   6.658  10.509 -0.4331  0.1559  0.2327
   60SAPC    HX 4601   0.441   6.718  10.586  0.7374 -0.3299  1.4759
   60SAPC    HY 4602   0.456   6.554  10.510  0.7600 -0.3120  0.0897
   60SAPC   O31 4603   0.471   6.719  10.375  0.3977  0.1133  0.3284
   60SAPC   C31 4604   0.472   6.633  10.273 -0.6666  0.5754  0.1437
   60SAPC   O32 4605   0.530   6.524  10.280  0.4064  0.0495 -0.1159
   60SAPC   C32 4606   0.384   6.683  10.162  0.4296  0.0539  0.0119
   60SAPC   H2X 4607   0.293   6.710  10.219  0.5017  0.8625 -0.2455
   60SAPC   H2Y 4608   0.352   6.600  10.096 -2.7331 -0.6946  2.2725
   60SAPC   C23 4609   0.899   6.999  10.284  0.1423 -0.3313  0.5227
   60SAPC   H3R 4610   0.980   6.924  10.285  1.3802  0.9585  2.2659
   60SAPC   H3S 4611   0.932   7.096  10.327 -2.5127  0.5610  0.7964
   60SAPC   C24 4612   0.843   7.014  10.138 -0.2475 -0.2126 -0.5003
   60SAPC   H4R 4613   0.782   6.923  10.119  0.5145 -1.0479  0.8731
   60SAPC   H4S 4614   0.921   6.998  10.060  1.5932  1.2594  0.9270
   60SAPC   C25 4615   0.760   7.141  10.122 -0.1525  0.1882 -0.3501
   60SAPC   H5R 4616   0.715   7.170  10.218  0.2150  0.5630 -0.2880
   60SAPC   C26 4617   0.753   7.220  10.022  0.1557 -0.4377  0.2563
   60SAPC   H6R 4618   0.687   7.308  10.021  1.0977  0.3497  2.2985
   60SAPC   C27 4619   0.821   7.204   9.890 -0.2302 -0.0165  0.4244
   60SAPC   H7R 4620   0.753   7.182   9.805  0.5271  1.1610 -0.5263
   60SAPC   H7S 4621   0.886   7.115   9.891  1.2118  0.7181 -4.1126
   60SAPC   C28 4622   0.914   7.318   9.845  0.1164  0.1471 -0.4987
   60SAPC   H8R 4623   0.974   7.357   9.929  2.2011 -0.1361 -1.7792
   60SAPC   C29 4624   0.934   7.373   9.726  0.5688  0.1263  0.0634
   60SAPC   H9R 4625   1.009   7.453   9.728  0.6917  0.0058  1.2843
   60SAPC  C210 4626   0.875   7.338   9.591  0.3329  0.2697  0.0159
   60SAPC  H10R 4627   0.845   7.231   9.588 -0.2162  0.4112  0.2030
   60SAPC  H10S 4628   0.951   7.341   9.510 -1.2884  1.4310 -1.5473
   60SAPC  C211 4629   0.760   7.430   9.553 -0.5930 -0.3206  0.6632
   60SAPC  H11R 4630   0.681   7.428   9.629 -0.2072 -0.3222  1.0662
   60SAPC  C212 4631   0.747   7.513   9.446 -0.4903  0.6880 -0.4127
   60SAPC  H12R 4632   0.648   7.556   9.425 -1.1337 -0.2770  0.4754
   60SAPC  C213 4633   0.835   7.532   9.325 -0.1596 -0.0659  0.4060
   60SAPC  H13R 4634   0.938   7.505   9.357  0.3171 -0.0907 -1.1112
   60SAPC  H13S 4635   0.837   7.642   9.307 -0.3276 -0.1372 -0.0463
   60SAPC  C214 4636   0.800   7.475   9.192 -0.6218 -0.3456 -0.4521
   60SAPC  H14R 4637   0.722   7.397   9.196  0.0755 -1.0055  1.3945
   60SAPC  C215 4638   0.850   7.510   9.071  0.5200  0.4285  0.0569
   60SAPC  H15R 4639   0.833   7.444   8.985  0.2405 -2.1693  1.9671
   60SAPC  C216 4640   0.950   7.623   9.049 -0.4192  0.1672  0.1052
   60SAPC  H16R 4641   1.006   7.655   9.139 -2.3072 -0.2079  1.4885
   60SAPC  H16S 4642   0.881   7.705   9.022 -1.0309  0.1693  1.5657
   60SAPC  C217 4643   1.042   7.606   8.931  0.6307  0.1946  0.1318
   60SAPC  H17R 4644   1.083   7.504   8.912  0.4755  0.1164  0.2172
   60SAPC  H17S 4645   1.129   7.675   8.939  0.2656  0.5227  1.6109
   60SAPC  C218 4646   0.956   7.659   8.813  0.0952 -0.2230  0.1672
   60SAPC  H18R 4647   0.920   7.763   8.828  0.9721  0.1327 -0.1311
   60SAPC  H18S 4648   0.863   7.599   8.803 -1.9392  2.8914 -1.1260
   60SAPC  C219 4649   1.041   7.656   8.685  0.1067  0.6230 -0.8927
   60SAPC  H19R 4650   1.079   7.552   8.684 -1.0902  0.1511  0.4506
   60SAPC  H19S 4651   1.133   7.718   8.693  1.7908 -1.9216  1.2345
   60SAPC  C220 4652   0.958   7.678   8.558 -0.8704 -0.2080  0.4600
   60SAPC  H20R 4653   1.007   7.632   8.470 -0.2473  0.3146  0.5272
   60SAPC  H20S 4654   0.962   7.788   8.546  1.5063 -0.3622 -0.7638
   60SAPC  H20T 4655   0.854   7.638   8.561 -0.6617 -0.8337 -0.3368
   60SAPC   C33 4656   0.425   6.818  10.095  0.2306  0.2064 -0.1131
   60SAPC   H3X 4657   0.436   6.902  10.167 -2.0581  1.5786 -1.1967
   60SAPC   H3Y 4658   0.336   6.840  10.031  0.0294  0.5012  0.2587
   60SAPC   C34 4659   0.538   6.806   9.992 -0.6505  0.1341 -0.6374
   60SAPC   H4X 4660   0.610   6.730  10.028 -2.5425 -0.2801  2.6901
   60SAPC   H4Y 4661   0.596   6.901   9.997 -0.9848  0.3802 -1.2974
   60SAPC   C35 4662   0.500   6.794   9.845  0.4565  0.6372 -0.5536
   60SAPC   H5X 4663   0.415   6.722   9.833  0.1976  0.8129  0.1509
   60SAPC   H5Y 4664   0.589   6.759   9.788 -0.3478 -2.3207 -0.1739
   60SAPC   C36 4665   0.455   6.923   9.784 -0.6874  0.5218  0.0782
   60SAPC   H6X 4666   0.540   6.992   9.766  0.6390 -0.8758  0.8476
   60SAPC   H6Y 4667   0.383   6.972   9.853 -0.4254 -0.3873  1.0118
   60SAPC   C37 4668   0.378   6.886   9.655 -0.0396 -0.3667  0.2343
   60SAPC   H7X 4669   0.408   6.786   9.618  2.3299  1.0312 -2.0197
   60SAPC   H7Y 4670   0.433   6.940   9.574 -0.0735 -0.5213  0.1069
   60SAPC   C38 4671   0.222   6.893   9.657 -1.2732 -0.7887  0.1832
   60SAPC   H8X 4672   0.190   6.998   9.648  1.0657  0.4424  3.8324
   60SAPC   H8Y 4673   0.190   6.839   9.749 -1.2206 -0.3113  0.4814
   60SAPC   C39 4674   0.155   6.818   9.546  0.4161  0.8335 -0.3591
   60SAPC   H9X 4675   0.173   6.709   9.558 -0.8380  0.7418  1.0457
   60SAPC   H9Y 4676   0.198   6.842   9.447  1.7365  0.0910  0.0172
   60SAPC  C310 4677  -0.004   6.828   9.551 -0.1364  0.3213  0.1903
   60SAPC  H10X 4678  -0.023   6.919   9.611  2.6673  1.8854 -1.0801
   60SAPC  H10Y 4679  -0.043   6.734   9.596  1.3302 -0.7237 -0.6303
   60SAPC  C311 4680  -0.070   6.843   9.414  0.0694  0.6887 -0.7681
   60SAPC  H11X 4681  -0.180   6.847   9.429 -0.0013  0.7621 -1.2941
   60SAPC  H11Y 4682  -0.028   6.760   9.353  0.2231 -1.0968  1.6066
   60SAPC  C312 4683  -0.030   6.966   9.328 -0.8791  0.5211 -0.1563
   60SAPC  H12X 4684   0.079   6.964   9.308 -0.9076 -0.8939 -0.3140
   60SAPC  H12Y 4685  -0.054   7.054   9.391 -1.0830  1.1846 -1.1480
   60SAPC  C313 4686  -0.094   6.976   9.191  0.4111 -0.1892 -0.1984
   60SAPC  H13X 4687  -0.066   7.071   9.141  0.2874 -0.5271 -0.9320
   60SAPC  H13Y 4688  -0.204   6.968   9.203  0.2382  2.2230  0.2586
   60SAPC  C314 4689  -0.048   6.867   9.094 -0.7759  0.9132 -0.0392
   60SAPC  H14X 4690  -0.095   6.769   9.116 -3.1027  1.5249 -1.8244
   60SAPC  H14Y 4691   0.062   6.858   9.102 -0.9598  0.3147  2.3570
   60SAPC  C315 4692  -0.092   6.901   8.948  0.3790  0.3262 -0.4799
   60SAPC  H15X 4693  -0.063   7.007   8.933 -2.5860  1.3911  0.4786
   60SAPC  H15Y 4694  -0.202   6.883   8.942  0.7354 -2.0975 -0.4674
   60SAPC  C316 4695  -0.036   6.808   8.839 -0.1708  0.4601 -0.5316
   60SAPC  H16X 4696  -0.046   6.703   8.873 -1.6196  0.8745  0.4386
   60SAPC  H16Y 4697   0.074   6.821   8.835  0.0274 -0.6461  0.6641
   60SAPC  C317 4698  -0.090   6.832   8.698 -0.2093 -0.7429  0.0321
   60SAPC  H17X 4699  -0.081   6.937   8.665  0.1645 -0.7671  0.0482
   60SAPC  H17Y 4700  -0.200   6.820   8.697 -0.1852 -1.0431  0.5955
   60SAPC  C318 4701  -0.030   6.739   8.593 -0.3987  0.4551 -0.3386
   60SAPC  H18X 4702   0.010   6.650   8.647 -2.7163 -0.4400  0.0048
   60SAPC  H18Y 4703   0.049   6.775   8.523  1.2505 -1.0101  0.6721
   60SAPC  H18Z 4704  -0.112   6.696   8.532  0.6646 -1.2544 -0.6185
   61SAPC     N 4705   0.480   5.421  11.365  0.1385 -0.6518  0.3848
   61SAPC   C12 4706   0.405   5.321  11.275 -0.3412 -0.2285  0.1571
   61SAPC  H12A 4707   0.319   5.365  11.228 -0.1493  1.0896  0.9914
   61SAPC  H12B 4708   0.363   5.247  11.342  0.4142  0.7825  1.8089
   61SAPC   C13 4709   0.540   5.531  11.285 -0.5498 -0.1269  0.0917
   61SAPC  H13A 4710   0.582   5.615  11.339  0.2028 -0.8772  0.6926
   61SAPC  H13B 4711   0.610   5.474  11.225  0.1816  0.8406 -0.0167
   61SAPC  H13C 4712   0.478   5.567  11.204 -0.7166 -0.9052 -0.1308
   61SAPC   C14 4713   0.388   5.492  11.461 -0.2604  0.5069  0.6692
   61SAPC  H14A 4714   0.442   5.549  11.536 -1.7875  2.2385  0.5306
   61SAPC  H14B 4715   0.328   5.562  11.405  1.1510  0.0547 -1.5032
   61SAPC  H14C 4716   0.322   5.420  11.508 -0.5839 -0.6570 -1.4805
   61SAPC   C15 4717   0.579   5.341  11.440  0.6117 -0.1835 -0.4339
   61SAPC  H15A 4718   0.519   5.265  11.488 -1.9187  3.2328  2.4424
   61SAPC  H15B 4719   0.652   5.292  11.377  0.7901  1.5917 -1.6905
   61SAPC  H15C 4720   0.627   5.402  11.515 -2.5446  1.4633  0.4632
   61SAPC   C11 4721   0.497   5.236  11.183 -0.2549 -0.1266  0.3259
   61SAPC  H11A 4722   0.440   5.151  11.139 -1.9409 -0.0292  2.1419
   61SAPC  H11B 4723   0.582   5.192  11.240 -0.9330 -1.4561  0.3458
   61SAPC     P 4724   0.512   5.341  10.938 -0.1768 -0.1668 -0.3800
   61SAPC   O13 4725   0.402   5.249  10.907 -0.4231 -1.0356 -0.0674
   61SAPC   O14 4726   0.482   5.484  10.927  0.2975 -0.8267 -0.3118
   61SAPC   O12 4727   0.563   5.316  11.089  0.2006  0.1351  0.2612
   61SAPC   O11 4728   0.638   5.309  10.845 -0.2814 -0.5761 -0.1896
   61SAPC    C1 4729   0.755   5.400  10.858 -0.4288 -0.3574  0.6775
   61SAPC    HA 4730   0.764   5.447  10.958  2.1986  2.0170 -0.5369
   61SAPC    HB 4731   0.852   5.345  10.857  1.4781  2.7822  0.2744
   61SAPC    C2 4732   0.752   5.512  10.749  0.5921  0.3553 -0.6552
   61SAPC    HS 4733   0.658   5.570  10.759  2.0296  2.7123 -0.0154
   61SAPC   O21 4734   0.757   5.442  10.625 -0.2110 -0.3386 -0.1868
   61SAPC   C21 4735   0.666   5.489  10.537  0.4847  0.1487 -0.0108
   61SAPC   O22 4736   0.590   5.579  10.555 -0.2077  0.4847  0.0904
   61SAPC   C22 4737   0.676   5.406  10.416  0.7485 -0.1596 -0.1043
   61SAPC   H2R 4738   0.772   5.440  10.371  0.3571 -0.1568 -0.9440
   61SAPC   H2S 4739   0.679   5.296  10.436 -2.0602 -0.4276 -0.7022
   61SAPC    C3 4740   0.880   5.607  10.759  0.0933  0.2042 -0.5994
   61SAPC    HX 4741   0.972   5.547  10.741  0.8550  1.2833 -0.3927
   61SAPC    HY 4742   0.908   5.644  10.860  0.8724 -2.5661  0.3101
   61SAPC   O31 4743   0.878   5.712  10.665  0.0467  0.0110 -0.8079
   61SAPC   C31 4744   0.777   5.804  10.671 -0.2986 -1.0737  0.1622
   61SAPC   O32 4745   0.699   5.811  10.764 -0.3212  0.0265  0.4662
   61SAPC   C32 4746   0.774   5.894  10.544  0.1078 -0.4554 -0.9607
   61SAPC   H2X 4747   0.861   5.963  10.551  2.1677 -2.8792 -1.1046
   61SAPC   H2Y 4748   0.680   5.951  10.557 -0.7272 -2.3643  2.4343
   61SAPC   C23 4749   0.559   5.435  10.319  0.2975  0.0421  0.6057
   61SAPC   H3R 4750   0.535   5.542  10.299  0.9308  0.0310 -0.2901
   61SAPC   H3S 4751   0.468   5.384  10.357  0.7689 -0.1642  1.4773
   61SAPC   C24 4752   0.585   5.381  10.183  0.0953  1.0962  0.3013
   61SAPC   H4R 4753   0.484   5.391  10.138  0.3103  1.6480 -0.0598
   61SAPC   H4S 4754   0.610   5.273  10.197 -1.0317  0.7820  0.0102
   61SAPC   C25 4755   0.695   5.447  10.099  0.3391  0.6131 -0.0516
   61SAPC   H5R 4756   0.794   5.411  10.128  0.0765  1.4550  2.0689
   61SAPC   C26 4757   0.672   5.513   9.982  0.2373 -1.5356 -0.2731
   61SAPC   H6R 4758   0.764   5.556   9.939 -0.8388  2.4703  1.0198
   61SAPC   C27 4759   0.539   5.563   9.919  0.5663 -0.2095 -0.6726
   61SAPC   H7R 4760   0.514   5.670   9.937  0.8819 -0.4007  1.1084
   61SAPC   H7S 4761   0.450   5.510   9.961  0.1497  1.5316  0.7769
   61SAPC   C28 4762   0.541   5.539   9.768 -0.2071  0.5275 -0.3588
   61SAPC   H8R 4763   0.581   5.439   9.744  1.7778  1.3611 -0.6507
   61SAPC   C29 4764   0.520   5.625   9.670 -0.1373 -0.7323 -0.4351
   61SAPC   H9R 4765   0.524   5.597   9.563 -0.6387 -0.2891 -0.5747
   61SAPC  C210 4766   0.481   5.772   9.683  0.8354  0.4920 -0.0672
   61SAPC  H10R 4767   0.401   5.781   9.759 -0.0847 -0.0798 -0.9462
   61SAPC  H10S 4768   0.431   5.796   9.587 -1.7672  1.4155  1.4208
   61SAPC  C211 4769   0.590   5.863   9.726 -0.5101  0.4260 -0.2231
   61SAPC  H11R 4770   0.627   5.859   9.830 -0.5481 -0.5593 -0.2397
   61SAPC  C212 4771   0.657   5.956   9.652  0.7549  0.1476 -0.5429
   61SAPC  H12R 4772   0.737   6.011   9.703 -1.0040  1.4618  0.9353
   61SAPC  C213 4773   0.624   5.986   9.510  0.5962 -0.0962  0.0655
   61SAPC  H13R 4774   0.664   6.089   9.494  1.6499 -0.0882  2.3426
   61SAPC  H13S 4775   0.515   5.989   9.488  0.4639 -0.5835  0.6340
   61SAPC  C214 4776   0.690   5.883   9.417  0.7187  0.4887  0.0476
   61SAPC  H14R 4777   0.792   5.865   9.453  0.2129  1.0486  1.8432
   61SAPC  C215 4778   0.633   5.829   9.306 -0.3547 -0.6751  0.8480
   61SAPC  H15R 4779   0.702   5.767   9.247 -1.3011  0.3362 -1.4741
   61SAPC  C216 4780   0.508   5.853   9.236  0.4192 -0.2930  0.4618
   61SAPC  H16R 4781   0.529   5.908   9.143  0.4714  1.4849  1.4821
   61SAPC  H16S 4782   0.439   5.905   9.306  1.5514  1.7293  0.1228
   61SAPC  C217 4783   0.430   5.728   9.192 -0.4386 -0.4098  0.2435
   61SAPC  H17R 4784   0.334   5.764   9.150  0.2150  3.2059  1.4757
   61SAPC  H17S 4785   0.420   5.668   9.285  0.9244 -2.0751 -0.6342
   61SAPC  C218 4786   0.497   5.646   9.078  0.2555  0.1976 -0.2935
   61SAPC  H18R 4787   0.425   5.562   9.066  1.4322 -0.9960  0.6679
   61SAPC  H18S 4788   0.594   5.607   9.118  0.9198  2.0574 -0.0016
   61SAPC  C219 4789   0.527   5.723   8.951  0.7398  0.0069  0.6830
   61SAPC  H19R 4790   0.616   5.789   8.962  1.9048 -1.0511 -1.6017
   61SAPC  H19S 4791   0.442   5.790   8.924  0.5490 -0.6967 -0.5228
   61SAPC  C220 4792   0.562   5.629   8.836  0.3001 -0.2302 -0.7040
   61SAPC  H20R 4793   0.630   5.551   8.876 -0.9862 -0.5806  0.9299
   61SAPC  H20S 4794   0.608   5.692   8.757  0.0373 -0.3389 -0.9448
   61SAPC  H20T 4795   0.466   5.581   8.808  0.0249 -1.4594  2.0567
   61SAPC   C33 4796   0.775   5.830  10.403 -0.3925  0.2136  0.0434
   61SAPC   H3X 4797   0.682   5.770  10.401 -0.3721  0.1805  0.1036
   61SAPC   H3Y 4798   0.866   5.766  10.402  0.2484  1.0800 -2.0084
   61SAPC   C34 4799   0.796   5.928  10.286  0.4438  0.2895  0.1779
   61SAPC   H4X 4800   0.870   6.004  10.319 -1.1664  2.1033 -0.2497
   61SAPC   H4Y 4801   0.707   5.992  10.269  0.8140  0.2571 -2.3124
   61SAPC   C35 4802   0.825   5.850  10.158  0.3146 -0.4654  0.0173
   61SAPC   H5X 4803   0.760   5.897  10.081 -1.0023 -1.3369  0.5607
   61SAPC   H5Y 4804   0.776   5.751  10.168 -3.7787  1.3221 -0.4015
   61SAPC   C36 4805   0.977   5.848  10.116  0.2257 -0.3577 -0.3357
   61SAPC   H6X 4806   1.041   5.826  10.204 -0.9454 -1.0745  0.3542
   61SAPC   H6Y 4807   0.990   5.951  10.075 -1.3704 -0.1334 -0.3623
   61SAPC   C37 4808   1.017   5.747  10.011 -0.4899 -0.1409 -0.1873
   61SAPC   H7X 4809   0.982   5.644  10.032  0.1715 -0.4482 -0.5503
   61SAPC   H7Y 4810   1.126   5.728  10.019 -0.8053 -1.5278  1.4462
   61SAPC   C38 4811   0.973   5.773   9.866  0.2037 -0.2205 -0.0128
   61SAPC   H8X 4812   0.993   5.879   9.839  0.8459 -0.2298  0.4078
   61SAPC   H8Y 4813   0.866   5.752   9.844  0.5035  0.0473 -1.8522
   61SAPC   C39 4814   1.045   5.685   9.756 -0.4754  0.1538 -0.7876
   61SAPC   H9X 4815   1.041   5.577   9.782 -1.9167  0.8371  2.3442
   61SAPC   H9Y 4816   1.150   5.719   9.746  0.4087 -1.8667  0.9912
   61SAPC  C310 4817   0.985   5.700   9.612 -0.3473  0.1422  0.7645
   61SAPC  H10X 4818   0.960   5.807   9.592  1.2540  0.2360 -0.9877
   61SAPC  H10Y 4819   0.892   5.640   9.605  0.6866 -1.4924  0.6993
   61SAPC  C311 4820   1.089   5.647   9.511  0.5948  0.1306  0.2137
   61SAPC  H11X 4821   1.090   5.536   9.512  2.2116  0.0840 -0.8407
   61SAPC  H11Y 4822   1.192   5.684   9.532  2.1090 -2.7915 -1.3011
   61SAPC  C312 4823   1.051   5.688   9.367 -0.3995  0.8642  0.9954
   61SAPC  H12X 4824   1.141   5.665   9.305 -1.4180 -0.7341  0.0294
   61SAPC  H12Y 4825   1.042   5.799   9.364 -0.7483  0.8154 -0.7454
   61SAPC  C313 4826   0.937   5.605   9.314  0.2473 -1.1241  0.1749
   61SAPC  H13X 4827   0.841   5.644   9.356  0.3594  2.0041 -2.1223
   61SAPC  H13Y 4828   0.949   5.500   9.348  0.2044 -0.4536  2.4301
   61SAPC  C314 4829   0.903   5.618   9.163 -1.0529  0.5367  0.3844
   61SAPC  H14X 4830   0.910   5.722   9.127 -0.7948  0.0372 -1.0669
   61SAPC  H14Y 4831   0.802   5.584   9.130 -0.3913 -1.0900 -0.0646
   61SAPC  C315 4832   1.009   5.529   9.095  0.0965 -0.5836 -0.2387
   61SAPC  H15X 4833   0.993   5.420   9.106  0.4464 -0.4481  1.8234
   61SAPC  H15Y 4834   1.105   5.556   9.144  0.9896  1.0043 -2.6196
   61SAPC  C316 4835   1.005   5.531   8.940 -0.2114  0.5906 -0.0024
   61SAPC  H16X 4836   1.000   5.636   8.904  0.0458  0.3816 -0.6640
   61SAPC  H16Y 4837   0.921   5.471   8.897  1.4711 -0.1987 -2.4334
   61SAPC  C317 4838   1.137   5.479   8.883  0.3101 -0.0159 -0.1424
   61SAPC  H17X 4839   1.124   5.450   8.776 -1.4702 -1.7324  0.4792
   61SAPC  H17Y 4840   1.162   5.383   8.932 -0.8445  0.9466  2.5020
   61SAPC  C318 4841   1.239   5.585   8.890  0.2182 -0.3140 -0.4572
   61SAPC  H18X 4842   1.215   5.676   8.832  0.7682 -0.9918 -1.8096
   61SAPC  H18Y 4843   1.327   5.540   8.838  0.6872  0.6663 -0.5362
   61SAPC  H18Z 4844   1.264   5.600   8.997 -1.5847 -0.8778  0.0697
   62SAPC     N 4845   0.218   5.693  10.722 -0.2444 -0.4115 -0.5340
   62SAPC   C12 4846   0.353   5.760  10.718 -0.0142  0.3058  0.2490
   62SAPC  H12A 4847   0.412   5.701  10.650 -1.0596 -0.3242 -0.1264
   62SAPC  H12B 4848   0.410   5.750  10.809  1.3618 -0.5379 -0.6618
   62SAPC   C13 4849   0.139   5.728  10.603  0.0221  0.2477  0.0261
   62SAPC  H13A 4850   0.144   5.835  10.595  2.1038  0.2027 -0.0005
   62SAPC  H13B 4851   0.187   5.692  10.513 -4.1022 -0.4555 -2.1466
   62SAPC  H13C 4852   0.036   5.696  10.605 -1.0181  3.1214 -1.3872
   62SAPC   C14 4853   0.244   5.545  10.731  0.2506  0.4816  0.5803
   62SAPC  H14A 4854   0.151   5.491  10.736  0.8539 -0.5492  1.1704
   62SAPC  H14B 4855   0.302   5.511  10.646  0.9227  0.4264  1.0479
   62SAPC  H14C 4856   0.321   5.519  10.802  0.0140  0.3620  0.7967
   62SAPC   C15 4857   0.149   5.728  10.852 -0.2952 -0.2684 -0.1123
   62SAPC  H15A 4858   0.053   5.679  10.854  0.2141 -1.3512 -1.0284
   62SAPC  H15B 4859   0.212   5.701  10.935  0.5774 -0.9904 -0.9779
   62SAPC  H15C 4860   0.128   5.833  10.863  1.8727  0.4210 -1.7535
   62SAPC   C11 4861   0.370   5.912  10.660 -0.1452  0.8898  0.0823
   62SAPC  H11A 4862   0.385   5.919  10.550  2.5102  0.4852  0.3639
   62SAPC  H11B 4863   0.462   5.948  10.711  0.0618 -0.1658  0.4749
   62SAPC     P 4864   0.193   6.112  10.653  0.3270 -0.3672  0.0563
   62SAPC   O13 4865   0.111   6.182  10.758 -0.7239  0.0324  0.2266
   62SAPC   O14 4866   0.300   6.190  10.591  0.1158 -0.2744  0.1091
   62SAPC   O12 4867   0.271   5.991  10.720  0.1794  0.6752  1.1885
   62SAPC   O11 4868   0.101   6.047  10.544  1.1411  0.5334 -0.5175
   62SAPC    C1 4869   0.046   6.134  10.441  0.3944 -0.3446 -0.4653
   62SAPC    HA 4870  -0.043   6.091  10.392 -1.1289  0.7152  1.2545
   62SAPC    HB 4871   0.015   6.235  10.476  0.3295  0.2794 -2.2384
   62SAPC    C2 4872   0.143   6.142  10.319 -0.6637 -0.0438  0.0627
   62SAPC    HS 4873   0.235   6.191  10.357 -2.4738  1.1059  3.4447
   62SAPC   O21 4874   0.078   6.217  10.216 -0.1488  0.0677 -0.2678
   62SAPC   C21 4875   0.098   6.342  10.205  0.5229  0.3009  0.0331
   62SAPC   O22 4876   0.179   6.411  10.271  0.5783 -0.0955 -0.1707
   62SAPC   C22 4877  -0.000   6.395  10.098  0.0949  0.5321 -0.6972
   62SAPC   H2R 4878  -0.025   6.309  10.033 -1.2282  0.4324 -0.0883
   62SAPC   H2S 4879  -0.090   6.430  10.153  0.4922  2.9658 -1.4443
   62SAPC    C3 4880   0.186   5.998  10.268  0.3411 -0.6146  1.1743
   62SAPC    HX 4881   0.097   5.951  10.221  1.1045 -0.9651  0.0385
   62SAPC    HY 4882   0.224   5.936  10.352  0.9511 -0.8756  0.7166
   62SAPC   O31 4883   0.277   5.996  10.161  0.0071  0.4167  0.7413
   62SAPC   C31 4884   0.400   6.033  10.181 -0.2197  0.4628  0.1487
   62SAPC   O32 4885   0.443   6.077  10.286 -0.2214 -0.2930 -0.1037
   62SAPC   C32 4886   0.478   6.034  10.042  0.0036  0.8851  0.5268
   62SAPC   H2X 4887   0.408   6.010   9.959  0.5085 -0.6468  0.5089
   62SAPC   H2Y 4888   0.537   5.941  10.054 -0.4520  0.7873  2.3112
   62SAPC   C23 4889   0.041   6.515  10.019 -0.3464 -0.0403 -0.7621
   62SAPC   H3R 4890   0.134   6.496   9.961 -0.7450  0.0398 -1.4426
   62SAPC   H3S 4891   0.063   6.593  10.094  2.2761 -1.1359 -0.2823
   62SAPC   C24 4892  -0.073   6.567   9.921 -0.4680 -0.0286 -0.2434
   62SAPC   H4R 4893  -0.113   6.483   9.860 -2.1407  0.0763  0.6538
   62SAPC   H4S 4894  -0.031   6.638   9.847  0.0331  0.2007  0.2590
   62SAPC   C25 4895  -0.197   6.629   9.980  0.2222  0.2468 -0.1966
   62SAPC   H5R 4896  -0.171   6.698  10.061  0.3473 -1.1433  0.9743
   62SAPC   C26 4897  -0.327   6.614   9.940  0.4773  0.2837  0.4200
   62SAPC   H6R 4898  -0.403   6.667  10.000 -0.4025 -0.5994  0.1205
   62SAPC   C27 4899  -0.373   6.534   9.818 -0.0441 -0.1466 -0.4831
   62SAPC   H7R 4900  -0.460   6.470   9.844  0.8349 -0.7428  1.0675
   62SAPC   H7S 4901  -0.292   6.466   9.787  0.5983  0.4837 -0.2062
   62SAPC   C28 4902  -0.419   6.620   9.701  0.3820  0.0254 -0.5336
   62SAPC   H8R 4903  -0.436   6.726   9.722 -3.4397 -1.1577  3.9313
   62SAPC   C29 4904  -0.410   6.584   9.572 -0.1015 -0.2038 -0.1898
   62SAPC   H9R 4905  -0.436   6.649   9.488 -0.7928 -0.3704 -0.1055
   62SAPC  C210 4906  -0.365   6.448   9.517 -0.0342 -0.2447 -0.4155
   62SAPC  H10R 4907  -0.339   6.376   9.597  1.8381  0.1756 -0.6020
   62SAPC  H10S 4908  -0.269   6.463   9.463  0.0646 -1.5345 -0.6263
   62SAPC  C211 4909  -0.471   6.387   9.423  0.2429 -0.2068 -0.3832
   62SAPC  H11R 4910  -0.538   6.316   9.474  0.9159  1.4364  3.1279
   62SAPC  C212 4911  -0.489   6.424   9.288 -0.5472 -0.1941  0.1432
   62SAPC  H12R 4912  -0.563   6.365   9.232  0.6524 -2.4407  0.7845
   62SAPC  C213 4913  -0.388   6.510   9.208  0.3123 -0.2739  0.2412
   62SAPC  H13R 4914  -0.292   6.454   9.203 -0.3273 -1.3074 -1.3253
   62SAPC  H13S 4915  -0.362   6.602   9.264 -0.2698  0.2237 -0.2929
   62SAPC  C214 4916  -0.437   6.560   9.079  0.3470 -0.1703  0.3491
   62SAPC  H14R 4917  -0.530   6.618   9.093 -0.0443 -0.9396  1.0267
   62SAPC  C215 4918  -0.395   6.523   8.956 -0.3105 -0.1596  0.8566
   62SAPC  H15R 4919  -0.444   6.574   8.872 -0.0944 -0.2246  0.6913
   62SAPC  C216 4920  -0.281   6.429   8.925 -0.4798  1.0916 -0.7375
   62SAPC  H16R 4921  -0.301   6.324   8.952 -0.8753  1.0928 -1.0110
   62SAPC  H16S 4922  -0.196   6.455   8.992 -1.5192 -0.0811  1.1005
   62SAPC  C217 4923  -0.240   6.428   8.778  0.7078  0.1789 -0.3345
   62SAPC  H17R 4924  -0.159   6.353   8.765 -0.2036 -0.7588 -0.7458
   62SAPC  H17S 4925  -0.203   6.528   8.748 -0.1195  1.3040  2.0906
   62SAPC  C218 4926  -0.350   6.371   8.687  0.2004 -0.0324  0.3471
   62SAPC  H18R 4927  -0.448   6.424   8.683 -0.6023 -1.4363  0.8131
   62SAPC  H18S 4928  -0.373   6.273   8.734  0.2376  0.0811  0.6020
   62SAPC  C219 4929  -0.307   6.350   8.541 -0.3120 -0.0221 -0.5147
   62SAPC  H19R 4930  -0.202   6.314   8.546 -0.8715 -1.6017  1.4924
   62SAPC  H19S 4931  -0.302   6.453   8.500  1.6669  0.0982 -0.0706
   62SAPC  C220 4932  -0.393   6.259   8.455  0.3326 -0.4178 -0.3280
   62SAPC  H20R 4933  -0.356   6.155   8.464  2.5305  0.2920 -0.6042
   62SAPC  H20S 4934  -0.396   6.291   8.348  2.9377  1.6995  0.1078
   62SAPC  H20T 4935  -0.498   6.257   8.490 -0.8040 -1.2012 -3.4250
   62SAPC   C33 4936   0.572   6.146  10.016  0.4139  0.1270 -0.1848
   62SAPC   H3X 4937   0.629   6.143   9.920  1.8436  0.3983  0.6328
   62SAPC   H3Y 4938   0.645   6.150  10.099 -0.4453 -1.4401  0.7018
   62SAPC   C34 4939   0.497   6.282  10.001 -0.6770 -0.3060 -0.3392
   62SAPC   H4X 4940   0.577   6.355   9.978  0.7019 -1.2753  1.1869
   62SAPC   H4Y 4941   0.454   6.303  10.102 -0.0304  1.4599 -0.3903
   62SAPC   C35 4942   0.378   6.300   9.905  0.5516  0.1665  1.2189
   62SAPC   H5X 4943   0.344   6.406   9.903  0.9326  0.2803  0.2733
   62SAPC   H5Y 4944   0.294   6.238   9.943 -0.7219  0.3986 -1.0046
   62SAPC   C36 4945   0.415   6.272   9.752 -0.0506 -0.4995  0.2009
   62SAPC   H6X 4946   0.322   6.290   9.694  0.8414  0.2589 -1.0200
   62SAPC   H6Y 4947   0.451   6.169   9.733 -0.1205 -0.4602 -0.1440
   62SAPC   C37 4948   0.525   6.371   9.707 -0.7455  0.0650  0.2662
   62SAPC   H7X 4949   0.615   6.356   9.770  0.1361  1.3748 -0.6347
   62SAPC   H7Y 4950   0.486   6.474   9.718  0.1779  0.5518 -0.8201
   62SAPC   C38 4951   0.572   6.368   9.562  0.4538  0.1675  0.0353
   62SAPC   H8X 4952   0.491   6.408   9.498  1.1635 -0.7035 -1.4683
   62SAPC   H8Y 4953   0.608   6.271   9.520 -1.8600 -0.9665  0.5137
   62SAPC   C39 4954   0.690   6.471   9.545  0.2738  0.4440 -0.3628
   62SAPC   H9X 4955   0.783   6.438   9.596  0.3250 -1.1641 -1.4225
   62SAPC   H9Y 4956   0.659   6.572   9.580 -0.8096  0.3852 -1.1309
   62SAPC  C310 4957   0.715   6.497   9.391 -0.4107 -0.7677  0.0463
   62SAPC  H10X 4958   0.777   6.588   9.384 -0.3860 -0.7679  0.2506
   62SAPC  H10Y 4959   0.626   6.515   9.328  1.3284 -0.0066 -2.3059
   62SAPC  C311 4960   0.789   6.388   9.314  0.1269  0.1164  0.3347
   62SAPC  H11X 4961   0.722   6.319   9.259 -0.7171  1.5448 -0.5071
   62SAPC  H11Y 4962   0.842   6.330   9.392  3.9103  3.5166  0.6032
   62SAPC  C312 4963   0.884   6.441   9.210  0.2086 -0.2825 -0.6325
   62SAPC  H12X 4964   0.956   6.373   9.159  4.8284  2.3445  1.7735
   62SAPC  H12Y 4965   0.957   6.504   9.264 -0.8484  2.0249 -1.7628
   62SAPC  C313 4966   0.819   6.528   9.107  0.2411  0.4602 -1.2595
   62SAPC  H13X 4967   0.863   6.630   9.116  2.2817 -0.4533 -0.3337
   62SAPC  H13Y 4968   0.712   6.552   9.129  0.3322 -0.5742  0.5225
   62SAPC  C314 4969   0.824   6.474   8.970 -0.6185  0.7859 -0.3374
   62SAPC  H14X 4970   0.783   6.371   8.976 -0.3001  0.4385 -3.0103
   62SAPC  H14Y 4971   0.927   6.471   8.930 -0.1490 -0.9190  0.8645
   62SAPC  C315 4972   0.740   6.546   8.867 -0.0952  0.2406 -0.0836
   62SAPC  H15X 4973   0.746   6.657   8.873 -0.8740  0.2002  1.8541
   62SAPC  H15Y 4974   0.633   6.517   8.874  0.1741 -0.6616  0.4567
   62SAPC  C316 4975   0.777   6.522   8.717  0.2706 -0.3526  0.2026
   62SAPC  H16X 4976   0.703   6.457   8.666  0.5587 -0.2621 -0.3353
   62SAPC  H16Y 4977   0.872   6.466   8.716 -0.4130 -1.5561 -1.0737
   62SAPC  C317 4978   0.768   6.658   8.648  0.3121  0.3080  0.0561
   62SAPC  H17X 4979   0.678   6.715   8.676  0.5421  0.6273  0.1508
   62SAPC  H17Y 4980   0.758   6.638   8.539 -0.1674  0.0518  0.1451
   62SAPC  C318 4981   0.901   6.740   8.661  0.3572  0.0745  0.1909
   62SAPC  H18X 4982   0.900   6.825   8.589 -1.6559  0.0291  0.1134
   62SAPC  H18Y 4983   0.986   6.674   8.636 -0.9245 -1.1153 -1.2297
   62SAPC  H18Z 4984   0.921   6.782   8.762 -0.9002  0.6736  0.2173
   63SAPC     N 4985   3.731   4.527   6.197 -0.8774  0.2917  0.1200
   63SAPC   C12 4986   3.794   4.657   6.225 -0.0444 -0.5004 -0.2025
   63SAPC  H12A 4987   3.896   4.645   6.191 -0.7465 -0.4988 -2.4768
   63SAPC  H12B 4988   3.792   4.684   6.330 -0.4690  3.4638 -1.1051
   63SAPC   C13 4989   3.727   4.499   6.042 -0.1422  0.1221 -0.5328
   63SAPC  H13A 4990   3.685   4.401   6.021  1.8456 -0.4884 -1.9759
   63SAPC  H13B 4991   3.684   4.580   5.984  0.0339  1.0771  0.6415
   63SAPC  H13C 4992   3.832   4.496   6.017  0.7371  1.2744  2.6011
   63SAPC   C14 4993   3.793   4.400   6.254  0.6068 -0.0334  0.5566
   63SAPC  H14A 4994   3.726   4.326   6.211 -0.2637  1.4412 -0.7011
   63SAPC  H14B 4995   3.892   4.395   6.213 -1.2074  2.8662 -5.2632
   63SAPC  H14C 4996   3.794   4.394   6.362  2.2605 -1.9759  0.5038
   63SAPC   C15 4997   3.593   4.519   6.255  0.2167 -0.2693  0.4968
   63SAPC  H15A 4998   3.593   4.512   6.363 -0.4539 -1.8121  0.4173
   63SAPC  H15B 4999   3.544   4.613   6.232  2.2951  0.7650  0.0478
   63SAPC  H15C 5000   3.542   4.435   6.210 -0.8480  1.9874 -2.8382
   63SAPC   C11 5001   3.734   4.774   6.156  0.2762 -0.1718 -0.1677
   63SAPC  H11A 5002   3.746   4.762   6.046  0.2124 -1.5419 -0.0445
   63SAPC  H11B 5003   3.788   4.869   6.175 -2.5728  1.6418 -0.4796
   63SAPC     P 5004   3.547   4.894   6.292  0.5467  0.0864  0.1508
   63SAPC   O13 5005   3.541   5.027   6.229  0.0459  0.4394 -0.0491
   63SAPC   O14 5006   3.416   4.830   6.316 -0.1860 -0.1300 -0.3345
   63SAPC   O12 5007   3.592   4.790   6.182 -0.3672 -0.4531  0.5630
   63SAPC   O11 5008   3.641   4.878   6.412 -0.6633  0.6915  0.2986
   63SAPC    C1 5009   3.620   4.779   6.512  0.1509 -0.2970 -0.5875
   63SAPC    HA 5010   3.583   4.685   6.466  1.0149 -1.9081  1.8064
   63SAPC    HB 5011   3.716   4.752   6.563  0.1545  0.6381 -0.0761
   63SAPC    C2 5012   3.508   4.820   6.616  0.2320  0.3455  0.5231
   63SAPC    HS 5013   3.414   4.841   6.561  0.6272  0.5737 -0.0808
   63SAPC   O21 5014   3.556   4.922   6.703 -0.3239 -0.7683 -0.0451
   63SAPC   C21 5015   3.480   5.029   6.709 -0.1462  0.5381 -0.2511
   63SAPC   O22 5016   3.389   5.056   6.633  0.1360 -0.0782 -0.2020
   63SAPC   C22 5017   3.533   5.120   6.814 -0.4884 -0.0116 -0.5602
   63SAPC   H2R 5018   3.614   5.076   6.877 -0.8128  2.3288  1.6680
   63SAPC   H2S 5019   3.579   5.204   6.757  1.0085  1.0346  1.9967
   63SAPC    C3 5020   3.478   4.689   6.698  0.0834 -0.2193  0.3531
   63SAPC    HX 5021   3.570   4.629   6.718 -0.7069 -1.2353  1.0624
   63SAPC    HY 5022   3.409   4.633   6.632 -0.7175  1.3776 -0.2234
   63SAPC   O31 5023   3.421   4.720   6.829  0.2885  0.0618 -0.1122
   63SAPC   C31 5024   3.305   4.678   6.855 -0.7536  0.2343 -0.7754
   63SAPC   O32 5025   3.213   4.648   6.781 -0.0224 -0.1032 -0.4668
   63SAPC   C32 5026   3.286   4.665   7.010 -0.1353 -0.3271 -0.2095
   63SAPC   H2X 5027   3.273   4.771   7.039  2.1235 -0.0307 -0.1261
   63SAPC   H2Y 5028   3.375   4.629   7.066 -0.8502 -0.8899  0.6028
   63SAPC   C23 5029   3.425   5.163   6.926 -0.4985  0.4588 -0.1314
   63SAPC   H3R 5030   3.345   5.220   6.874 -0.8096 -0.6269 -0.8735
   63SAPC   H3S 5031   3.476   5.231   6.998  1.6287 -1.0356 -0.1192
   63SAPC   C24 5032   3.356   5.044   7.000 -0.0845  0.7475  0.4075
   63SAPC   H4R 5033   3.329   4.978   6.915  1.0010 -1.6852  1.8486
   63SAPC   H4S 5034   3.263   5.082   7.047 -0.9127  1.4531 -1.6721
   63SAPC   C25 5035   3.454   4.970   7.085 -0.7752  0.2781 -1.0602
   63SAPC   H5R 5036   3.533   4.920   7.027 -2.3174 -1.4515 -1.7838
   63SAPC   C26 5037   3.458   4.962   7.215 -0.8518  0.5700 -0.2864
   63SAPC   H6R 5038   3.545   4.913   7.260 -2.6949 -3.4264 -0.7237
   63SAPC   C27 5039   3.369   5.033   7.313  0.3035 -0.1896  0.9813
   63SAPC   H7R 5040   3.284   5.075   7.255  0.8104  1.3075  1.2760
   63SAPC   H7S 5041   3.419   5.118   7.364  0.1293  1.1527 -0.9755
   63SAPC   C28 5042   3.324   4.928   7.413 -0.8736 -0.4613 -0.2103
   63SAPC   H8R 5043   3.238   4.876   7.368 -1.0495  2.2384 -3.3456
   63SAPC   C29 5044   3.374   4.900   7.540 -0.1461 -0.6344  0.8420
   63SAPC   H9R 5045   3.320   4.830   7.606  0.3989 -2.0683 -0.1765
   63SAPC  C210 5046   3.493   4.966   7.600  0.4498 -0.2428  0.8923
   63SAPC  H10R 5047   3.473   5.071   7.629 -2.4260 -0.3122 -0.4505
   63SAPC  H10S 5048   3.569   4.989   7.523  0.1525 -1.8525  0.0665
   63SAPC  C211 5049   3.566   4.889   7.707  0.3204  1.1027  0.7138
   63SAPC  H11R 5050   3.608   4.796   7.666  0.3640  1.7575 -0.8284
   63SAPC  C212 5051   3.580   4.913   7.843 -0.0651 -0.2168 -0.3129
   63SAPC  H12R 5052   3.642   4.854   7.913 -0.0320 -0.5451 -0.6148
   63SAPC  C213 5053   3.520   5.023   7.921 -0.8279 -0.4556 -0.4932
   63SAPC  H13R 5054   3.484   5.106   7.856  0.3728 -1.4856 -2.5791
   63SAPC  H13S 5055   3.592   5.061   7.996 -1.5052 -1.3374  0.6402
   63SAPC  C214 5056   3.398   4.952   7.980 -0.9444  0.4616  0.3046
   63SAPC  H14R 5057   3.332   4.905   7.905 -1.0399  1.2154 -0.0944
   63SAPC  C215 5058   3.376   4.947   8.107  0.5321 -0.1308 -0.0367
   63SAPC  H15R 5059   3.283   4.896   8.139  0.5347  1.4572  2.8721
   63SAPC  C216 5060   3.448   5.000   8.234 -0.2336 -0.4887  0.3066
   63SAPC  H16R 5061   3.545   5.051   8.213 -0.4182  0.2772  1.2201
   63SAPC  H16S 5062   3.477   4.916   8.300 -1.1804 -0.1942  1.1248
   63SAPC  C217 5063   3.374   5.104   8.326 -0.0600  0.1573 -0.7799
   63SAPC  H17R 5064   3.275   5.061   8.352  0.2623  1.1609  2.4640
   63SAPC  H17S 5065   3.354   5.203   8.280  0.1258  2.4688  3.6100
   63SAPC  C218 5066   3.455   5.121   8.462  0.1595  0.1724 -0.0698
   63SAPC  H18R 5067   3.440   5.019   8.506  0.3268 -1.0218 -2.5931
   63SAPC  H18S 5068   3.405   5.206   8.514  0.1794  1.1094 -1.5441
   63SAPC  C219 5069   3.603   5.153   8.456 -0.1076  0.2610 -0.3466
   63SAPC  H19R 5070   3.614   5.256   8.415  0.8356  0.5282  0.5346
   63SAPC  H19S 5071   3.646   5.083   8.382  0.3866  0.1216  0.0651
   63SAPC  C220 5072   3.673   5.151   8.594 -0.2618  0.1306 -0.4431
   63SAPC  H20R 5073   3.759   5.221   8.608  0.1407 -0.5020  0.3239
   63SAPC  H20S 5074   3.695   5.044   8.616 -0.0832  0.0172 -1.1486
   63SAPC  H20T 5075   3.601   5.179   8.673 -0.1757  0.6893 -0.5565
   63SAPC   C33 5076   3.156   4.603   7.059  0.4660  0.3192  0.0931
   63SAPC   H3X 5077   3.070   4.603   6.988  1.2453 -1.5718 -0.9018
   63SAPC   H3Y 5078   3.140   4.665   7.150 -2.7124  1.1711 -0.8972
   63SAPC   C34 5079   3.158   4.456   7.096 -0.1517  0.1969 -0.6299
   63SAPC   H4X 5080   3.201   4.406   7.007  2.5650  1.1462  0.0592
   63SAPC   H4Y 5081   3.058   4.409   7.114 -0.2194 -0.0369 -1.5501
   63SAPC   C35 5082   3.255   4.417   7.218  0.5243  0.0860  0.4037
   63SAPC   H5X 5083   3.354   4.443   7.175  0.6860 -2.3314 -0.8466
   63SAPC   H5Y 5084   3.245   4.307   7.227 -0.1750  0.0548 -0.5561
   63SAPC   C36 5085   3.238   4.488   7.350 -0.6398 -0.0568 -0.0447
   63SAPC   H6X 5086   3.249   4.598   7.340 -2.7530  0.2366  0.3171
   63SAPC   H6Y 5087   3.325   4.456   7.411  0.7236  2.5632 -0.4483
   63SAPC   C37 5088   3.114   4.471   7.424  0.7723 -0.5181 -0.3218
   63SAPC   H7X 5089   3.095   4.366   7.454 -0.4573  0.7355  3.8880
   63SAPC   H7Y 5090   3.031   4.514   7.363  1.8951  2.2519 -0.0767
   63SAPC   C38 5091   3.122   4.548   7.558  0.3551  0.0793 -1.0244
   63SAPC   H8X 5092   3.156   4.652   7.540  0.1537  0.6881  1.6996
   63SAPC   H8Y 5093   3.209   4.513   7.618 -0.9672  1.0527  1.6113
   63SAPC   C39 5094   3.002   4.537   7.653  0.0745  0.6020  0.4519
   63SAPC   H9X 5095   2.969   4.431   7.659  0.1657  0.5094 -0.5582
   63SAPC   H9Y 5096   2.927   4.598   7.599 -0.4810 -0.9457 -0.5865
   63SAPC  C310 5097   3.016   4.602   7.791 -0.0554 -0.2605  0.0446
   63SAPC  H10X 5098   3.052   4.705   7.774 -1.8047  0.8168  2.3386
   63SAPC  H10Y 5099   3.089   4.541   7.849 -0.5805 -1.5661 -0.6229
   63SAPC  C311 5100   2.884   4.620   7.874 -0.9305  0.5226 -0.6959
   63SAPC  H11X 5101   2.845   4.516   7.882  2.3021 -0.8606 -1.0486
   63SAPC  H11Y 5102   2.811   4.694   7.836  0.3601  2.2983  0.1139
   63SAPC  C312 5103   2.904   4.674   8.016 -0.0018 -0.0276  0.1706
   63SAPC  H12X 5104   2.807   4.683   8.069  0.6520  1.6465  1.1565
   63SAPC  H12Y 5105   2.947   4.775   8.001  0.2662 -0.2449 -0.6090
   63SAPC  C313 5106   2.985   4.581   8.099  0.2967  0.4068 -0.5792
   63SAPC  H13X 5107   3.086   4.569   8.054 -0.3057 -0.3974 -1.7700
   63SAPC  H13Y 5108   2.927   4.487   8.104 -1.3431  1.4342  1.3354
   63SAPC  C314 5109   3.000   4.624   8.246 -0.1064 -0.1756  0.2493
   63SAPC  H14X 5110   3.061   4.544   8.293  1.1053  1.3571  1.3909
   63SAPC  H14Y 5111   2.909   4.614   8.309 -0.0970 -0.9826  0.1405
   63SAPC  C315 5112   3.086   4.745   8.274 -0.0954  0.4581 -0.1785
   63SAPC  H15X 5113   3.036   4.843   8.258  1.8215  1.1621 -2.5160
   63SAPC  H15Y 5114   3.168   4.750   8.199 -1.0597 -0.1691 -1.3049
   63SAPC  C316 5115   3.137   4.751   8.421 -0.6270  0.9233  0.6892
   63SAPC  H16X 5116   3.248   4.762   8.424 -0.4876 -0.3093  1.0641
   63SAPC  H16Y 5117   3.098   4.656   8.465 -0.2953  0.9190  0.9795
   63SAPC  C317 5118   3.060   4.864   8.503  0.3115 -0.3322 -0.3803
   63SAPC  H17X 5119   2.953   4.860   8.473  0.2132  2.8574 -0.7720
   63SAPC  H17Y 5120   3.101   4.953   8.450  3.1188 -2.0257 -1.3366
   63SAPC  C318 5121   3.079   4.869   8.658  0.3591 -1.1049  0.5690
   63SAPC  H18X 5122   3.167   4.933   8.678 -0.6945  0.3794  0.5748
   63SAPC  H18Y 5123   3.095   4.765   8.694 -0.0887 -1.0165  1.0406
   63SAPC  H18Z 5124   2.994   4.913   8.715 -0.8564  0.4608 -2.2612
   64SAPC     N 5125   6.037   0.037   5.807 -0.1761  0.2262 -0.0775
   64SAPC   C12 5126   5.979  -0.045   5.925 -0.2945 -0.4863 -0.1461
   64SAPC  H12A 5127   5.998  -0.150   5.914  0.8493 -0.2975 -0.1021
   64SAPC  H12B 5128   5.872  -0.037   5.918 -0.2802 -1.0406 -1.2267
   64SAPC   C13 5129   5.995  -0.013   5.672 -0.2704  0.5408 -0.2937
   64SAPC  H13A 5130   6.043  -0.103   5.640 -1.6077 -0.6013  0.7725
   64SAPC  H13B 5131   5.888  -0.029   5.663 -0.1393 -1.2639  0.8425
   64SAPC  H13C 5132   6.010   0.065   5.598 -0.7185  0.3871 -0.5522
   64SAPC   C14 5133   5.988   0.175   5.807 -0.1285  0.7737 -0.3638
   64SAPC  H14A 5134   5.986   0.230   5.714 -1.1488 -2.1087 -2.1699
   64SAPC  H14B 5135   5.880   0.168   5.815 -0.0263  0.3059  0.7808
   64SAPC  H14C 5136   6.029   0.249   5.874 -2.0953  2.7817 -1.2560
   64SAPC   C15 5137   6.182   0.036   5.822  0.0338 -0.1329 -0.6291
   64SAPC  H15A 5138   6.229  -0.058   5.798  2.2177  1.0172 -1.0507
   64SAPC  H15B 5139   6.223   0.110   5.756  1.4749  0.9923  1.4246
   64SAPC  H15C 5140   6.211   0.063   5.922 -1.2430 -2.3237  0.4142
   64SAPC   C11 5141   6.013  -0.009   6.074 -0.9916 -0.1779  0.0907
   64SAPC  H11A 5142   5.957  -0.080   6.139  0.1909 -2.4232 -1.2231
   64SAPC  H11B 5143   5.990   0.096   6.101 -1.5049 -0.4207  0.6320
   64SAPC     P 5144   6.227  -0.162   6.121 -0.0447  0.1800  0.1209
   64SAPC   O13 5145   6.150  -0.271   6.057 -0.0334 -0.2395 -0.1631
   64SAPC   O14 5146   6.362  -0.140   6.068 -0.6676  0.3717 -0.3810
   64SAPC   O12 5147   6.147  -0.035   6.095  0.4400 -0.8449 -0.4224
   64SAPC   O11 5148   6.225  -0.182   6.279 -0.1734 -0.1420 -0.1275
   64SAPC    C1 5149   6.211  -0.067   6.366 -0.5472  0.3959  0.4792
   64SAPC    HA 5150   6.284   0.011   6.336 -0.8061  0.5454  0.2383
   64SAPC    HB 5151   6.109  -0.025   6.355 -0.9408 -0.6407 -0.0442
   64SAPC    C2 5152   6.231  -0.107   6.514  0.1221 -0.0078  0.0590
   64SAPC    HS 5153   6.183  -0.206   6.531  0.5515 -0.2883 -0.3285
   64SAPC   O21 5154   6.179  -0.006   6.598 -0.4648 -0.0408 -0.2530
   64SAPC   C21 5155   6.050  -0.022   6.634  0.3964 -0.1016  0.3007
   64SAPC   O22 5156   5.970  -0.107   6.599 -0.1775  1.2348 -0.3291
   64SAPC   C22 5157   6.034   0.082   6.740  0.3079 -0.8125 -0.1336
   64SAPC   H2R 5158   6.124   0.140   6.772  0.0755 -0.9480  0.7983
   64SAPC   H2S 5159   5.970   0.157   6.689  2.2994 -0.5828 -2.4648
   64SAPC    C3 5160   6.381  -0.116   6.554  0.6159 -0.0936 -0.1398
   64SAPC    HX 5161   6.433  -0.035   6.498  2.0867 -1.1231 -0.3123
   64SAPC    HY 5162   6.427  -0.204   6.504 -0.5150 -0.5987 -0.3207
   64SAPC   O31 5163   6.406  -0.102   6.702 -0.1693  0.2081 -0.2489
   64SAPC   C31 5164   6.376  -0.223   6.767 -0.0348 -0.0984 -0.6187
   64SAPC   O32 5165   6.323  -0.326   6.722  0.0152 -0.4922  0.1445
   64SAPC   C32 5166   6.430  -0.216   6.910 -0.0146 -0.5721 -0.4608
   64SAPC   H2X 5167   6.375  -0.133   6.960  1.5552  0.0498  0.3353
   64SAPC   H2Y 5168   6.539  -0.190   6.912 -0.3418  0.9068  1.2767
   64SAPC   C23 5169   5.949   0.044   6.866 -0.0074  0.6265  0.5026
   64SAPC   H3R 5170   5.882  -0.040   6.839 -1.0171  1.6017 -0.0597
   64SAPC   H3S 5171   5.892   0.137   6.888 -1.7117  0.4702 -2.7214
   64SAPC   C24 5172   6.040   0.022   6.993 -0.5481 -0.4268  0.2945
   64SAPC   H4R 5173   5.971   0.043   7.078  0.9891 -1.1240  1.7634
   64SAPC   H4S 5174   6.124   0.094   6.997 -1.3123  0.6243 -1.3543
   64SAPC   C25 5175   6.091  -0.114   7.010 -0.4882 -0.4240  0.8826
   64SAPC   H5R 5176   6.096  -0.171   6.916  0.7719  3.7351 -1.8332
   64SAPC   C26 5177   6.116  -0.178   7.125 -0.7673  0.4082 -0.3401
   64SAPC   H6R 5178   6.142  -0.285   7.123  1.3331  0.7635  2.1564
   64SAPC   C27 5179   6.099  -0.119   7.264  0.3335 -0.9061  0.5437
   64SAPC   H7R 5180   5.992  -0.097   7.287  1.0769  0.8728  2.5527
   64SAPC   H7S 5181   6.151  -0.022   7.267  0.4404 -0.9626  0.5009
   64SAPC   C28 5182   6.152  -0.202   7.370 -0.7334  0.3201 -0.5576
   64SAPC   H8R 5183   6.144  -0.311   7.357  0.5033 -0.2135  2.3304
   64SAPC   C29 5184   6.201  -0.162   7.489 -0.6937 -0.3824 -0.8764
   64SAPC   H9R 5185   6.240  -0.242   7.555 -2.3590 -0.1408  0.4645
   64SAPC  C210 5186   6.208  -0.030   7.556  0.3486  0.5791 -0.3022
   64SAPC  H10R 5187   6.125  -0.032   7.629  0.0722  0.8716 -0.6084
   64SAPC  H10S 5188   6.187   0.048   7.481 -1.4806 -1.1824 -1.7146
   64SAPC  C211 5189   6.343  -0.011   7.624  0.2701 -0.5030 -0.1186
   64SAPC  H11R 5190   6.434  -0.052   7.577  1.3301  1.0634  0.5151
   64SAPC  C212 5191   6.349   0.049   7.746  0.0509  0.3249  0.1760
   64SAPC  H12R 5192   6.449   0.055   7.790  1.1178 -2.4569 -1.5995
   64SAPC  C213 5193   6.226   0.101   7.818 -0.7187  0.2262 -0.6268
   64SAPC  H13R 5194   6.179   0.017   7.873  0.3241  0.3709  0.5410
   64SAPC  H13S 5195   6.146   0.123   7.743 -0.8251 -3.4804 -1.7945
   64SAPC  C214 5196   6.234   0.220   7.909 -0.2330 -1.2217  0.0468
   64SAPC  H14R 5197   6.313   0.286   7.872 -0.0963  0.4126  2.8965
   64SAPC  C215 5198   6.179   0.233   8.034  0.5013 -0.1286  0.2257
   64SAPC  H15R 5199   6.204   0.319   8.098 -3.0359 -0.4322  2.2253
   64SAPC  C216 5200   6.087   0.137   8.095 -0.4691  0.4808  0.3760
   64SAPC  H16R 5201   6.094   0.139   8.205  1.0304  0.2000  0.3086
   64SAPC  H16S 5202   6.110   0.036   8.055  1.1735  2.0007 -2.9513
   64SAPC  C217 5203   5.938   0.169   8.063 -0.2184 -0.0361 -0.1523
   64SAPC  H17R 5204   5.917   0.165   7.954 -1.1725 -3.0848  0.0534
   64SAPC  H17S 5205   5.916   0.275   8.089 -1.1248  0.1586 -1.6045
   64SAPC  C218 5206   5.844   0.075   8.145 -0.3345  0.2659 -0.3694
   64SAPC  H18R 5207   5.865   0.092   8.253 -0.4838 -0.1751 -0.2683
   64SAPC  H18S 5208   5.866  -0.031   8.121 -1.1748  0.5305 -2.5884
   64SAPC  C219 5209   5.693   0.097   8.113  0.2187 -0.2490 -0.2367
   64SAPC  H19R 5210   5.676   0.202   8.143 -2.7178 -0.8663  0.6095
   64SAPC  H19S 5211   5.638   0.045   8.195 -0.9516  2.3595  0.7191
   64SAPC  C220 5212   5.640   0.052   7.979 -0.4059 -0.5628  0.6818
   64SAPC  H20R 5213   5.635  -0.059   7.974  0.1077 -0.6402  1.5982
   64SAPC  H20S 5214   5.713   0.076   7.899 -0.6771  1.3207  0.9577
   64SAPC  H20T 5215   5.546   0.106   7.955 -1.7028 -2.0039  2.2754
   64SAPC   C33 5216   6.405  -0.345   6.984  1.1104  0.0208  0.2921
   64SAPC   H3X 5217   6.465  -0.427   6.938  0.3581 -0.8199  0.7593
   64SAPC   H3Y 5218   6.297  -0.372   6.989  0.8859  0.6744 -0.7862
   64SAPC   C34 5219   6.443  -0.334   7.135  0.5657  0.1242 -0.4013
   64SAPC   H4X 5220   6.395  -0.245   7.182  0.0850  0.5253 -1.6141
   64SAPC   H4Y 5221   6.553  -0.321   7.134  0.5442  0.5806  0.8074
   64SAPC   C35 5222   6.411  -0.466   7.207 -0.5208 -0.6748  0.0233
   64SAPC   H5X 5223   6.468  -0.548   7.160  0.1432 -0.2287  0.0335
   64SAPC   H5Y 5224   6.303  -0.495   7.211 -1.3008  2.0551  1.8332
   64SAPC   C36 5225   6.461  -0.463   7.355 -0.3963 -0.5790 -0.0015
   64SAPC   H6X 5226   6.408  -0.379   7.405 -0.0145 -1.8715  2.7110
   64SAPC   H6Y 5227   6.571  -0.448   7.368 -0.4140 -0.6535  0.2226
   64SAPC   C37 5228   6.423  -0.584   7.438  0.8804 -0.1999  1.1072
   64SAPC   H7X 5229   6.482  -0.670   7.400 -0.9727 -1.1391  0.1932
   64SAPC   H7Y 5230   6.314  -0.598   7.424  0.6306  1.6207  1.0277
   64SAPC   C38 5231   6.449  -0.587   7.588 -0.3960  0.0322  0.8797
   64SAPC   H8X 5232   6.557  -0.566   7.601 -0.0923 -1.7763  1.5566
   64SAPC   H8Y 5233   6.439  -0.692   7.625  1.6875 -0.6926 -0.4591
   64SAPC   C39 5234   6.375  -0.485   7.669 -0.3433  0.0126  0.6641
   64SAPC   H9X 5235   6.269  -0.488   7.634 -0.3358 -0.0943  0.6519
   64SAPC   H9Y 5236   6.419  -0.385   7.650  1.9264 -0.4508  2.9702
   64SAPC  C310 5237   6.367  -0.514   7.820  0.0634  0.3109 -0.6732
   64SAPC  H10X 5238   6.471  -0.499   7.857 -0.1444  1.7483 -0.6325
   64SAPC  H10Y 5239   6.335  -0.616   7.849  0.4836  0.0763 -1.0324
   64SAPC  C311 5240   6.277  -0.413   7.906  0.1239 -0.2953 -0.3687
   64SAPC  H11X 5241   6.223  -0.472   7.982  0.5548  1.6212  1.5057
   64SAPC  H11Y 5242   6.207  -0.363   7.836  1.0873  1.8167  0.0713
   64SAPC  C312 5243   6.354  -0.312   7.987 -0.2438 -0.4640  0.3051
   64SAPC  H12X 5244   6.412  -0.268   7.903 -1.2855  0.1974 -0.0918
   64SAPC  H12Y 5245   6.418  -0.365   8.061  1.0759 -0.0147 -0.4680
   64SAPC  C313 5246   6.267  -0.213   8.068 -0.2354 -0.0450  0.2788
   64SAPC  H13X 5247   6.189  -0.203   7.990  1.7007 -1.7394 -2.0395
   64SAPC  H13Y 5248   6.321  -0.116   8.071  2.3396 -1.3015 -1.5737
   64SAPC  C314 5249   6.227  -0.267   8.201 -0.4275  0.3769  0.4697
   64SAPC  H14X 5250   6.320  -0.264   8.262  0.0182 -2.2188  0.0570
   64SAPC  H14Y 5251   6.194  -0.373   8.201 -1.8234  0.7882  1.0086
   64SAPC  C315 5252   6.117  -0.185   8.266  0.1492  0.3025  0.5130
   64SAPC  H15X 5253   6.022  -0.194   8.210  0.7864 -1.4936 -0.3444
   64SAPC  H15Y 5254   6.142  -0.078   8.282  1.2287 -0.1555  2.2326
   64SAPC  C316 5255   6.099  -0.222   8.411  0.0916 -0.0976  0.0713
   64SAPC  H16X 5256   6.202  -0.216   8.451 -0.1237  1.2006  0.4616
   64SAPC  H16Y 5257   6.067  -0.329   8.414  0.6668 -0.2898 -0.2881
   64SAPC  C317 5258   6.006  -0.131   8.487  0.0299  0.0697 -0.0847
   64SAPC  H17X 5259   5.914  -0.108   8.429 -1.5020  0.6787  2.4266
   64SAPC  H17Y 5260   6.069  -0.040   8.496 -1.5838  1.5553 -2.6513
   64SAPC  C318 5261   5.993  -0.185   8.630 -0.0873 -0.6038 -0.3411
   64SAPC  H18X 5262   5.907  -0.139   8.682  0.4295  0.2126 -0.1895
   64SAPC  H18Y 5263   6.084  -0.160   8.689 -1.5329 -0.2727  1.8373
   64SAPC  H18Z 5264   5.990  -0.296   8.629  2.0827 -0.7157 -0.7714
   65SAPC     N 5265   5.979   0.698   5.934 -0.0025  0.2252 -0.7005
   65SAPC   C12 5266   5.995   0.684   6.078  0.4681  0.3930 -0.8469
   65SAPC  H12A 5267   5.903   0.655   6.125  1.5060  0.1618  1.1281
   65SAPC  H12B 5268   5.999   0.789   6.104 -1.1363  0.6634 -1.5725
   65SAPC   C13 5269   5.837   0.745   5.911 -0.0052 -0.4802 -0.1625
   65SAPC  H13A 5270   5.809   0.758   5.808 -0.4430 -1.0761 -0.1265
   65SAPC  H13B 5271   5.767   0.669   5.945 -1.5043  1.4842  1.4545
   65SAPC  H13C 5272   5.808   0.830   5.971 -0.1271 -0.1437 -0.6917
   65SAPC   C14 5273   6.073   0.798   5.870  0.1110 -0.1477  0.8381
   65SAPC  H14A 5274   6.174   0.777   5.900  1.3303  0.8508 -2.1787
   65SAPC  H14B 5275   6.062   0.785   5.763  0.6663 -4.5491  1.1003
   65SAPC  H14C 5276   6.039   0.896   5.899 -0.0469 -0.2328  0.9414
   65SAPC   C15 5277   6.016   0.563   5.866  0.9986  0.2691 -0.3088
   65SAPC  H15A 5278   6.119   0.537   5.884  0.7801 -1.1373 -0.9808
   65SAPC  H15B 5279   5.955   0.490   5.917 -0.2532  1.8882  0.6117
   65SAPC  H15C 5280   6.001   0.565   5.759  1.2327 -2.3552 -0.4598
   65SAPC   C11 5281   6.116   0.610   6.145  0.1832 -0.3218 -0.2358
   65SAPC  H11A 5282   6.110   0.505   6.108  0.4703 -0.2890 -0.3787
   65SAPC  H11B 5283   6.101   0.599   6.254 -1.9872  0.3809 -0.4067
   65SAPC     P 5284   6.324   0.781   6.157 -0.0472 -0.0695  0.1241
   65SAPC   O13 5285   6.469   0.753   6.137  0.1004  0.3672 -0.2507
   65SAPC   O14 5286   6.262   0.903   6.091 -0.4166 -0.4891 -0.0652
   65SAPC   O12 5287   6.242   0.662   6.107  0.8176 -0.0580  0.0436
   65SAPC   O11 5288   6.297   0.797   6.313  0.4524  0.2376  0.6142
   65SAPC    C1 5289   6.379   0.888   6.385 -0.0868 -0.0064 -0.8290
   65SAPC    HA 5290   6.399   0.982   6.330  2.3021 -0.7871 -1.4040
   65SAPC    HB 5291   6.331   0.920   6.480  3.3072  1.3722  0.5617
   65SAPC    C2 5292   6.514   0.827   6.449  0.7707 -0.8289  0.8828
   65SAPC    HS 5293   6.562   0.761   6.373 -0.9655 -0.1453 -0.8981
   65SAPC   O21 5294   6.480   0.742   6.565 -0.3249 -0.3843  0.5377
   65SAPC   C21 5295   6.581   0.672   6.615  0.0730 -0.4698  0.5833
   65SAPC   O22 5296   6.692   0.670   6.563 -0.0527  0.0172 -0.2649
   65SAPC   C22 5297   6.542   0.599   6.746 -0.0739 -1.6411 -1.0672
   65SAPC   H2R 5298   6.490   0.674   6.808 -0.1466 -2.0776 -0.5947
   65SAPC   H2S 5299   6.469   0.521   6.716  1.7694 -3.3306 -1.4128
   65SAPC    C3 5300   6.611   0.942   6.492  0.1097 -0.1170 -0.0902
   65SAPC    HX 5301   6.636   1.006   6.405  1.1589  0.2757  0.4828
   65SAPC    HY 5302   6.705   0.892   6.525 -0.7400 -2.8753 -1.5470
   65SAPC   O31 5303   6.560   1.023   6.604  0.1498  0.0415 -0.3645
   65SAPC   C31 5304   6.641   1.105   6.666  0.0519  0.1405 -0.0667
   65SAPC   O32 5305   6.748   1.145   6.628 -0.2972  0.1101  0.4710
   65SAPC   C32 5306   6.579   1.124   6.806  0.3805  0.0278 -0.3326
   65SAPC   H2X 5307   6.512   1.210   6.784  3.0308  2.0801 -0.8422
   65SAPC   H2Y 5308   6.657   1.153   6.880  0.1122 -0.0203 -0.0299
   65SAPC   C23 5309   6.662   0.529   6.824  0.3122 -0.0749 -0.0926
   65SAPC   H3R 5310   6.730   0.611   6.857 -0.2585 -0.4519  2.1413
   65SAPC   H3S 5311   6.738   0.479   6.760  1.0674 -0.3181  0.9839
   65SAPC   C24 5312   6.622   0.435   6.941 -0.4569  0.3882  0.7696
   65SAPC   H4R 5313   6.545   0.479   7.008 -1.2297  0.4250 -0.1038
   65SAPC   H4S 5314   6.715   0.417   6.998 -1.0624 -2.0816  1.1100
   65SAPC   C25 5315   6.570   0.307   6.879 -0.4614  0.6059  0.4228
   65SAPC   H5R 5316   6.635   0.279   6.795  1.3340 -0.2212  2.0177
   65SAPC   C26 5317   6.470   0.225   6.912 -0.8813 -0.8025 -0.5556
   65SAPC   H6R 5318   6.449   0.130   6.859 -3.8314 -0.4183 -0.2712
   65SAPC   C27 5319   6.376   0.250   7.029  0.3210 -0.9306 -0.6602
   65SAPC   H7R 5320   6.277   0.278   6.986 -0.8036 -2.0208  1.0949
   65SAPC   H7S 5321   6.398   0.348   7.078  0.6297 -0.5154 -1.6135
   65SAPC   C28 5322   6.363   0.144   7.141  0.2095  0.3048 -0.4144
   65SAPC   H8R 5323   6.308   0.054   7.111 -0.5877  0.4094  0.6948
   65SAPC   C29 5324   6.375   0.151   7.276 -0.2763 -0.2614 -0.0029
   65SAPC   H9R 5325   6.330   0.071   7.337  0.8491 -0.6432  0.3502
   65SAPC  C210 5326   6.406   0.278   7.353 -0.6456 -0.3085  0.3611
   65SAPC  H10R 5327   6.352   0.277   7.450  1.0468 -1.3305  1.3431
   65SAPC  H10S 5328   6.357   0.360   7.297 -1.0290 -0.0991  0.9872
   65SAPC  C211 5329   6.554   0.296   7.377 -0.3889  0.8463 -0.1860
   65SAPC  H11R 5330   6.619   0.250   7.301 -1.3912  0.4074 -0.7952
   65SAPC  C212 5331   6.617   0.372   7.473 -0.0941 -0.2299  0.1830
   65SAPC  H12R 5332   6.725   0.396   7.468  0.0831 -1.1296 -0.5789
   65SAPC  C213 5333   6.544   0.455   7.575  0.7076  0.1097  0.7718
   65SAPC  H13R 5334   6.433   0.449   7.562  0.7626 -0.0309  0.3205
   65SAPC  H13S 5335   6.557   0.559   7.536 -1.8056  0.0705 -0.4145
   65SAPC  C214 5336   6.562   0.429   7.724 -0.3361  0.2516 -0.0268
   65SAPC  H14R 5337   6.603   0.328   7.744 -0.7347 -0.8992 -3.9536
   65SAPC  C215 5338   6.512   0.507   7.822  0.3009 -0.4820 -0.7215
   65SAPC  H15R 5339   6.526   0.485   7.929 -1.1241 -0.0694 -0.4178
   65SAPC  C216 5340   6.436   0.642   7.806  0.0507  0.6801  0.4390
   65SAPC  H16R 5341   6.405   0.661   7.701 -0.6535  0.7004  0.6486
   65SAPC  H16S 5342   6.501   0.725   7.840  0.8003  0.0044  0.6968
   65SAPC  C217 5343   6.310   0.634   7.900  0.1925 -0.5090 -0.1603
   65SAPC  H17R 5344   6.257   0.536   7.893 -1.1298  0.2889 -2.1783
   65SAPC  H17S 5345   6.238   0.703   7.852 -0.8759 -1.3740  0.1261
   65SAPC  C218 5346   6.335   0.681   8.036  0.2031 -0.6071 -0.1359
   65SAPC  H18R 5347   6.407   0.766   8.032 -0.5454  0.1240  1.0208
   65SAPC  H18S 5348   6.392   0.599   8.084  0.2863 -0.3932  0.1313
   65SAPC  C219 5349   6.202   0.715   8.109  0.6751  0.8328  0.3321
   65SAPC  H19R 5350   6.228   0.748   8.212 -3.2320 -0.2815  1.8560
   65SAPC  H19S 5351   6.164   0.612   8.126  0.0250  0.6886 -1.7154
   65SAPC  C220 5352   6.101   0.826   8.068  0.1055 -0.2070  0.5656
   65SAPC  H20R 5353   6.038   0.856   8.155  0.2540 -2.9933  1.7230
   65SAPC  H20S 5354   6.036   0.790   7.986  2.0537 -1.1357 -0.6302
   65SAPC  H20T 5355   6.176   0.906   8.049  0.5573 -0.5102  1.0541
   65SAPC   C33 5356   6.484   1.015   6.865  0.6689 -0.5032  0.1267
   65SAPC   H3X 5357   6.534   0.919   6.889  0.9157 -0.7818 -1.3945
   65SAPC   H3Y 5358   6.413   0.983   6.786  1.7325 -1.2091 -0.5610
   65SAPC   C34 5359   6.391   1.070   6.971  0.1047 -0.1531  0.4003
   65SAPC   H4X 5360   6.321   0.994   7.013 -0.6733  1.7957  2.8977
   65SAPC   H4Y 5361   6.330   1.144   6.916 -0.0109 -1.4840 -1.3550
   65SAPC   C35 5362   6.469   1.125   7.087  0.2458  0.3009 -0.0774
   65SAPC   H5X 5363   6.539   1.208   7.061 -1.2732  1.6717  0.0357
   65SAPC   H5Y 5364   6.530   1.042   7.128  0.4717  1.2987  1.7308
   65SAPC   C36 5365   6.363   1.166   7.197  0.7003 -0.1679  0.2495
   65SAPC   H6X 5366   6.327   1.073   7.246 -0.2714  0.7181  1.2793
   65SAPC   H6Y 5367   6.278   1.211   7.140  2.9232  0.5441 -2.7589
   65SAPC   C37 5368   6.412   1.261   7.316  0.8588 -0.1675  0.0530
   65SAPC   H7X 5369   6.432   1.363   7.278 -0.8193  0.3366  0.4404
   65SAPC   H7Y 5370   6.498   1.214   7.369  1.1787 -1.5394 -1.6139
   65SAPC   C38 5371   6.286   1.266   7.413  0.5148 -0.0700  0.6367
   65SAPC   H8X 5372   6.274   1.158   7.436  3.4088 -1.4944 -3.4205
   65SAPC   H8Y 5373   6.201   1.295   7.348 -1.2692 -3.1815  1.3668
   65SAPC   C39 5374   6.323   1.360   7.537  0.1955  0.3429 -1.1307
   65SAPC   H9X 5375   6.333   1.468   7.513 -1.8886  0.9624  0.4275
   65SAPC   H9Y 5376   6.422   1.331   7.577  0.0638  0.4477 -0.7259
   65SAPC  C310 5377   6.224   1.341   7.656  0.8717  0.0663 -0.1778
   65SAPC  H10X 5378   6.232   1.235   7.687 -2.9737 -0.4805 -0.5110
   65SAPC  H10Y 5379   6.124   1.340   7.607  1.3701  0.9528 -1.2589
   65SAPC  C311 5380   6.245   1.438   7.773 -0.2691  0.5918 -0.4718
   65SAPC  H11X 5381   6.233   1.545   7.746 -2.5642 -0.1098 -2.5485
   65SAPC  H11Y 5382   6.352   1.433   7.802 -1.1779  0.3102  3.2522
   65SAPC  C312 5383   6.166   1.395   7.901 -0.7910  0.2726 -0.7875
   65SAPC  H12X 5384   6.187   1.286   7.906 -0.0114  0.4705  1.0804
   65SAPC  H12Y 5385   6.059   1.413   7.881 -0.9138 -2.1915 -2.7290
   65SAPC  C313 5386   6.196   1.477   8.026 -0.1568  0.3703  0.3699
   65SAPC  H13X 5387   6.178   1.586   8.014 -2.3884 -0.0313 -0.4184
   65SAPC  H13Y 5388   6.304   1.455   8.039 -0.3426 -1.4739 -0.9195
   65SAPC  C314 5389   6.126   1.429   8.152 -0.2796  0.0048 -0.1234
   65SAPC  H14X 5390   6.148   1.320   8.153 -3.1769 -0.6744 -1.0821
   65SAPC  H14Y 5391   6.016   1.428   8.133 -0.4442  0.5449  0.7678
   65SAPC  C315 5392   6.167   1.491   8.287 -0.5267 -0.2429  0.2527
   65SAPC  H15X 5393   6.106   1.463   8.376 -1.0045 -0.0319 -0.0039
   65SAPC  H15Y 5394   6.149   1.600   8.279 -2.9059 -0.6528 -0.7497
   65SAPC  C316 5395   6.316   1.466   8.323  0.0371 -0.1162  0.0703
   65SAPC  H16X 5396   6.385   1.505   8.245 -1.3049  0.2761 -0.9582
   65SAPC  H16Y 5397   6.337   1.357   8.325 -0.2811 -0.1697  0.8821
   65SAPC  C317 5398   6.349   1.521   8.460  0.1262 -0.7982  0.2211
   65SAPC  H17X 5399   6.264   1.499   8.528  0.5605 -0.7281  0.7870
   65SAPC  H17Y 5400   6.373   1.629   8.462 -1.1052 -0.4538 -1.2299
   65SAPC  C318 5401   6.469   1.435   8.511 -0.3781 -0.4060  0.5526
   65SAPC  H18X 5402   6.530   1.387   8.432 -0.2985 -0.3632  0.5875
   65SAPC  H18Y 5403   6.438   1.350   8.576  0.5156 -2.3140 -1.4053
   65SAPC  H18Z 5404   6.550   1.499   8.554  1.7627 -0.7535 -2.6148
   66SAPC     N 5405   2.648   0.374   5.746  0.2418 -0.3423 -0.0838
   66SAPC   C12 5406   2.568   0.252   5.771  0.1750 -0.4585 -0.1024
   66SAPC  H12A 5407   2.610   0.167   5.719  1.6430 -2.4018  3.9164
   66SAPC  H12B 5408   2.468   0.251   5.729 -0.4829 -0.3442  1.4046
   66SAPC   C13 5409   2.706   0.381   5.603 -0.2652  0.2714 -0.2886
   66SAPC  H13A 5410   2.745   0.476   5.573 -0.1217  0.2037 -0.3137
   66SAPC  H13B 5411   2.786   0.308   5.601 -0.5517 -0.2426  2.5268
   66SAPC  H13C 5412   2.622   0.351   5.542 -1.8381 -0.4135  2.0530
   66SAPC   C14 5413   2.567   0.501   5.767 -0.0170  0.1055 -0.2638
   66SAPC  H14A 5414   2.621   0.593   5.786 -1.8266  1.0517  0.5494
   66SAPC  H14B 5415   2.490   0.522   5.695  0.1624  0.4697 -0.3532
   66SAPC  H14C 5416   2.527   0.477   5.864  1.5498 -1.8078 -0.0217
   66SAPC   C15 5417   2.768   0.384   5.840 -0.7161 -0.5138  0.0303
   66SAPC  H15A 5418   2.744   0.389   5.946  0.8171  1.0675  0.3367
   66SAPC  H15B 5419   2.823   0.293   5.822  1.5733  0.9892 -1.0098
   66SAPC  H15C 5420   2.830   0.468   5.814  0.2380 -1.3649 -0.4927
   66SAPC   C11 5421   2.532   0.224   5.921  0.7115 -0.4633 -0.3413
   66SAPC  H11A 5422   2.623   0.193   5.978  1.0559 -0.7043 -1.0138
   66SAPC  H11B 5423   2.464   0.137   5.926 -0.9717  0.8687  0.9198
   66SAPC     P 5424   2.307   0.346   6.001 -0.1683 -0.3129  0.3436
   66SAPC   O13 5425   2.289   0.476   6.059  0.4113 -0.2133  0.2778
   66SAPC   O14 5426   2.249   0.319   5.868  0.1578  0.0475  0.2226
   66SAPC   O12 5427   2.470   0.334   5.988  0.4654 -0.4366  0.8494
   66SAPC   O11 5428   2.258   0.237   6.108  0.1906  0.2981  0.4284
   66SAPC    C1 5429   2.330   0.215   6.227 -0.2587 -0.1133  0.2533
   66SAPC    HA 5430   2.310   0.112   6.264  2.0100 -0.6264  0.1939
   66SAPC    HB 5431   2.440   0.208   6.212 -0.0994 -1.0151  1.6475
   66SAPC    C2 5432   2.301   0.305   6.349  0.4350  0.1622 -0.9039
   66SAPC    HS 5433   2.371   0.391   6.352  0.4400  0.1460 -0.4806
   66SAPC   O21 5434   2.321   0.233   6.471 -0.3155  0.1834  0.0179
   66SAPC   C21 5435   2.442   0.180   6.480  0.2461  0.3326 -0.8493
   66SAPC   O22 5436   2.536   0.217   6.411 -0.1770  0.0699  0.1322
   66SAPC   C22 5437   2.446   0.080   6.596 -0.7333 -0.0639  0.7867
   66SAPC   H2R 5438   2.345   0.034   6.608 -0.9524 -0.7339 -2.5867
   66SAPC   H2S 5439   2.507  -0.003   6.555  0.0249  0.4372  0.8785
   66SAPC    C3 5440   2.159   0.365   6.356  0.6765  0.3920  0.5166
   66SAPC    HX 5441   2.079   0.288   6.363 -1.2225  2.3162  1.1660
   66SAPC    HY 5442   2.143   0.423   6.263  0.0875 -2.1454 -1.0449
   66SAPC   O31 5443   2.136   0.459   6.466 -0.2691 -0.1913  0.2840
   66SAPC   C31 5444   2.122   0.417   6.590  0.1838 -0.1267 -0.3312
   66SAPC   O32 5445   2.104   0.300   6.622  0.1123  0.7036  0.1965
   66SAPC   C32 5446   2.134   0.540   6.678 -0.2000 -0.1125  0.7606
   66SAPC   H2X 5447   2.058   0.614   6.646 -0.6539 -0.0574  1.9243
   66SAPC   H2Y 5448   2.231   0.591   6.663 -0.3003  0.5773  2.2732
   66SAPC   C23 5449   2.521   0.146   6.725  0.1512  0.5074  0.7651
   66SAPC   H3R 5450   2.610   0.195   6.681  1.3382 -0.5962  1.8409
   66SAPC   H3S 5451   2.558   0.067   6.795 -0.3000 -0.8353 -0.4530
   66SAPC   C24 5452   2.455   0.248   6.809  0.3188 -0.3778  0.2683
   66SAPC   H4R 5453   2.431   0.339   6.751 -0.8381  0.0496  1.3665
   66SAPC   H4S 5454   2.528   0.286   6.884  0.7079 -0.6603  0.0296
   66SAPC   C25 5455   2.324   0.205   6.867  0.1486  0.5616 -0.0255
   66SAPC   H5R 5456   2.255   0.163   6.792 -0.6161  2.2733 -0.3239
   66SAPC   C26 5457   2.283   0.204   7.001 -0.1143  0.9383  0.3142
   66SAPC   H6R 5458   2.182   0.165   7.019  1.1565 -2.3851  1.0518
   66SAPC   C27 5459   2.353   0.264   7.120 -0.5173  0.4967  0.5421
   66SAPC   H7R 5460   2.325   0.370   7.138  0.2657  1.2151 -2.0912
   66SAPC   H7S 5461   2.461   0.282   7.100 -0.5913  1.0369  0.5980
   66SAPC   C28 5462   2.323   0.196   7.251  0.7107 -0.0797  0.6272
   66SAPC   H8R 5463   2.232   0.229   7.303 -1.8301 -1.2203 -2.7162
   66SAPC   C29 5464   2.403   0.116   7.327 -0.5582 -0.6176  1.0333
   66SAPC   H9R 5465   2.370   0.071   7.422 -0.0574 -1.0342  1.0166
   66SAPC  C210 5466   2.550   0.075   7.284 -0.5957  0.8938 -0.4886
   66SAPC  H10R 5467   2.613   0.043   7.370 -0.5080 -3.2246 -1.8789
   66SAPC  H10S 5468   2.604   0.159   7.235  1.2765  0.8503  1.3473
   66SAPC  C211 5469   2.567  -0.030   7.174  0.0168  0.1730 -0.0051
   66SAPC  H11R 5470   2.546   0.013   7.075 -2.9093  2.0110  1.2601
   66SAPC  C212 5471   2.599  -0.158   7.183  0.7734  0.2033  0.0948
   66SAPC  H12R 5472   2.604  -0.210   7.087 -2.5222 -2.3718  1.1266
   66SAPC  C213 5473   2.619  -0.238   7.313  0.0360 -0.9494  0.9990
   66SAPC  H13R 5474   2.655  -0.340   7.285 -1.3323 -1.4413  0.9353
   66SAPC  H13S 5475   2.523  -0.258   7.366 -1.1278 -1.2271 -1.1105
   66SAPC  C214 5476   2.713  -0.183   7.419  0.3204 -0.1950 -0.2565
   66SAPC  H14R 5477   2.808  -0.143   7.381  0.4514 -0.2426  0.0154
   66SAPC  C215 5478   2.697  -0.181   7.551  0.5959  0.3913 -0.4101
   66SAPC  H15R 5479   2.774  -0.139   7.618  1.8421 -0.5066 -1.2405
   66SAPC  C216 5480   2.573  -0.230   7.625  0.3033 -0.0674 -0.2315
   66SAPC  H16R 5481   2.602  -0.260   7.728 -2.0917 -3.0612 -0.2767
   66SAPC  H16S 5482   2.535  -0.323   7.578 -1.3538 -0.2611  1.3581
   66SAPC  C217 5483   2.454  -0.135   7.634  0.4379  0.4153  0.4538
   66SAPC  H17R 5484   2.367  -0.196   7.667  2.0057 -1.0250  2.2322
   66SAPC  H17S 5485   2.427  -0.099   7.533  0.4583 -0.6801  0.0474
   66SAPC  C218 5486   2.483  -0.024   7.734  0.6229 -0.4230  0.5360
   66SAPC  H18R 5487   2.570   0.041   7.709  1.4212 -0.5561  2.6955
   66SAPC  H18S 5488   2.509  -0.075   7.829 -1.1581 -1.8778  0.2939
   66SAPC  C219 5489   2.361   0.074   7.759  0.0157  0.0330  0.4285
   66SAPC  H19R 5490   2.311   0.089   7.661  2.1460 -0.7693 -0.8671
   66SAPC  H19S 5491   2.413   0.169   7.784 -0.5445  0.8692 -1.4613
   66SAPC  C220 5492   2.266   0.027   7.870 -0.0435  0.9387 -0.2971
   66SAPC  H20R 5493   2.229  -0.074   7.843 -0.9675  1.1398  0.1776
   66SAPC  H20S 5494   2.178   0.091   7.888 -0.1938  0.3069  1.3889
   66SAPC  H20T 5495   2.327   0.031   7.963 -0.6991  1.1391  0.1255
   66SAPC   C33 5496   2.100   0.520   6.829  0.1171 -0.3009  0.5135
   66SAPC   H3X 5497   2.165   0.452   6.887 -0.6236 -2.3476 -0.9348
   66SAPC   H3Y 5498   1.996   0.482   6.838  0.0918  0.0879  2.0787
   66SAPC   C34 5499   2.125   0.656   6.906 -0.3979  0.7872 -0.4376
   66SAPC   H4X 5500   2.058   0.737   6.869 -1.0372  0.7541  0.6100
   66SAPC   H4Y 5501   2.231   0.688   6.902 -0.5622  2.2939  3.2581
   66SAPC   C35 5502   2.095   0.647   7.057 -0.1909  0.2425  0.3254
   66SAPC   H5X 5503   2.171   0.698   7.119  1.5021 -0.6909 -0.8993
   66SAPC   H5Y 5504   2.103   0.540   7.087 -0.5941 -0.7512 -2.8057
   66SAPC   C36 5505   1.955   0.691   7.090 -0.1046  0.2587 -0.8055
   66SAPC   H6X 5506   1.886   0.626   7.032  1.0637 -1.5264 -0.2790
   66SAPC   H6Y 5507   1.940   0.797   7.062 -1.7381  0.8962  2.0765
   66SAPC   C37 5508   1.923   0.672   7.239 -0.0910  0.8433 -0.4784
   66SAPC   H7X 5509   1.995   0.736   7.295 -1.2192  1.1988  0.6283
   66SAPC   H7Y 5510   1.929   0.565   7.269 -0.5859  1.4115  1.8199
   66SAPC   C38 5511   1.782   0.718   7.274 -0.4207 -0.0120 -0.0721
   66SAPC   H8X 5512   1.725   0.683   7.185  0.9581 -1.3736 -0.4573
   66SAPC   H8Y 5513   1.778   0.829   7.270 -1.5376 -0.0757 -1.7017
   66SAPC   C39 5514   1.725   0.670   7.407  0.4163  0.0096 -0.6100
   66SAPC   H9X 5515   1.794   0.700   7.489 -1.5053  2.0936  0.3652
   66SAPC   H9Y 5516   1.747   0.561   7.413  2.0216  0.2965 -0.7908
   66SAPC  C310 5517   1.586   0.719   7.432  0.8300  0.0522 -0.0362
   66SAPC  H10X 5518   1.516   0.657   7.372 -1.9512 -0.5267  3.4780
   66SAPC  H10Y 5519   1.562   0.814   7.380 -1.4192 -1.1138 -1.3101
   66SAPC  C311 5520   1.543   0.727   7.580 -0.0379  0.1847  0.5032
   66SAPC  H11X 5521   1.586   0.824   7.613  0.9594 -0.5774  1.5313
   66SAPC  H11Y 5522   1.566   0.640   7.644 -1.7066 -1.0857 -0.5388
   66SAPC  C312 5523   1.390   0.737   7.604 -0.1987 -0.3263  0.5677
   66SAPC  H12X 5524   1.338   0.647   7.565  0.4506 -1.0193  1.2711
   66SAPC  H12Y 5525   1.354   0.829   7.553  0.8634  1.0045  2.1107
   66SAPC  C313 5526   1.357   0.760   7.752 -0.2247 -0.3723 -0.5119
   66SAPC  H13X 5527   1.286   0.845   7.765  0.4981  0.1026  0.4497
   66SAPC  H13Y 5528   1.447   0.783   7.812  0.3122  0.3118 -1.5584
   66SAPC  C314 5529   1.296   0.627   7.819  0.4431  0.4040  0.5011
   66SAPC  H14X 5530   1.364   0.541   7.805 -0.2613 -0.1860  0.6485
   66SAPC  H14Y 5531   1.200   0.611   7.765  0.5087  0.7335  0.2845
   66SAPC  C315 5532   1.275   0.648   7.965 -1.1133  0.5876 -0.0639
   66SAPC  H15X 5533   1.363   0.697   8.012 -1.8491  1.7411  0.1500
   66SAPC  H15Y 5534   1.246   0.555   8.018 -1.1532 -0.0775 -1.2140
   66SAPC  C316 5535   1.158   0.735   7.996 -0.6011  0.4695  1.1206
   66SAPC  H16X 5536   1.064   0.690   7.956 -0.5250  1.7808 -0.6392
   66SAPC  H16Y 5537   1.165   0.828   7.936 -1.6113 -0.8563 -1.2043
   66SAPC  C317 5538   1.142   0.768   8.140 -0.7978  0.8843  0.3274
   66SAPC  H17X 5539   1.090   0.866   8.143 -0.5386  1.1455 -1.9512
   66SAPC  H17Y 5540   1.237   0.787   8.193 -0.1552  3.0247 -1.4253
   66SAPC  C318 5541   1.046   0.667   8.203 -0.2238  0.9153 -0.4917
   66SAPC  H18X 5542   1.091   0.566   8.207 -2.6835 -0.2401  1.8165
   66SAPC  H18Y 5543   0.950   0.657   8.148  1.1544 -0.8385 -2.7336
   66SAPC  H18Z 5544   1.024   0.703   8.306 -0.1138  2.8344 -1.0853
   67SAPC     N 5545   3.855   2.440   5.648 -0.2724  0.1739  0.4218
   67SAPC   C12 5546   3.899   2.444   5.788  0.1744  0.5774  1.2594
   67SAPC  H12A 5547   3.953   2.352   5.807 -0.0428  0.6303  2.1914
   67SAPC  H12B 5548   3.817   2.440   5.858 -1.1727  1.3036 -0.2237
   67SAPC   C13 5549   3.970   2.450   5.545 -0.0766 -0.3321  0.4058
   67SAPC  H13A 5550   4.022   2.541   5.571 -0.0292 -0.1403 -0.3635
   67SAPC  H13B 5551   4.035   2.367   5.568 -1.2018 -0.7692  2.2230
   67SAPC  H13C 5552   3.931   2.448   5.445 -1.1111 -1.5098  0.8094
   67SAPC   C14 5553   3.779   2.313   5.615  0.5430 -0.0286 -0.5068
   67SAPC  H14A 5554   3.834   2.221   5.630  0.4616  0.1417  1.0294
   67SAPC  H14B 5555   3.696   2.298   5.682  1.2180 -0.3559  0.2721
   67SAPC  H14C 5556   3.740   2.318   5.515  0.3696 -1.2017 -0.5094
   67SAPC   C15 5557   3.767   2.557   5.627 -0.2456 -0.2594 -0.3561
   67SAPC  H15A 5558   3.703   2.579   5.710  3.6135  4.1707  1.9140
   67SAPC  H15B 5559   3.817   2.652   5.616 -0.2434 -0.3387 -1.1367
   67SAPC  H15C 5560   3.704   2.536   5.542 -0.5738  1.0988 -0.4764
   67SAPC   C11 5561   4.005   2.547   5.835  0.7188  0.2893 -0.3291
   67SAPC  H11A 5562   3.963   2.648   5.816  1.2797  1.0006  1.8659
   67SAPC  H11B 5563   4.091   2.517   5.772  1.8024  1.1156  0.7216
   67SAPC     P 5564   3.924   2.566   6.083 -0.0911 -0.0333 -0.1014
   67SAPC   O13 5565   3.935   2.713   6.100  0.0116  0.6579 -0.5249
   67SAPC   O14 5566   3.788   2.513   6.032  0.4008  0.0449 -0.3568
   67SAPC   O12 5567   4.034   2.527   5.975 -0.2610 -0.6169  0.2510
   67SAPC   O11 5568   3.978   2.498   6.211  0.1231  0.0972 -0.5061
   67SAPC    C1 5569   4.043   2.369   6.199  0.3974 -0.2566 -1.1874
   67SAPC    HA 5570   3.993   2.297   6.131  1.8414 -3.0041  0.4981
   67SAPC    HB 5571   4.147   2.372   6.158  1.5707  1.4247  1.6439
   67SAPC    C2 5572   4.045   2.283   6.326  0.6705 -0.3368 -0.6271
   67SAPC    HS 5573   4.051   2.181   6.282 -0.1403  0.3711 -2.4715
   67SAPC   O21 5574   3.933   2.303   6.421  0.1682  0.0182 -0.2910
   67SAPC   C21 5575   3.823   2.262   6.367 -0.1991  0.8772 -0.3537
   67SAPC   O22 5576   3.809   2.202   6.265  0.1931 -0.0299  0.1998
   67SAPC   C22 5577   3.700   2.297   6.454  0.2100  0.2656 -0.5399
   67SAPC   H2R 5578   3.641   2.376   6.405  0.9975 -0.5288 -2.8946
   67SAPC   H2S 5579   3.633   2.209   6.459  1.8147 -0.9637  0.7896
   67SAPC    C3 5580   4.173   2.305   6.407 -0.3008 -0.2530  0.6345
   67SAPC    HX 5581   4.192   2.414   6.412 -1.7097  0.0987 -0.8001
   67SAPC    HY 5582   4.257   2.268   6.343 -1.9011  1.3754 -2.6898
   67SAPC   O31 5583   4.170   2.235   6.533  0.5819  0.5234 -0.5431
   67SAPC   C31 5584   4.127   2.301   6.640 -0.2020  0.2610  0.1538
   67SAPC   O32 5585   4.090   2.415   6.641 -0.2892  0.6885 -0.0883
   67SAPC   C32 5586   4.128   2.206   6.756 -0.3766  0.2593 -0.0014
   67SAPC   H2X 5587   4.224   2.150   6.758 -1.1003 -1.0340  1.8161
   67SAPC   H2Y 5588   4.048   2.131   6.737 -0.4868  0.0678  1.1456
   67SAPC   C23 5589   3.740   2.337   6.600 -0.2440  0.6521 -0.1634
   67SAPC   H3R 5590   3.815   2.420   6.596  0.9371 -0.4290 -1.6566
   67SAPC   H3S 5591   3.795   2.246   6.633  0.5045  0.6238 -1.4366
   67SAPC   C24 5592   3.626   2.383   6.685  0.6547  0.3980 -0.4856
   67SAPC   H4R 5593   3.560   2.295   6.698  0.9585  0.4091  1.2435
   67SAPC   H4S 5594   3.573   2.466   6.633  2.0754  1.4807 -0.2437
   67SAPC   C25 5595   3.656   2.427   6.820  0.2917 -0.5794 -0.3045
   67SAPC   H5R 5596   3.680   2.534   6.826  0.3374 -0.6567  1.3488
   67SAPC   C26 5597   3.652   2.362   6.938  0.1900  0.0561  0.0088
   67SAPC   H6R 5598   3.653   2.434   7.021  2.3493  0.5643 -0.3902
   67SAPC   C27 5599   3.617   2.219   6.959  0.3144 -1.0266  0.6888
   67SAPC   H7R 5600   3.614   2.169   6.860 -3.0681 -0.2423  0.2678
   67SAPC   H7S 5601   3.513   2.205   6.996  0.0374 -1.0014 -0.0643
   67SAPC   C28 5602   3.726   2.162   7.050 -0.0230 -0.0777  0.2314
   67SAPC   H8R 5603   3.829   2.185   7.021  0.3930 -1.3656  0.6370
   67SAPC   C29 5604   3.705   2.079   7.159 -0.0027 -0.3646  0.3692
   67SAPC   H9R 5605   3.792   2.027   7.201  0.0611  0.1262  0.8572
   67SAPC  C210 5606   3.576   2.033   7.227 -0.3258 -0.2539  0.5110
   67SAPC  H10R 5607   3.580   1.923   7.242  0.6807 -0.6192 -1.8518
   67SAPC  H10S 5608   3.488   2.050   7.162  0.3256 -1.0629 -0.6211
   67SAPC  C211 5609   3.567   2.116   7.357 -0.4534  0.0861  0.1754
   67SAPC  H11R 5610   3.514   2.210   7.337 -1.9626 -0.9456 -0.9343
   67SAPC  C212 5611   3.597   2.073   7.483  0.3656 -0.1414  0.5440
   67SAPC  H12R 5612   3.598   2.145   7.566  0.9602  0.4811  0.0026
   67SAPC  C213 5613   3.668   1.933   7.510 -0.1472  0.1970  0.3465
   67SAPC  H13R 5614   3.710   1.892   7.416  0.8325  1.9909 -0.0670
   67SAPC  H13S 5615   3.583   1.863   7.522 -0.2851 -0.0514 -1.8080
   67SAPC  C214 5616   3.764   1.923   7.624 -0.1371 -0.7254 -0.2169
   67SAPC  H14R 5617   3.872   1.910   7.609  0.5917  3.0156  0.7624
   67SAPC  C215 5618   3.724   1.927   7.755  0.0631  0.5256  0.0054
   67SAPC  H15R 5619   3.800   1.921   7.835  0.7431  0.2116 -0.6464
   67SAPC  C216 5620   3.583   1.931   7.803 -0.2266 -0.9967 -0.3110
   67SAPC  H16R 5621   3.538   1.830   7.809 -1.7134 -0.4856 -2.1133
   67SAPC  H16S 5622   3.516   1.984   7.732  1.0744  0.1601 -0.7214
   67SAPC  C217 5623   3.592   1.994   7.941 -0.0824  0.8639  0.1258
   67SAPC  H17R 5624   3.653   2.087   7.942  0.8927  0.2428  1.3610
   67SAPC  H17S 5625   3.649   1.923   8.005 -1.6333 -0.1500  0.4435
   67SAPC  C218 5626   3.451   2.036   7.986 -0.2484  0.5076  0.4132
   67SAPC  H18R 5627   3.402   2.092   7.902 -0.3453 -0.0747  0.0745
   67SAPC  H18S 5628   3.472   2.107   8.069  1.0098 -0.4144  0.9056
   67SAPC  C219 5629   3.366   1.919   8.021 -0.0941  0.0727  0.2656
   67SAPC  H19R 5630   3.423   1.835   8.067 -1.2062 -0.6229  0.4157
   67SAPC  H19S 5631   3.326   1.876   7.927 -0.3223  0.1226  0.3393
   67SAPC  C220 5632   3.243   1.950   8.107 -0.7269 -0.8092 -0.8608
   67SAPC  H20R 5633   3.273   2.003   8.200 -1.1796  0.7956 -1.6057
   67SAPC  H20S 5634   3.183   1.860   8.134 -1.2095 -0.0628  0.6656
   67SAPC  H20T 5635   3.177   2.017   8.049 -1.1181 -1.4945 -1.2297
   67SAPC   C33 5636   4.102   2.282   6.897  0.0994  0.4115  0.7203
   67SAPC   H3X 5637   4.004   2.334   6.892  0.2166  0.5622 -2.4176
   67SAPC   H3Y 5638   4.176   2.365   6.899  0.7718 -0.1072 -0.7585
   67SAPC   C34 5639   4.122   2.196   7.015  0.4095 -0.5358 -0.5744
   67SAPC   H4X 5640   4.217   2.142   6.997  1.7398  2.0850 -1.9593
   67SAPC   H4Y 5641   4.036   2.126   7.027 -0.9004  0.8144 -1.7525
   67SAPC   C35 5642   4.155   2.275   7.139  0.3775 -0.6407 -0.3774
   67SAPC   H5X 5643   4.092   2.366   7.126 -0.8835 -1.5319 -0.7450
   67SAPC   H5Y 5644   4.260   2.311   7.144  0.5301 -1.2202  1.3484
   67SAPC   C36 5645   4.128   2.206   7.273 -0.3511  0.1780 -0.1775
   67SAPC   H6X 5646   4.195   2.119   7.288 -1.2747 -0.3772  0.8654
   67SAPC   H6Y 5647   4.029   2.155   7.264 -0.1753 -0.0267 -1.1205
   67SAPC   C37 5648   4.126   2.306   7.393 -0.2896  0.9527  0.2410
   67SAPC   H7X 5649   4.064   2.397   7.381 -0.7685  0.3927 -1.9440
   67SAPC   H7Y 5650   4.227   2.345   7.418  1.2465 -1.7720 -1.2680
   67SAPC   C38 5651   4.091   2.226   7.516  0.0814 -0.0039 -0.0333
   67SAPC   H8X 5652   4.169   2.147   7.523 -0.6474 -0.7708 -0.3671
   67SAPC   H8Y 5653   3.987   2.191   7.496  0.1184  0.4253 -0.9899
   67SAPC   C39 5654   4.099   2.313   7.646 -0.1308 -0.2377 -0.5184
   67SAPC   H9X 5655   4.041   2.403   7.616 -0.0993 -0.0437 -0.0106
   67SAPC   H9Y 5656   4.205   2.338   7.665 -0.6702  2.3590 -0.5646
   67SAPC  C310 5657   4.032   2.242   7.763 -0.2624  0.5272 -0.2538
   67SAPC  H10X 5658   4.100   2.156   7.777 -0.3372  0.9093  3.7084
   67SAPC  H10Y 5659   3.934   2.207   7.724  0.0748 -1.6296  0.6702
   67SAPC  C311 5660   4.006   2.320   7.891 -0.0917 -0.7570  0.1864
   67SAPC  H11X 5661   3.956   2.418   7.878  0.6282 -0.1117  1.9302
   67SAPC  H11Y 5662   4.109   2.348   7.921 -0.2213  0.4896 -0.4745
   67SAPC  C312 5663   3.947   2.241   7.998  0.2683  0.0066 -0.5007
   67SAPC  H12X 5664   4.008   2.148   8.008  0.7373  0.3594  0.0159
   67SAPC  H12Y 5665   3.838   2.226   7.985  0.3174  1.3414 -3.0799
   67SAPC  C313 5666   3.961   2.302   8.139  0.2017 -0.7186 -0.2322
   67SAPC  H13X 5667   3.922   2.406   8.136  0.4873 -0.5101  1.7651
   67SAPC  H13Y 5668   4.068   2.300   8.167 -0.2140 -1.7002  1.4250
   67SAPC  C314 5669   3.889   2.225   8.249 -0.0244 -0.2761  0.2321
   67SAPC  H14X 5670   3.933   2.254   8.347 -0.9966 -0.7206  0.8064
   67SAPC  H14Y 5671   3.913   2.118   8.232  0.9746 -0.1062  0.5152
   67SAPC  C315 5672   3.731   2.229   8.265  0.3331 -0.5211  0.2990
   67SAPC  H15X 5673   3.687   2.187   8.172 -1.0145  3.1525 -0.9022
   67SAPC  H15Y 5674   3.698   2.335   8.270 -0.3924 -0.6991 -0.5072
   67SAPC  C316 5675   3.690   2.140   8.382 -0.0057 -0.7560  0.7380
   67SAPC  H16X 5676   3.713   2.193   8.477 -0.5848 -1.5666  1.3478
   67SAPC  H16Y 5677   3.743   2.042   8.384 -0.6959 -1.1247  2.5822
   67SAPC  C317 5678   3.536   2.113   8.378 -0.4021  0.0584  0.3829
   67SAPC  H17X 5679   3.508   2.044   8.461  0.2352 -0.1787  0.4029
   67SAPC  H17Y 5680   3.523   2.060   8.282 -1.4686  0.7891  0.0980
   67SAPC  C318 5681   3.451   2.241   8.384  0.6305 -0.4707 -0.0406
   67SAPC  H18X 5682   3.344   2.212   8.382  0.4885 -0.3566  2.3568
   67SAPC  H18Y 5683   3.488   2.310   8.305  1.5976 -1.7758 -0.7560
   67SAPC  H18Z 5684   3.476   2.298   8.476 -0.2558 -0.0227 -0.0620
   68SAPC     N 5685   1.756   2.476   5.982 -0.1164  0.0817  0.0352
   68SAPC   C12 5686   1.680   2.589   6.049  0.0451  0.2894 -1.2734
   68SAPC  H12A 5687   1.597   2.544   6.102  2.1714 -0.2117  1.8906
   68SAPC  H12B 5688   1.636   2.644   5.968 -1.2455 -0.6360 -1.2373
   68SAPC   C13 5689   1.666   2.407   5.874 -0.0701 -0.4662 -0.3519
   68SAPC  H13A 5690   1.624   2.469   5.796  1.7123  1.0628 -0.1751
   68SAPC  H13B 5691   1.717   2.326   5.824 -2.4130 -3.0087  1.1274
   68SAPC  H13C 5692   1.583   2.359   5.922 -0.4015 -0.9136 -1.3373
   68SAPC   C14 5693   1.878   2.529   5.913  0.9081  0.2346 -0.7788
   68SAPC  H14A 5694   1.946   2.579   5.980  0.7174  0.9201 -1.0837
   68SAPC  H14B 5695   1.947   2.458   5.870  0.4494 -0.8512  0.2338
   68SAPC  H14C 5696   1.848   2.607   5.844  1.3075  1.9075  0.8487
   68SAPC   C15 5697   1.797   2.367   6.083 -0.3213 -0.0809  0.2557
   68SAPC  H15A 5698   1.829   2.414   6.175  0.7073 -3.1396  1.5943
   68SAPC  H15B 5699   1.716   2.310   6.127  0.2906  0.3014  1.9789
   68SAPC  H15C 5700   1.880   2.304   6.056  0.5610  1.3194 -0.3624
   68SAPC   C11 5701   1.764   2.683   6.140  0.4031 -0.1459 -0.0577
   68SAPC  H11A 5702   1.704   2.764   6.189  0.1606 -0.5151  0.2652
   68SAPC  H11B 5703   1.843   2.738   6.084  0.6259  0.8658  1.1917
   68SAPC     P 5704   1.743   2.591   6.389  0.3367  0.3016  0.0448
   68SAPC   O13 5705   1.596   2.563   6.362  0.0402  0.5431 -0.5746
   68SAPC   O14 5706   1.812   2.490   6.471  0.1423  0.0176 -0.1776
   68SAPC   O12 5707   1.818   2.614   6.251  0.1861 -0.4589 -0.0552
   68SAPC   O11 5708   1.753   2.727   6.460 -0.0082 -0.1906  0.0922
   68SAPC    C1 5709   1.865   2.810   6.450  0.3581 -0.1740  0.2049
   68SAPC    HA 5710   1.913   2.814   6.350 -1.3830 -1.7656 -0.7697
   68SAPC    HB 5711   1.821   2.912   6.457  1.2588  0.1127  2.5955
   68SAPC    C2 5712   1.971   2.805   6.553 -0.1771  0.2355 -0.1939
   68SAPC    HS 5713   2.029   2.715   6.525  1.8042  1.3274  0.1878
   68SAPC   O21 5714   1.891   2.801   6.668  0.0701 -0.5451  0.3274
   68SAPC   C21 5715   1.909   2.687   6.737  0.1286  0.5816 -0.1282
   68SAPC   O22 5716   1.994   2.607   6.711 -0.2476 -0.2843 -0.1114
   68SAPC   C22 5717   1.824   2.689   6.860 -0.3178 -0.0354 -0.2711
   68SAPC   H2R 5718   1.850   2.779   6.919  1.1136 -0.4720 -0.2207
   68SAPC   H2S 5719   1.717   2.696   6.828 -0.3011  2.0995  0.0095
   68SAPC    C3 5720   2.082   2.917   6.561  0.2220  1.2760 -1.0789
   68SAPC    HX 5721   2.026   3.013   6.556 -2.0433  0.0045 -1.1516
   68SAPC    HY 5722   2.147   2.904   6.472  1.1853  0.7780 -0.3240
   68SAPC   O31 5723   2.162   2.891   6.680 -0.0742 -0.9860  0.0570
   68SAPC   C31 5724   2.188   2.989   6.762 -0.1626  0.3181  0.4290
   68SAPC   O32 5725   2.171   3.110   6.745  0.1333 -0.1264  0.8546
   68SAPC   C32 5726   2.265   2.922   6.876 -0.2200 -0.9864 -0.3859
   68SAPC   H2X 5727   2.340   2.998   6.907 -0.4421 -0.6230 -0.7423
   68SAPC   H2Y 5728   2.312   2.828   6.839  0.4652 -0.1140 -1.7882
   68SAPC   C23 5729   1.837   2.565   6.951  0.4374  0.4830 -0.1296
   68SAPC   H3R 5730   1.945   2.543   6.958  0.4062  0.4810  0.4244
   68SAPC   H3S 5731   1.792   2.476   6.903  1.5099  0.5651 -1.3299
   68SAPC   C24 5732   1.776   2.578   7.094  0.4335 -0.0639  0.2538
   68SAPC   H4R 5733   1.752   2.477   7.132 -1.0122 -0.3991 -1.4159
   68SAPC   H4S 5734   1.674   2.621   7.091  0.7868  0.8190  0.6796
   68SAPC   C25 5735   1.875   2.662   7.182 -0.0763 -0.1498  0.4235
   68SAPC   H5R 5736   1.850   2.769   7.186 -1.0517 -0.3823  3.6875
   68SAPC   C26 5737   1.970   2.613   7.263 -0.2280 -0.7182 -0.3038
   68SAPC   H6R 5738   2.025   2.690   7.319 -1.8654  0.9021 -0.8095
   68SAPC   C27 5739   2.000   2.476   7.305  0.5983  0.1939  0.7063
   68SAPC   H7R 5740   2.098   2.443   7.264  0.2161 -0.9030  0.6393
   68SAPC   H7S 5741   1.927   2.403   7.265  0.4620 -0.1108  1.4909
   68SAPC   C28 5742   1.995   2.448   7.461 -0.1634  0.5587  0.9630
   68SAPC   H8R 5743   1.900   2.453   7.516  0.5356 -1.8480  2.5568
   68SAPC   C29 5744   2.106   2.429   7.534  0.1425 -0.1437 -0.1946
   68SAPC   H9R 5745   2.094   2.419   7.643  0.5395 -0.6772 -0.1958
   68SAPC  C210 5746   2.251   2.429   7.472 -0.0832 -0.2009 -0.0348
   68SAPC  H10R 5747   2.311   2.506   7.525  0.6265 -0.0916 -0.9811
   68SAPC  H10S 5748   2.272   2.457   7.367 -0.8979 -1.3240 -0.5136
   68SAPC  C211 5749   2.320   2.299   7.489  0.3719  0.3603  0.1926
   68SAPC  H11R 5750   2.339   2.242   7.396  2.1750 -1.2116  1.4431
   68SAPC  C212 5751   2.371   2.245   7.601 -0.7041 -0.2818  0.1415
   68SAPC  H12R 5752   2.429   2.154   7.582  0.3008 -0.1286  2.2513
   68SAPC  C213 5753   2.386   2.319   7.733 -0.2014  0.4694  0.0893
   68SAPC  H13R 5754   2.317   2.268   7.803 -1.2386  0.7004 -0.7489
   68SAPC  H13S 5755   2.352   2.425   7.723  0.5792  0.6478 -0.8287
   68SAPC  C214 5756   2.526   2.315   7.791 -0.7733 -0.2405  0.3080
   68SAPC  H14R 5757   2.596   2.392   7.756  1.0558 -1.6836  0.6400
   68SAPC  C215 5758   2.576   2.218   7.878 -0.7395  0.0558 -1.0129
   68SAPC  H15R 5759   2.683   2.217   7.907 -1.4124 -0.6538  1.7129
   68SAPC  C216 5760   2.501   2.104   7.940  0.2796  0.1912  0.8410
   68SAPC  H16R 5761   2.452   2.050   7.856 -1.5202  2.2349  0.4844
   68SAPC  H16S 5762   2.421   2.136   8.010 -0.8862 -2.5948  0.9199
   68SAPC  C217 5763   2.592   2.016   8.033 -0.3562  0.2328  0.1271
   68SAPC  H17R 5764   2.530   1.948   8.096  1.7653 -0.4736  1.5750
   68SAPC  H17S 5765   2.650   2.085   8.097 -1.1512  1.9958 -0.9977
   68SAPC  C218 5766   2.698   1.908   7.984 -0.1651  0.1722  0.1827
   68SAPC  H18R 5767   2.776   1.951   7.917 -0.3674 -0.5999 -0.5686
   68SAPC  H18S 5768   2.645   1.839   7.914  1.1492  0.1337 -0.8266
   68SAPC  C219 5769   2.759   1.827   8.098  0.0615  0.4375 -0.3816
   68SAPC  H19R 5770   2.682   1.773   8.157  0.0285  0.4771 -0.3888
   68SAPC  H19S 5771   2.799   1.903   8.168  0.2159  1.0937 -1.1642
   68SAPC  C220 5772   2.866   1.729   8.052  0.4975 -0.3303  0.3176
   68SAPC  H20R 5773   2.870   1.647   8.126  1.6534 -0.0790  0.5607
   68SAPC  H20S 5774   2.967   1.776   8.046 -0.3862  1.8207  0.9602
   68SAPC  H20T 5775   2.842   1.698   7.948 -0.2615 -2.2391  1.0278
   68SAPC   C33 5776   2.174   2.882   6.991  0.0600  0.2561 -0.6455
   68SAPC   H3X 5777   2.088   2.825   6.949  0.1857  0.5392 -1.3023
   68SAPC   H3Y 5778   2.137   2.969   7.049  0.7645  1.5441 -2.0538
   68SAPC   C34 5779   2.250   2.789   7.090  0.4208 -0.0382 -0.1509
   68SAPC   H4X 5780   2.283   2.701   7.031  0.3393  0.2414 -0.6151
   68SAPC   H4Y 5781   2.170   2.764   7.162 -2.0606 -0.0467 -2.7291
   68SAPC   C35 5782   2.369   2.855   7.163  0.0660 -0.0681  0.7053
   68SAPC   H5X 5783   2.337   2.953   7.206 -2.6518 -1.1368  1.3464
   68SAPC   H5Y 5784   2.455   2.897   7.106 -2.5056  3.1302 -1.2185
   68SAPC   C36 5785   2.438   2.765   7.260 -0.0355  0.6845 -0.4033
   68SAPC   H6X 5786   2.360   2.737   7.334 -1.2800 -0.6513 -2.1522
   68SAPC   H6Y 5787   2.511   2.821   7.322  0.2286 -0.0463 -0.0501
   68SAPC   C37 5788   2.493   2.637   7.203 -0.7273 -0.6191  0.1538
   68SAPC   H7X 5789   2.565   2.660   7.121 -0.3372 -3.5589 -0.4365
   68SAPC   H7Y 5790   2.406   2.577   7.169 -0.6262  0.3075 -1.8824
   68SAPC   C38 5791   2.568   2.553   7.312 -0.1393 -0.3908  0.0523
   68SAPC   H8X 5792   2.514   2.535   7.407  0.8879 -0.1672  0.6951
   68SAPC   H8Y 5793   2.660   2.614   7.325  0.3831 -1.3604  1.0577
   68SAPC   C39 5794   2.606   2.411   7.263 -0.4666 -0.1454 -0.2235
   68SAPC   H9X 5795   2.602   2.415   7.152 -1.6297  2.1531 -0.1596
   68SAPC   H9Y 5796   2.529   2.339   7.300  1.1660 -0.6373  2.4598
   68SAPC  C310 5797   2.751   2.370   7.299 -0.4599  0.0331  0.1171
   68SAPC  H10X 5798   2.770   2.389   7.407  0.1847  2.4662 -0.3586
   68SAPC  H10Y 5799   2.820   2.440   7.247 -2.9945  1.1950 -1.9035
   68SAPC  C311 5800   2.788   2.224   7.270  1.2062 -0.2565 -1.1833
   68SAPC  H11X 5801   2.759   2.189   7.168 -0.5461 -1.1058 -0.4191
   68SAPC  H11Y 5802   2.727   2.162   7.339 -0.0193  1.1361 -0.9913
   68SAPC  C312 5803   2.944   2.193   7.291 -0.3677 -0.0707 -0.6912
   68SAPC  H12X 5804   2.985   2.289   7.329 -1.0395 -0.1261  0.2286
   68SAPC  H12Y 5805   2.985   2.158   7.194 -2.1356  0.6831 -1.7758
   68SAPC  C313 5806   2.965   2.080   7.396  1.0035  0.0579  0.6103
   68SAPC  H13X 5807   3.068   2.039   7.403  0.4878 -1.3676  0.2520
   68SAPC  H13Y 5808   2.897   1.997   7.367 -0.0208  1.1878 -0.3031
   68SAPC  C314 5809   2.929   2.132   7.546 -0.0417  0.1303  0.1484
   68SAPC  H14X 5810   2.840   2.197   7.532  0.1442  0.0726 -1.4263
   68SAPC  H14Y 5811   3.006   2.203   7.585 -2.4803  2.1016  1.7115
   68SAPC  C315 5812   2.900   2.018   7.647  0.0473 -0.3021  0.4163
   68SAPC  H15X 5813   2.831   1.940   7.611 -0.0002  0.0151 -0.1862
   68SAPC  H15Y 5814   2.840   2.072   7.724  0.1866 -0.3457  0.5572
   68SAPC  C316 5815   3.018   1.953   7.718 -0.2906  0.3618 -0.2219
   68SAPC  H16X 5816   2.990   1.914   7.818  1.3951  0.5381  0.3485
   68SAPC  H16Y 5817   3.079   2.044   7.737  0.1196 -0.0586  0.5137
   68SAPC  C317 5818   3.101   1.846   7.653 -0.2889 -0.7919  0.4091
   68SAPC  H17X 5819   3.060   1.826   7.551 -0.1411  2.3151 -0.3644
   68SAPC  H17Y 5820   3.101   1.753   7.713  1.0550  0.1915  2.0102
   68SAPC  C318 5821   3.244   1.891   7.642  0.1169 -0.2978 -0.1843
   68SAPC  H18X 5822   3.278   1.952   7.728  1.3229 -0.4210 -0.5475
   68SAPC  H18Y 5823   3.256   1.943   7.544 -0.6648 -0.5348 -0.4197
   68SAPC  H18Z 5824   3.317   1.808   7.640  2.8378  1.9373 -0.4191
   69SLPC     N 5825   0.680   0.863  11.018 -0.0663  1.0402  0.4610
   69SLPC   C13 5826   0.742   0.999  10.994 -0.0917 -0.1597  0.0007
   69SLPC  H13A 5827   0.683   1.071  11.048 -2.8098 -3.1004  1.3425
   69SLPC  H13B 5828   0.842   1.005  11.035 -0.9703  2.3153  2.0174
   69SLPC  H13C 5829   0.733   1.025  10.890 -0.6883 -3.0777 -0.7801
   69SLPC   C14 5830   0.547   0.860  10.944 -0.2672 -0.4168  0.8626
   69SLPC  H14A 5831   0.472   0.922  10.991 -0.3505 -0.2268  0.4760
   69SLPC  H14B 5832   0.562   0.894  10.843  1.4839 -0.1772  1.1857
   69SLPC  H14C 5833   0.512   0.757  10.939  1.6078 -1.0391 -1.4549
   69SLPC   C15 5834   0.663   0.829  11.161  0.1573  0.3260 -0.1439
   69SLPC  H15A 5835   0.611   0.899  11.225 -1.1677 -0.2977 -0.5042
   69SLPC  H15B 5836   0.608   0.737  11.163 -3.2510  2.1730 -1.3106
   69SLPC  H15C 5837   0.752   0.805  11.217 -1.4068 -0.9919  1.8918
   69SLPC   C12 5838   0.765   0.761  10.941 -0.9033  0.7377 -0.6778
   69SLPC  H12A 5839   0.868   0.784  10.961  0.1761 -2.9041 -1.2138
   69SLPC  H12B 5840   0.765   0.777  10.834  1.4285  3.4176 -0.3707
   69SLPC   C11 5841   0.745   0.605  10.960  0.1070  0.0506  0.9447
   69SLPC  H11A 5842   0.764   0.578  11.066 -1.0237 -2.3472  0.6045
   69SLPC  H11B 5843   0.817   0.545  10.900 -0.8304  1.5266 -1.7986
   69SLPC     P 5844   0.578   0.504  10.789 -0.0039 -0.3706  0.0399
   69SLPC   O13 5845   0.666   0.388  10.768 -0.3219 -0.0814 -0.2507
   69SLPC   O14 5846   0.432   0.477  10.782  0.8540  1.1926  0.5883
   69SLPC   O12 5847   0.613   0.569  10.928  0.4855  0.1478  0.5608
   69SLPC   O11 5848   0.611   0.616  10.680  0.3513  0.4297  0.4353
   69SLPC    C1 5849   0.724   0.605  10.590 -0.2596  0.0317  0.1734
   69SLPC    HA 5850   0.807   0.676  10.608  1.3895 -0.8698 -3.0403
   69SLPC    HB 5851   0.767   0.503  10.594 -0.1046  0.0331 -0.9314
   69SLPC    C2 5852   0.677   0.628  10.442 -1.0411  0.0153  0.3236
   69SLPC    HS 5853   0.641   0.733  10.450 -0.2021  0.3304  0.0753
   69SLPC   O21 5854   0.566   0.547  10.397 -1.0557  0.6265 -0.1867
   69SLPC   C21 5855   0.497   0.598  10.298  0.4511  0.6231 -0.4142
   69SLPC   O22 5856   0.512   0.710  10.250 -0.9222  0.3494  0.1216
   69SLPC   C22 5857   0.401   0.485  10.253  0.4276  0.2046 -0.3616
   69SLPC   H2R 5858   0.472   0.402  10.233 -0.1290 -0.3110 -0.2245
   69SLPC   H2S 5859   0.334   0.462  10.339 -1.3108 -1.6523 -2.0899
   69SLPC    C3 5860   0.800   0.611  10.347  0.7552 -0.9757  0.6057
   69SLPC    HX 5861   0.823   0.503  10.334  1.1176 -0.8238 -0.0812
   69SLPC    HY 5862   0.889   0.641  10.406 -1.4413  1.2164  3.0507
   69SLPC   O31 5863   0.784   0.682  10.228 -0.1930 -0.0375  0.4182
   69SLPC   C31 5864   0.828   0.806  10.233  0.0648  0.4409 -0.3330
   69SLPC   O32 5865   0.859   0.865  10.338 -0.0884 -0.0371  0.6142
   69SLPC   C32 5866   0.827   0.866  10.089 -0.1193 -0.4416  0.6935
   69SLPC   H2X 5867   0.896   0.817  10.018  0.7665  1.5310  0.1182
   69SLPC   H2Y 5868   0.860   0.972  10.089  1.2780 -0.8381 -0.5552
   69SLPC   C23 5869   0.316   0.517  10.127  0.4113  0.2451  0.0027
   69SLPC   H3R 5870   0.262   0.611  10.149  1.2989  0.7177  0.2035
   69SLPC   H3S 5871   0.237   0.439  10.119  1.0077 -0.3041 -0.7387
   69SLPC   C24 5872   0.399   0.520  10.000 -0.3321  0.2419  0.1938
   69SLPC   H4R 5873   0.475   0.439   9.992  1.5280  1.8850  0.4390
   69SLPC   H4S 5874   0.455   0.615   9.996  1.2983 -0.7067 -0.9187
   69SLPC   C25 5875   0.314   0.500   9.878 -0.1357 -0.4145 -0.0021
   69SLPC   H5R 5876   0.220   0.557   9.891 -0.3013  0.2590 -3.2648
   69SLPC   H5S 5877   0.282   0.394   9.863 -2.4343  0.5221 -2.5358
   69SLPC   C26 5878   0.382   0.544   9.742 -0.0641  0.1452 -1.1568
   69SLPC   H6R 5879   0.492   0.527   9.736 -0.2847 -1.8244 -0.2771
   69SLPC   H6S 5880   0.363   0.654   9.740 -1.5316  0.0640  1.9984
   69SLPC   C27 5881   0.299   0.479   9.630 -0.4203  0.3352  0.1267
   69SLPC   H7R 5882   0.193   0.505   9.650 -0.9072 -2.9248  2.6075
   69SLPC   H7S 5883   0.314   0.369   9.631  1.4830  0.5558  1.6765
   69SLPC   C28 5884   0.327   0.530   9.486 -0.8497 -0.2884  0.6276
   69SLPC   H8R 5885   0.435   0.507   9.471 -0.9244 -0.5740  0.5240
   69SLPC   H8S 5886   0.298   0.636   9.478 -0.3487 -0.2405 -0.8845
   69SLPC   C29 5887   0.257   0.443   9.379  0.3793  0.6245  0.1438
   69SLPC   H9R 5888   0.229   0.340   9.405  3.5448  0.1377  2.1182
   69SLPC  C210 5889   0.234   0.476   9.249 -0.0792 -0.1340  0.3466
   69SLPC  H10R 5890   0.179   0.400   9.192 -4.0587 -0.1483  3.7054
   69SLPC  C211 5891   0.266   0.596   9.163  0.0747 -0.3545 -0.3690
   69SLPC  H11R 5892   0.266   0.689   9.225  1.2214 -1.3380  1.1968
   69SLPC  H11S 5893   0.197   0.624   9.081  0.7632  1.6905 -0.3269
   69SLPC  C212 5894   0.408   0.589   9.120  0.3872 -0.3111  0.1395
   69SLPC  H12R 5895   0.479   0.579   9.204  1.2264  0.4093 -0.4629
   69SLPC  C213 5896   0.447   0.591   8.989 -0.1513 -0.0233  0.4984
   69SLPC  H13R 5897   0.554   0.575   8.968 -0.1096 -0.3566  0.9469
   69SLPC  C214 5898   0.359   0.616   8.873  0.4912 -0.3201  0.3574
   69SLPC  H14R 5899   0.291   0.700   8.901 -0.4249 -1.0403  0.3680
   69SLPC  H14S 5900   0.302   0.528   8.838  0.4622  0.1489 -0.8296
   69SLPC  C215 5901   0.436   0.681   8.752 -0.3727 -0.0158  0.5633
   69SLPC  H15R 5902   0.501   0.760   8.796 -1.0406  0.7116  0.2692
   69SLPC  H15S 5903   0.364   0.720   8.676  0.9010  5.9770  1.8598
   69SLPC  C216 5904   0.525   0.571   8.678 -0.0481 -0.1304  0.1260
   69SLPC  H16R 5905   0.458   0.493   8.638  1.0586  0.0594 -2.2400
   69SLPC  H16S 5906   0.598   0.530   8.750 -0.6033  0.8896  1.3194
   69SLPC  C217 5907   0.605   0.637   8.561  0.6334  0.2205 -0.5483
   69SLPC  H17R 5908   0.676   0.715   8.598 -0.0617  0.6012  0.0084
   69SLPC  H17S 5909   0.534   0.689   8.493  2.1614  0.3893 -2.0791
   69SLPC  C218 5910   0.687   0.537   8.481  0.3224  0.1579 -0.6716
   69SLPC  H18R 5911   0.740   0.602   8.408 -1.4015  2.4124 -0.0577
   69SLPC  H18S 5912   0.622   0.457   8.440 -1.0724  1.4770 -1.1763
   69SLPC  H18T 5913   0.767   0.500   8.548 -1.6801  0.8860  2.3241
   69SLPC   C33 5914   0.681   0.860  10.032 -0.8783  0.7505  0.0381
   69SLPC   H3X 5915   0.615   0.918  10.100 -0.2523 -0.7174  2.0004
   69SLPC   H3Y 5916   0.648   0.754  10.042 -0.4266  0.4440 -1.3828
   69SLPC   C34 5917   0.663   0.901   9.888  0.1540 -0.6310 -0.6931
   69SLPC   H4X 5918   0.704   0.828   9.815  0.7060  1.0049 -2.0892
   69SLPC   H4Y 5919   0.719   0.996   9.868 -0.5635 -0.3661 -1.4641
   69SLPC   C35 5920   0.516   0.924   9.857  0.3473  0.1050 -0.4602
   69SLPC   H5X 5921   0.485   1.019   9.905  2.2775 -0.0144  1.1458
   69SLPC   H5Y 5922   0.466   0.834   9.899  2.4773 -0.7347  0.4452
   69SLPC   C36 5923   0.481   0.924   9.707 -0.3591 -0.4755 -0.1642
   69SLPC   H6X 5924   0.375   0.958   9.705  0.1077  1.0575 -0.1919
   69SLPC   H6Y 5925   0.490   0.824   9.660  0.2219 -0.6108  0.2214
   69SLPC   C37 5926   0.553   1.031   9.622  0.2843  0.1117  1.1906
   69SLPC   H7X 5927   0.661   1.018   9.642  0.6346 -2.8139 -1.6755
   69SLPC   H7Y 5928   0.537   1.131   9.667  0.9193  1.2366 -0.9442
   69SLPC   C38 5929   0.510   1.030   9.478 -0.1564  0.1522 -0.2498
   69SLPC   H8X 5930   0.403   1.059   9.477 -0.1408  0.2482 -1.7669
   69SLPC   H8Y 5931   0.521   0.925   9.443  1.3446  0.0134  0.5745
   69SLPC   C39 5932   0.579   1.140   9.395  0.2640 -0.3684  0.8205
   69SLPC   H9X 5933   0.688   1.120   9.394  0.3382 -0.0229 -0.4829
   69SLPC   H9Y 5934   0.548   1.233   9.446  2.2905  0.0402  1.3617
   69SLPC  C310 5935   0.540   1.146   9.243 -0.5896  0.0779 -0.1755
   69SLPC  H10X 5936   0.586   1.241   9.210 -2.4156  0.6289 -1.2466
   69SLPC  H10Y 5937   0.432   1.164   9.260 -0.4020 -0.9104  2.7599
   69SLPC  C311 5938   0.574   1.023   9.155 -0.2310  0.4348 -0.8331
   69SLPC  H11X 5939   0.577   0.926   9.208  0.9508  1.3000  0.7633
   69SLPC  H11Y 5940   0.674   1.043   9.110  0.7425  1.8506  1.7846
   69SLPC  C312 5941   0.474   1.010   9.036 -0.0878  0.0132  0.4749
   69SLPC  H12X 5942   0.367   0.994   9.063  0.0807  0.9932  1.8388
   69SLPC  H12Y 5943   0.499   0.912   8.990 -0.6837  1.9619 -4.6346
   69SLPC  C313 5944   0.477   1.111   8.922 -0.5247 -0.8675  0.2516
   69SLPC  H13X 5945   0.440   1.209   8.958  0.0439 -0.4336 -0.3094
   69SLPC  H13Y 5946   0.400   1.073   8.851 -0.4588 -1.3655  0.4462
   69SLPC  C314 5947   0.611   1.141   8.859 -0.4532 -0.5720 -0.4309
   69SLPC  H14X 5948   0.664   1.046   8.836 -0.4748 -0.4344 -1.0803
   69SLPC  H14Y 5949   0.668   1.184   8.943 -3.3434  2.2525  0.2715
   69SLPC  C315 5950   0.595   1.232   8.730 -0.5608  0.2632 -0.8557
   69SLPC  H15X 5951   0.498   1.212   8.680 -1.0563 -1.9136  0.8261
   69SLPC  H15Y 5952   0.682   1.216   8.662  2.1030  0.3266  2.2749
   69SLPC  C316 5953   0.585   1.384   8.771 -0.4491  0.2353  0.1115
   69SLPC  H16X 5954   0.686   1.415   8.807  0.4516  0.5053 -2.4637
   69SLPC  H16Y 5955   0.507   1.390   8.850  1.8914  2.4203  2.4640
   69SLPC  C317 5956   0.568   1.477   8.652 -0.2793 -0.1655 -0.1314
   69SLPC  H17X 5957   0.495   1.431   8.582 -1.1357 -0.5417  0.9734
   69SLPC  H17Y 5958   0.666   1.484   8.602 -2.7336  0.2384 -5.5912
   69SLPC  C318 5959   0.504   1.608   8.682 -0.1430  0.4399 -0.4388
   69SLPC  H18X 5960   0.568   1.647   8.764 -0.3648 -1.9525  0.9534
   69SLPC  H18Y 5961   0.404   1.608   8.730  0.9866  2.7800  2.1744
   69SLPC  H18Z 5962   0.488   1.658   8.583 -2.8985 -3.7347 -2.3846
   70SLPC     N 5963   1.680   2.522  10.969 -0.0447 -1.0280  0.6995
   70SLPC   C13 5964   1.601   2.400  10.996 -0.7676 -0.3491  0.4460
   70SLPC  H13A 5965   1.536   2.414  11.081 -2.3827  0.9155 -0.9452
   70SLPC  H13B 5966   1.533   2.386  10.914  1.0330  0.2898 -1.2373
   70SLPC  H13C 5967   1.669   2.316  11.006  0.6350  0.8892  1.7465
   70SLPC   C14 5968   1.783   2.501  10.861  0.7700 -0.3911  0.4537
   70SLPC  H14A 5969   1.852   2.429  10.903  1.1832  0.2697  0.9252
   70SLPC  H14B 5970   1.744   2.460  10.769  2.1775 -2.5466  0.7566
   70SLPC  H14C 5971   1.843   2.587  10.836 -1.4308  0.9490 -0.4895
   70SLPC   C15 5972   1.751   2.542  11.102 -0.1032 -0.2269 -0.1041
   70SLPC  H15A 5973   1.695   2.584  11.185  3.2809 -0.3080  2.4363
   70SLPC  H15B 5974   1.807   2.455  11.132  1.1839  1.1705  1.8226
   70SLPC  H15C 5975   1.824   2.620  11.087  1.2924 -1.3985  0.3600
   70SLPC   C12 5976   1.588   2.635  10.936 -0.0032 -0.3357  0.2553
   70SLPC  H12A 5977   1.649   2.724  10.947 -2.2600  1.4897 -1.0631
   70SLPC  H12B 5978   1.512   2.639  11.013 -0.1276 -1.8379  0.2380
   70SLPC   C11 5979   1.517   2.640  10.797  0.2390  0.2310 -0.6039
   70SLPC  H11A 5980   1.602   2.644  10.726  1.3681 -1.8587  0.5514
   70SLPC  H11B 5981   1.455   2.733  10.796 -0.3447 -0.1296  0.7671
   70SLPC     P 5982   1.289   2.507  10.814  0.2937  0.0536 -0.1117
   70SLPC   O13 5983   1.271   2.365  10.867  0.2832  0.2889 -0.2002
   70SLPC   O14 5984   1.236   2.609  10.902  0.1703 -0.2464 -0.2795
   70SLPC   O12 5985   1.440   2.525  10.761  0.0499 -0.3432  0.5233
   70SLPC   O11 5986   1.199   2.517  10.682  0.1701  0.1383 -0.3258
   70SLPC    C1 5987   1.236   2.430  10.577  0.5120 -0.0666 -0.4449
   70SLPC    HA 5988   1.300   2.342  10.601 -0.4246 -0.5461  0.3553
   70SLPC    HB 5989   1.147   2.392  10.523  2.4306 -1.5162 -2.8055
   70SLPC    C2 5990   1.303   2.512  10.469 -0.1388 -1.2277 -0.2980
   70SLPC    HS 5991   1.394   2.558  10.513 -1.7383  2.3544 -0.4158
   70SLPC   O21 5992   1.222   2.603  10.398  0.6582  0.0488  0.2482
   70SLPC   C21 5993   1.238   2.734  10.419 -1.4277  0.0762  0.4313
   70SLPC   O22 5994   1.319   2.787  10.492  0.0569 -0.6932 -0.2568
   70SLPC   C22 5995   1.159   2.815  10.312 -0.1885  0.9000  0.2633
   70SLPC   H2R 5996   1.099   2.892  10.365 -0.3656  0.9622 -0.0273
   70SLPC   H2S 5997   1.228   2.868  10.243 -0.4888 -1.1206 -1.7009
   70SLPC    C3 5998   1.362   2.412  10.364 -0.6931 -0.0699 -0.1741
   70SLPC    HX 5999   1.434   2.345  10.416 -0.3250 -1.1081 -1.9208
   70SLPC    HY 6000   1.424   2.470  10.293  1.4926 -0.7499  1.0940
   70SLPC   O31 6001   1.277   2.321  10.294 -0.4375 -0.0368  0.0099
   70SLPC   C31 6002   1.248   2.355  10.166 -0.3946 -0.1116 -0.3389
   70SLPC   O32 6003   1.297   2.453  10.109  0.6946  0.3668  0.0035
   70SLPC   C32 6004   1.160   2.252  10.107  0.5025  0.9862 -0.1853
   70SLPC   H2X 6005   1.088   2.217  10.184  1.5565 -0.9799 -0.0494
   70SLPC   H2Y 6006   1.213   2.158  10.082  2.6469  2.2344 -0.6948
   70SLPC   C23 6007   1.068   2.729  10.216  0.3666 -0.4587 -0.2105
   70SLPC   H3R 6008   0.984   2.689  10.277  2.1605 -0.6934  2.2754
   70SLPC   H3S 6009   1.124   2.638  10.185  1.0430 -1.2064  2.8518
   70SLPC   C24 6010   1.008   2.816  10.105  0.4617 -0.3361 -0.2398
   70SLPC   H4R 6011   1.072   2.803  10.014 -0.5797  1.2019 -1.2411
   70SLPC   H4S 6012   1.018   2.925  10.125  0.2104 -0.0914 -1.3257
   70SLPC   C25 6013   0.869   2.771  10.062  0.2794 -0.9088 -0.2986
   70SLPC   H5R 6014   0.792   2.771  10.142 -0.9415 -1.4828 -1.4378
   70SLPC   H5S 6015   0.879   2.663  10.041 -1.4004 -1.3811  1.1470
   70SLPC   C26 6016   0.813   2.837   9.938 -0.5078 -0.5585 -1.0122
   70SLPC   H6R 6017   0.900   2.863   9.874  1.0185  1.3877  1.6138
   70SLPC   H6S 6018   0.768   2.927   9.986 -1.3619 -1.6915  0.3796
   70SLPC   C27 6019   0.693   2.780   9.864 -0.0261  0.0629 -0.6779
   70SLPC   H7R 6020   0.620   2.749   9.941  1.1954 -2.0714 -0.3116
   70SLPC   H7S 6021   0.723   2.686   9.813 -0.8725 -1.0970  0.8777
   70SLPC   C28 6022   0.624   2.883   9.768  0.3512  0.3541  0.1227
   70SLPC   H8R 6023   0.707   2.917   9.703  0.5337  2.4655  1.3512
   70SLPC   H8S 6024   0.595   2.969   9.833  0.6336  0.7206 -0.2302
   70SLPC   C29 6025   0.505   2.832   9.691  0.5344 -0.1617 -0.0428
   70SLPC   H9R 6026   0.413   2.803   9.743 -0.3097  0.3078 -1.2186
   70SLPC  C210 6027   0.519   2.787   9.566  0.5376 -0.5027 -0.4244
   70SLPC  H10R 6028   0.434   2.742   9.512 -1.0595  2.9512 -1.0680
   70SLPC  C211 6029   0.645   2.796   9.476  0.5949 -0.4394  0.6272
   70SLPC  H11R 6030   0.648   2.695   9.430 -2.2038 -0.5720  0.5888
   70SLPC  H11S 6031   0.737   2.804   9.538  0.3060  2.0823  0.8190
   70SLPC  C212 6032   0.639   2.902   9.368  0.9346 -0.1792  0.7172
   70SLPC  H12R 6033   0.538   2.942   9.349  0.0680 -3.2762 -2.2311
   70SLPC  C213 6034   0.745   2.956   9.299  0.0463 -0.1380 -0.1449
   70SLPC  H13R 6035   0.731   3.022   9.212  3.3489  0.1886 -0.5649
   70SLPC  C214 6036   0.889   2.917   9.322  0.1356  0.0026  0.2448
   70SLPC  H14R 6037   0.942   2.900   9.226 -1.5139 -0.5968 -0.5986
   70SLPC  H14S 6038   0.891   2.823   9.381 -2.3275 -0.5807 -0.4738
   70SLPC  C215 6039   0.959   3.023   9.401  1.1145  0.1644  0.1028
   70SLPC  H15R 6040   0.961   3.120   9.346 -1.9703  2.2633  3.2814
   70SLPC  H15S 6041   1.061   2.981   9.417  0.0683 -2.3081  0.7511
   70SLPC  C216 6042   0.903   3.043   9.539  0.0279 -0.5557 -0.1896
   70SLPC  H16R 6043   0.916   2.957   9.608  0.4308 -1.0729 -0.8803
   70SLPC  H16S 6044   0.797   3.075   9.535 -0.7921 -3.0238 -3.8044
   70SLPC  C217 6045   0.973   3.160   9.613  0.9141 -0.3420 -0.2804
   70SLPC  H17R 6046   0.932   3.248   9.559 -0.0754  0.0096  0.9891
   70SLPC  H17S 6047   1.083   3.160   9.592  0.5244 -3.5013 -3.1275
   70SLPC  C218 6048   0.934   3.171   9.761  0.6117 -0.7472  0.5240
   70SLPC  H18R 6049   0.985   3.089   9.815 -0.6351 -0.8586  1.5713
   70SLPC  H18S 6050   0.827   3.145   9.775 -0.3923  1.9272 -1.2550
   70SLPC  H18T 6051   0.965   3.270   9.802  1.2059  0.3123 -2.2317
   70SLPC   C33 6052   1.086   2.310   9.978 -0.0060 -0.3267  0.4793
   70SLPC   H3X 6053   1.054   2.221   9.919  3.3290 -0.8098 -0.8350
   70SLPC   H3Y 6054   1.159   2.362   9.913 -0.9070 -0.9618 -1.1185
   70SLPC   C34 6055   0.975   2.412  10.000  0.0808 -0.2222 -0.3121
   70SLPC   H4X 6056   0.994   2.519  10.025 -2.2689  0.0231  0.7048
   70SLPC   H4Y 6057   0.909   2.377  10.082 -0.2775 -2.4517 -1.4795
   70SLPC   C35 6058   0.881   2.426   9.875  0.1089  0.7767  0.8576
   70SLPC   H5X 6059   0.802   2.502   9.895 -1.9794 -0.5071 -1.8339
   70SLPC   H5Y 6060   0.844   2.324   9.852  1.0548  0.4588  0.7285
   70SLPC   C36 6061   0.962   2.469   9.754 -0.2624 -0.0641  0.2467
   70SLPC   H6X 6062   1.049   2.404   9.729  0.7854  0.9028  1.2581
   70SLPC   H6Y 6063   1.010   2.566   9.780 -0.5368  0.0331  0.3898
   70SLPC   C37 6064   0.882   2.485   9.627  0.0015  0.5677  0.5533
   70SLPC   H7X 6065   0.808   2.568   9.630  0.5442  1.0324  1.3471
   70SLPC   H7Y 6066   0.829   2.388   9.621 -0.4388  0.8792 -1.4574
   70SLPC   C38 6067   0.965   2.490   9.499 -0.1167 -0.2666 -0.1894
   70SLPC   H8X 6068   1.041   2.409   9.492 -0.7826 -0.9813  0.6063
   70SLPC   H8Y 6069   1.014   2.588   9.480  0.9224 -1.1398 -2.3996
   70SLPC   C39 6070   0.879   2.471   9.383 -0.8712  0.8187  0.0003
   70SLPC   H9X 6071   0.787   2.533   9.375 -1.6204 -0.4080 -1.6451
   70SLPC   H9Y 6072   0.836   2.369   9.399 -0.5215  0.2155 -2.4566
   70SLPC  C310 6073   0.953   2.475   9.247  0.4134 -0.2430 -0.6671
   70SLPC  H10X 6074   0.976   2.374   9.207  3.1058 -0.2830  0.7608
   70SLPC  H10Y 6075   1.056   2.515   9.250  0.1785  0.6281 -2.4170
   70SLPC  C311 6076   0.885   2.545   9.131 -0.1072  0.3166 -0.1321
   70SLPC  H11X 6077   0.950   2.554   9.042  1.5285  0.3554  1.0069
   70SLPC  H11Y 6078   0.858   2.649   9.159  1.9232  0.7454  0.3990
   70SLPC  C312 6079   0.751   2.479   9.085 -0.4462 -0.8709 -0.0967
   70SLPC  H12X 6080   0.672   2.552   9.056 -0.7345  0.0199  2.6325
   70SLPC  H12Y 6081   0.715   2.411   9.165 -1.7926  0.6504  0.6412
   70SLPC  C313 6082   0.773   2.386   8.970  0.0505 -0.4611  0.1709
   70SLPC  H13X 6083   0.859   2.318   8.988  1.3828  1.0598 -0.3063
   70SLPC  H13Y 6084   0.804   2.445   8.882 -3.0340  0.9555 -0.0725
   70SLPC  C314 6085   0.649   2.302   8.924  0.5706 -0.0994  0.4319
   70SLPC  H14X 6086   0.554   2.361   8.930 -0.1234 -1.0970 -0.3633
   70SLPC  H14Y 6087   0.625   2.207   8.976 -0.7145 -0.3918 -0.6287
   70SLPC  C315 6088   0.662   2.271   8.773 -0.6958  0.1799 -0.2535
   70SLPC  H15X 6089   0.742   2.194   8.771  0.2913  1.2052 -1.4830
   70SLPC  H15Y 6090   0.695   2.369   8.734 -2.0341  2.2874  3.4039
   70SLPC  C316 6091   0.530   2.225   8.707  0.7532 -0.5419 -0.1931
   70SLPC  H16X 6092   0.549   2.232   8.597 -2.9926  2.2765 -0.8986
   70SLPC  H16Y 6093   0.447   2.297   8.722  1.6407  0.1903  1.4643
   70SLPC  C317 6094   0.466   2.087   8.751 -0.0920 -0.0286  0.1563
   70SLPC  H17X 6095   0.405   2.058   8.663  0.6322  0.4552 -0.5222
   70SLPC  H17Y 6096   0.398   2.102   8.837 -0.4100 -1.6879  0.2135
   70SLPC  C318 6097   0.571   1.979   8.800  0.6561 -0.1809 -0.1000
   70SLPC  H18X 6098   0.645   1.954   8.722  0.0003 -2.4128 -0.0791
   70SLPC  H18Y 6099   0.516   1.885   8.822 -2.2881  1.3057 -0.5204
   70SLPC  H18Z 6100   0.620   2.020   8.891  0.8416  1.9839 -1.1083
   71SLPC     N 6101   0.659   1.981  10.975  0.0211 -0.2244  0.0540
   71SLPC   C13 6102   0.695   1.847  11.025 -0.0548 -0.2641  0.5682
   71SLPC  H13A 6103   0.615   1.777  11.006 -0.7209 -0.0061  2.2653
   71SLPC  H13B 6104   0.777   1.818  10.961  0.7928  1.9111  0.5809
   71SLPC  H13C 6105   0.731   1.851  11.127  0.4973 -0.7637  0.3973
   71SLPC   C14 6106   0.765   2.072  11.020 -0.0019 -0.7898  0.1285
   71SLPC  H14A 6107   0.857   2.061  10.965 -0.8380 -3.8686 -0.8395
   71SLPC  H14B 6108   0.734   2.176  11.022  1.4521 -0.3228  2.6082
   71SLPC  H14C 6109   0.783   2.058  11.126  0.6341  1.7366  0.4292
   71SLPC   C15 6110   0.525   2.014  11.044  0.3875  0.3221  0.0083
   71SLPC  H15A 6111   0.492   2.113  11.018  2.2871  0.8906 -0.3719
   71SLPC  H15B 6112   0.449   1.942  11.014  0.9702 -0.4234  0.2854
   71SLPC  H15C 6113   0.536   2.021  11.151 -1.2741  1.5162  0.1435
   71SLPC   C12 6114   0.659   1.978  10.822  0.5180  0.4718 -0.4951
   71SLPC  H12A 6115   0.759   1.952  10.790  0.4918  0.0892 -0.2673
   71SLPC  H12B 6116   0.648   2.079  10.784  0.7106  0.4249 -0.6796
   71SLPC   C11 6117   0.559   1.901  10.739  0.5685 -0.0970 -0.3440
   71SLPC  H11A 6118   0.567   1.794  10.765  0.8527  0.2254  0.9577
   71SLPC  H11B 6119   0.578   1.905  10.629 -0.9300 -0.0536 -0.6218
   71SLPC     P 6120   0.374   2.080  10.692 -0.1641 -0.4208 -0.0028
   71SLPC   O13 6121   0.262   2.137  10.777  0.2945  0.4145  0.2079
   71SLPC   O14 6122   0.490   2.166  10.674 -0.9490  0.1162  0.0620
   71SLPC   O12 6123   0.421   1.946  10.762 -0.6236  0.3671  0.2245
   71SLPC   O11 6124   0.312   2.038  10.554 -0.1865  0.3676  0.4728
   71SLPC    C1 6125   0.271   1.907  10.515 -0.1137  0.7203  0.3140
   71SLPC    HA 6126   0.346   1.835  10.554 -1.2723 -0.6968  0.0080
   71SLPC    HB 6127   0.177   1.875  10.564 -0.3006 -1.7327 -1.4339
   71SLPC    C2 6128   0.242   1.907  10.365 -0.6513 -0.3412 -0.3028
   71SLPC    HS 6129   0.341   1.917  10.315  0.1057  1.6772  1.4665
   71SLPC   O21 6130   0.157   2.017  10.342 -0.7936 -0.7442 -0.0606
   71SLPC   C21 6131   0.172   2.081  10.233  0.6585  0.3767  0.3790
   71SLPC   O22 6132   0.259   2.058  10.143 -0.1362 -0.5837 -0.3268
   71SLPC   C22 6133   0.070   2.195  10.241  0.9615 -0.3706  0.4597
   71SLPC   H2R 6134  -0.017   2.138  10.281  0.4121 -0.6691 -1.0806
   71SLPC   H2S 6135   0.097   2.266  10.322  0.4990  1.7730 -1.1490
   71SLPC    C3 6136   0.180   1.770  10.320 -0.0603 -0.3955  0.2463
   71SLPC    HX 6137   0.104   1.754  10.400 -0.1580 -0.4289  0.1475
   71SLPC    HY 6138   0.262   1.697  10.336  0.6866  0.6498  1.2609
   71SLPC   O31 6139   0.139   1.779  10.179  0.5803  0.0124 -0.0615
   71SLPC   C31 6140   0.240   1.772  10.093 -0.0114  0.3728 -0.2831
   71SLPC   O32 6141   0.357   1.748  10.120  0.0095 -0.1485 -0.5441
   71SLPC   C32 6142   0.202   1.794   9.948  0.2611  0.0746 -0.0240
   71SLPC   H2X 6143   0.145   1.889   9.943  0.7269  0.4318  1.2051
   71SLPC   H2Y 6144   0.138   1.708   9.916  0.9906 -0.6280  0.3560
   71SLPC   C23 6145   0.024   2.263  10.122  0.3681  0.1018 -0.1220
   71SLPC   H3R 6146   0.105   2.322  10.074 -1.0700  2.2880  0.0126
   71SLPC   H3S 6147  -0.059   2.333  10.145 -0.1308 -0.5748  0.1836
   71SLPC   C24 6148  -0.028   2.165  10.018 -0.3814 -0.1817  0.0078
   71SLPC   H4R 6149  -0.119   2.112  10.057 -1.7158  3.5565  2.5095
   71SLPC   H4S 6150   0.048   2.089   9.991 -0.5299  0.8394 -3.8476
   71SLPC   C25 6151  -0.073   2.231   9.883  0.5088 -0.1232 -0.7459
   71SLPC   H5R 6152   0.018   2.268   9.830 -0.3596  0.1438 -2.1131
   71SLPC   H5S 6153  -0.120   2.328   9.909 -3.2466 -1.8492 -0.3885
   71SLPC   C26 6154  -0.136   2.133   9.782  0.5865 -0.9974 -0.7171
   71SLPC   H6R 6155  -0.200   2.066   9.843 -0.0424 -0.3788 -0.6778
   71SLPC   H6S 6156  -0.050   2.082   9.735  1.4015 -2.0572  1.7428
   71SLPC   C27 6157  -0.217   2.203   9.673  0.1579  0.0925  0.4400
   71SLPC   H7R 6158  -0.161   2.287   9.627  0.8762 -0.9328 -0.6036
   71SLPC   H7S 6159  -0.309   2.251   9.714  0.6886  0.3713  1.3538
   71SLPC   C28 6160  -0.265   2.105   9.567 -0.6033  0.1771  0.8416
   71SLPC   H8R 6161  -0.343   2.038   9.608 -1.4402 -0.6890 -1.9312
   71SLPC   H8S 6162  -0.173   2.051   9.534  1.2820  2.2237  2.4570
   71SLPC   C29 6163  -0.318   2.170   9.444 -0.2642 -0.3434  0.2267
   71SLPC   H9R 6164  -0.252   2.244   9.396 -1.3890  0.7330  0.2992
   71SLPC  C210 6165  -0.440   2.150   9.385 -0.0290  0.4571 -0.0508
   71SLPC  H10R 6166  -0.470   2.205   9.294 -1.9009 -1.2571 -0.5356
   71SLPC  C211 6167  -0.547   2.062   9.421  0.1327  0.5664 -0.1881
   71SLPC  H11R 6168  -0.630   2.109   9.477 -1.8896 -0.5924 -2.0575
   71SLPC  H11S 6169  -0.518   1.984   9.495  1.2468 -0.3884 -1.5610
   71SLPC  C212 6170  -0.618   1.983   9.308  0.3111  0.3177 -0.5297
   71SLPC  H12R 6171  -0.564   1.897   9.265 -0.2538  0.3199 -1.2634
   71SLPC  C213 6172  -0.739   2.005   9.253  0.6159  0.0096  0.1713
   71SLPC  H13R 6173  -0.779   1.923   9.191  0.1022 -2.6157  3.6666
   71SLPC  C214 6174  -0.837   2.118   9.279  0.4278 -0.5843  0.2269
   71SLPC  H14R 6175  -0.779   2.204   9.319  1.4084 -0.7965 -0.7053
   71SLPC  H14S 6176  -0.915   2.092   9.353 -1.7232  0.0217 -1.7087
   71SLPC  C215 6177  -0.901   2.158   9.144  0.7553  0.3496  0.1115
   71SLPC  H15R 6178  -1.008   2.129   9.151  0.5690  1.1236  0.6154
   71SLPC  H15S 6179  -0.849   2.105   9.061 -0.3233 -1.2305  0.4127
   71SLPC  C216 6180  -0.895   2.312   9.124  0.3736 -0.5183  0.1679
   71SLPC  H16R 6181  -0.788   2.343   9.123  0.7596 -1.7694 -0.5163
   71SLPC  H16S 6182  -0.936   2.359   9.215  2.2548 -1.6966  1.7029
   71SLPC  C217 6183  -0.960   2.370   9.000 -0.4177 -0.1956  0.5565
   71SLPC  H17R 6184  -1.071   2.358   9.005 -1.1531  2.5498 -3.7021
   71SLPC  H17S 6185  -0.919   2.319   8.910 -0.7483 -1.5159  1.1347
   71SLPC  C218 6186  -0.948   2.524   8.993  0.2532 -0.5674 -0.3734
   71SLPC  H18R 6187  -1.002   2.574   8.909  0.7838 -0.0172 -0.3867
   71SLPC  H18S 6188  -0.842   2.554   8.984 -0.2984  1.3247 -1.0232
   71SLPC  H18T 6189  -0.979   2.566   9.091  3.0007  0.5001  0.1132
   71SLPC   C33 6190   0.326   1.799   9.849 -0.4647 -0.8003 -0.4770
   71SLPC   H3X 6191   0.391   1.712   9.874 -0.4958 -0.0345  2.6470
   71SLPC   H3Y 6192   0.391   1.888   9.866  0.2448 -0.6887 -3.3084
   71SLPC   C34 6193   0.277   1.809   9.705  0.1688 -0.3603 -0.3320
   71SLPC   H4X 6194   0.207   1.730   9.672 -1.5080  1.4109 -1.2259
   71SLPC   H4Y 6195   0.371   1.805   9.646  1.9180 -1.1687  2.3331
   71SLPC   C35 6196   0.210   1.946   9.678 -0.3899  0.4389 -0.1762
   71SLPC   H5X 6197   0.273   2.024   9.726 -1.7449  2.1543 -1.0326
   71SLPC   H5Y 6198   0.111   1.953   9.728  0.0727  1.5044  0.6174
   71SLPC   C36 6199   0.186   1.991   9.534 -0.3830  0.0666 -0.0520
   71SLPC   H6X 6200   0.278   1.971   9.476  0.4919  1.7428  0.7047
   71SLPC   H6Y 6201   0.166   2.100   9.532  1.7677  0.4891 -0.0609
   71SLPC   C37 6202   0.072   1.911   9.475 -0.0509 -0.0584  0.0870
   71SLPC   H7X 6203  -0.018   1.908   9.540 -0.3336  0.9604 -0.2283
   71SLPC   H7Y 6204   0.097   1.804   9.458 -0.5649 -0.1991  0.2097
   71SLPC   C38 6205   0.019   1.972   9.343  0.2070 -0.0772 -0.4497
   71SLPC   H8X 6206   0.105   2.001   9.279  0.1393  0.7296 -0.1917
   71SLPC   H8Y 6207  -0.026   2.069   9.375  0.9209  1.0353 -2.5786
   71SLPC   C39 6208  -0.079   1.887   9.269  0.0142 -0.5088  1.0080
   71SLPC   H9X 6209  -0.158   1.850   9.338 -0.6135 -1.2722 -0.0855
   71SLPC   H9Y 6210  -0.022   1.803   9.223  0.4056  0.0754  0.4024
   71SLPC  C310 6211  -0.153   1.965   9.163  0.7590 -0.6001 -0.1243
   71SLPC  H10X 6212  -0.085   1.968   9.075  0.1575 -0.6750 -0.6003
   71SLPC  H10Y 6213  -0.170   2.071   9.192 -0.3353 -0.0427 -2.5533
   71SLPC  C311 6214  -0.283   1.903   9.133  0.2770 -0.1150  0.2380
   71SLPC  H11X 6215  -0.336   1.914   9.230 -0.3842  2.2049 -0.3102
   71SLPC  H11Y 6216  -0.270   1.794   9.114  0.1642 -0.0453 -0.2664
   71SLPC  C312 6217  -0.360   1.961   9.011  0.7895  0.5309  0.2362
   71SLPC  H12X 6218  -0.463   1.924   8.991  1.0861 -0.2769  0.1530
   71SLPC  H12Y 6219  -0.302   1.929   8.921  1.7554 -2.0471  1.6651
   71SLPC  C313 6220  -0.381   2.123   9.011 -0.1942 -0.0668 -0.5733
   71SLPC  H13X 6221  -0.300   2.192   9.042 -0.1348 -1.1854  2.0113
   71SLPC  H13Y 6222  -0.444   2.130   9.102  0.6696  2.6850 -0.1073
   71SLPC  C314 6223  -0.455   2.181   8.897  0.2487 -1.0000  0.5550
   71SLPC  H14X 6224  -0.550   2.123   8.909 -0.5398  0.0817 -0.2753
   71SLPC  H14Y 6225  -0.403   2.148   8.805 -0.5855 -0.0416 -0.2865
   71SLPC  C315 6226  -0.477   2.338   8.888  0.1249  0.7107 -0.2106
   71SLPC  H15X 6227  -0.376   2.378   8.914  0.4477  1.0143 -1.8195
   71SLPC  H15Y 6228  -0.542   2.365   8.973  1.1353 -0.1729  0.8705
   71SLPC  C316 6229  -0.536   2.382   8.749 -0.2887  0.4707  0.4124
   71SLPC  H16X 6230  -0.642   2.349   8.739 -0.6544  2.0727 -1.9899
   71SLPC  H16Y 6231  -0.482   2.346   8.659 -2.4733 -0.8236 -0.4595
   71SLPC  C317 6232  -0.519   2.539   8.745 -0.0643 -0.3056  0.0975
   71SLPC  H17X 6233  -0.411   2.560   8.763 -0.1038  0.2384 -0.2861
   71SLPC  H17Y 6234  -0.577   2.578   8.832  0.6348  0.0467  0.4188
   71SLPC  C318 6235  -0.573   2.601   8.614 -0.4331 -0.6436 -0.3901
   71SLPC  H18X 6236  -0.559   2.710   8.595  0.4449 -0.8668 -1.0897
   71SLPC  H18Y 6237  -0.681   2.579   8.602 -0.5900 -0.0564 -0.1172
   71SLPC  H18Z 6238  -0.514   2.554   8.533  1.9292 -0.3103  1.0363
   72SLPC     N 6239   2.671   1.413  10.512 -0.0077  0.3120 -0.1378
   72SLPC   C13 6240   2.546   1.501  10.506 -0.1635  0.2228 -0.1340
   72SLPC  H13A 6241   2.490   1.491  10.415  1.4572  1.5543 -1.3368
   72SLPC  H13B 6242   2.490   1.493  10.598  1.2835  0.0303  0.7732
   72SLPC  H13C 6243   2.586   1.601  10.510 -1.4942  0.8216 -1.3435
   72SLPC   C14 6244   2.682   1.337  10.380  0.5139 -0.8087  0.9011
   72SLPC  H14A 6245   2.604   1.263  10.372 -0.7367  0.5751 -0.2454
   72SLPC  H14B 6246   2.676   1.411  10.303  1.9210 -1.6660 -0.0911
   72SLPC  H14C 6247   2.778   1.287  10.381  1.6887  1.2787 -0.5492
   72SLPC   C15 6248   2.649   1.302  10.620  0.0143  0.1042  0.3739
   72SLPC  H15A 6249   2.735   1.236  10.625  0.9836  1.4162  1.8625
   72SLPC  H15B 6250   2.656   1.345  10.719  1.2858 -0.3693  0.5115
   72SLPC  H15C 6251   2.565   1.237  10.597  2.5883 -3.4277  0.0979
   72SLPC   C12 6252   2.804   1.480  10.543 -0.7021  0.3716  0.4606
   72SLPC  H12A 6253   2.817   1.549  10.461  2.5585  1.2032  1.5473
   72SLPC  H12B 6254   2.886   1.411  10.529 -1.4114  0.0735 -3.3165
   72SLPC   C11 6255   2.818   1.553  10.674 -0.1261 -0.5689  0.2900
   72SLPC  H11A 6256   2.921   1.590  10.691  0.8211 -1.5286 -2.6775
   72SLPC  H11B 6257   2.794   1.483  10.757  0.1390  0.7329  1.5029
   72SLPC     P 6258   2.742   1.791  10.594 -0.2553 -0.0155  0.0107
   72SLPC   O13 6259   2.634   1.792  10.490  0.2997 -0.1090  0.6791
   72SLPC   O14 6260   2.757   1.914  10.672  0.8463 -0.5536  0.1974
   72SLPC   O12 6261   2.719   1.662  10.687 -0.1615  0.6041 -0.3842
   72SLPC   O11 6262   2.877   1.766  10.513 -0.0203  0.0340 -0.1064
   72SLPC    C1 6263   3.004   1.821  10.553  0.0518  0.0871 -0.1959
   72SLPC    HA 6264   2.998   1.932  10.552  2.4268  0.2775 -0.9793
   72SLPC    HB 6265   3.036   1.778  10.650 -1.5445 -1.3969 -0.2895
   72SLPC    C2 6266   3.118   1.777  10.450 -0.5305 -0.1930  0.3938
   72SLPC    HS 6267   3.209   1.832  10.482 -1.0069  1.5512 -1.1086
   72SLPC   O21 6268   3.089   1.787  10.311 -0.4837 -0.1874 -0.3337
   72SLPC   C21 6269   3.056   1.900  10.271 -0.0508  0.4250  0.4784
   72SLPC   O22 6270   3.061   2.004  10.335  0.0893 -0.1988 -0.2735
   72SLPC   C22 6271   3.009   1.888  10.124 -0.4771 -0.5940 -0.2283
   72SLPC   H2R 6272   3.074   1.811  10.075  0.2722 -3.3660  4.5238
   72SLPC   H2S 6273   2.905   1.851  10.116 -0.1389 -1.2391 -2.2161
   72SLPC    C3 6274   3.145   1.632  10.477 -0.0372 -0.4409  0.0238
   72SLPC    HX 6275   3.043   1.588  10.480 -0.7268  1.0934 -0.1610
   72SLPC    HY 6276   3.200   1.621  10.573  0.4373  2.8648  0.2444
   72SLPC   O31 6277   3.216   1.564  10.372 -0.0575 -0.7979 -0.1748
   72SLPC   C31 6278   3.346   1.601  10.352  0.2951  0.3985  0.6602
   72SLPC   O32 6279   3.411   1.675  10.420  0.5090 -0.0081  0.4872
   72SLPC   C32 6280   3.385   1.533  10.221  0.0531 -0.0222  0.5488
   72SLPC   H2X 6281   3.301   1.474  10.179  1.2203 -0.6954 -0.9456
   72SLPC   H2Y 6282   3.469   1.466  10.249 -0.1100  0.4053  2.1593
   72SLPC   C23 6283   3.022   2.024  10.050  0.0836  0.4288 -0.1202
   72SLPC   H3R 6284   3.123   2.067  10.069  0.1107  0.3568 -0.1027
   72SLPC   H3S 6285   2.945   2.085  10.101  0.5363 -1.0449  2.5063
   72SLPC   C24 6286   2.978   2.009   9.900 -0.0846 -0.2558  0.0284
   72SLPC   H4R 6287   2.876   1.967   9.891 -0.7209  1.5523 -2.3706
   72SLPC   H4S 6288   3.053   1.936   9.862  2.8771  2.5886 -0.0865
   72SLPC   C25 6289   2.990   2.137   9.811  0.0023 -0.4999 -0.6682
   72SLPC   H5R 6290   3.097   2.165   9.814  0.0838 -0.8602 -0.1255
   72SLPC   H5S 6291   2.932   2.227   9.841  0.1725 -0.5994 -0.0255
   72SLPC   C26 6292   2.943   2.112   9.668  0.0013  0.4900 -0.0640
   72SLPC   H6R 6293   2.834   2.093   9.669  0.0103  0.1405  2.5827
   72SLPC   H6S 6294   2.990   2.019   9.630  1.2670  1.4518 -0.9875
   72SLPC   C27 6295   2.984   2.214   9.563 -0.3943 -0.0149 -0.0793
   72SLPC   H7R 6296   3.087   2.248   9.585 -0.8019  0.9543  0.3778
   72SLPC   H7S 6297   2.931   2.312   9.561 -0.8840 -0.2757 -1.7513
   72SLPC   C28 6298   2.974   2.159   9.422  0.1563 -0.4662  0.3635
   72SLPC   H8R 6299   2.997   2.050   9.414 -2.7381 -1.1568  0.1565
   72SLPC   H8S 6300   3.055   2.219   9.375  0.7571 -0.5171  1.3087
   72SLPC   C29 6301   2.848   2.181   9.347  0.0015  0.1088  0.1816
   72SLPC   H9R 6302   2.773   2.223   9.416  1.4626  0.0374  1.8938
   72SLPC  C210 6303   2.823   2.167   9.215  0.2442 -0.1158 -0.4386
   72SLPC  H10R 6304   2.726   2.207   9.181  0.2125  0.8740  0.7333
   72SLPC  C211 6305   2.923   2.122   9.109 -0.3553 -0.8201 -0.3502
   72SLPC  H11R 6306   3.013   2.069   9.147  1.2884  0.7337 -1.8648
   72SLPC  H11S 6307   2.960   2.210   9.051 -0.5512  0.7573  1.7797
   72SLPC  C212 6308   2.870   2.033   8.998  0.1375 -0.0593 -0.4095
   72SLPC  H12R 6309   2.904   1.929   8.999  1.0752  0.2400 -0.6044
   72SLPC  C213 6310   2.794   2.068   8.894 -0.4903  0.1459 -0.2153
   72SLPC  H13R 6311   2.772   1.993   8.817  2.7105 -0.5212 -0.5955
   72SLPC  C214 6312   2.735   2.204   8.867  0.4743 -0.0040 -0.1571
   72SLPC  H14R 6313   2.783   2.280   8.932 -0.7849  0.5678  0.1469
   72SLPC  H14S 6314   2.625   2.190   8.876  0.8080 -1.5544  2.7736
   72SLPC  C215 6315   2.774   2.234   8.719 -0.1188 -0.4982  0.4029
   72SLPC  H15R 6316   2.748   2.341   8.703  0.0977 -0.3869  0.7742
   72SLPC  H15S 6317   2.712   2.164   8.659  0.3681 -0.4443 -0.1709
   72SLPC  C216 6318   2.924   2.210   8.682 -0.8410  0.5946  0.2910
   72SLPC  H16R 6319   2.937   2.100   8.674  0.0418  0.7554 -0.7299
   72SLPC  H16S 6320   3.006   2.235   8.751  1.7961 -2.9272 -1.2487
   72SLPC  C217 6321   2.956   2.263   8.539  0.2377 -0.3394  0.4511
   72SLPC  H17R 6322   2.949   2.372   8.522  1.6156 -0.3865 -0.6728
   72SLPC  H17S 6323   2.885   2.212   8.471 -0.2104  1.6628 -0.6561
   72SLPC  C218 6324   3.102   2.220   8.508  0.0023 -0.4660  0.0586
   72SLPC  H18R 6325   3.123   2.254   8.404  2.4154  0.1403  0.6881
   72SLPC  H18S 6326   3.103   2.109   8.503  1.4476 -0.4170 -1.6362
   72SLPC  H18T 6327   3.169   2.261   8.585  2.1403  0.4239 -2.1433
   72SLPC   C33 6328   3.424   1.643  10.121  0.5410  0.1395  0.2371
   72SLPC   H3X 6329   3.481   1.732  10.157 -1.2228  1.0301  0.9510
   72SLPC   H3Y 6330   3.326   1.683  10.086  0.2735 -2.0493 -1.7591
   72SLPC   C34 6331   3.492   1.586   9.999  0.2282 -0.1291 -0.6569
   72SLPC   H4X 6332   3.438   1.494   9.970  3.4673 -2.3997 -0.1127
   72SLPC   H4Y 6333   3.598   1.555  10.019 -0.4013 -0.9887  1.7274
   72SLPC   C35 6334   3.477   1.675   9.875 -0.1725 -0.0423  0.0179
   72SLPC   H5X 6335   3.528   1.773   9.888  0.4285  0.2654 -3.6043
   72SLPC   H5Y 6336   3.369   1.699   9.866  0.0675  0.7864 -0.7700
   72SLPC   C36 6337   3.527   1.593   9.754 -0.5407 -0.1982  0.3888
   72SLPC   H6X 6338   3.474   1.496   9.751  1.2822 -1.2407  0.7056
   72SLPC   H6Y 6339   3.634   1.577   9.779 -0.7651 -0.3733  1.2584
   72SLPC   C37 6340   3.506   1.670   9.616 -0.2226  0.6295 -0.4092
   72SLPC   H7X 6341   3.562   1.766   9.624 -1.9920  1.7734 -0.9923
   72SLPC   H7Y 6342   3.397   1.686   9.601 -0.5189  0.6439  1.4955
   72SLPC   C38 6343   3.571   1.574   9.509 -0.2087 -0.4998 -0.1411
   72SLPC   H8X 6344   3.495   1.494   9.502 -1.5922  0.7125  0.4913
   72SLPC   H8Y 6345   3.671   1.552   9.551 -0.1046  0.3600  0.0787
   72SLPC   C39 6346   3.600   1.641   9.372  0.2844  0.9709 -0.6653
   72SLPC   H9X 6347   3.690   1.706   9.382  0.2315  1.2057 -1.6393
   72SLPC   H9Y 6348   3.510   1.700   9.348 -1.3119 -0.4112  1.4822
   72SLPC  C310 6349   3.632   1.517   9.272 -0.0622 -0.0460 -0.1988
   72SLPC  H10X 6350   3.533   1.469   9.257  0.5740 -1.8510  1.0900
   72SLPC  H10Y 6351   3.700   1.452   9.332  1.4827 -0.3326 -2.1764
   72SLPC  C311 6352   3.695   1.561   9.139 -0.4400 -0.2713  0.3749
   72SLPC  H11X 6353   3.741   1.473   9.089  4.7183  1.8739  0.6860
   72SLPC  H11Y 6354   3.789   1.616   9.163 -0.8030 -0.1470  1.5655
   72SLPC  C312 6355   3.614   1.654   9.050 -0.2727  0.0118  0.1103
   72SLPC  H12X 6356   3.682   1.715   8.987  0.1428 -1.2862 -0.7309
   72SLPC  H12Y 6357   3.549   1.722   9.109 -0.5706 -0.4558  0.3268
   72SLPC  C313 6358   3.512   1.573   8.957  0.5747 -0.6839 -0.1130
   72SLPC  H13X 6359   3.440   1.526   9.027  2.0940 -1.8787  0.7200
   72SLPC  H13Y 6360   3.571   1.493   8.908  1.9418 -0.4759  1.1203
   72SLPC  C314 6361   3.458   1.674   8.852  0.5244 -0.3931 -0.9082
   72SLPC  H14X 6362   3.414   1.762   8.903  3.4162  0.5455  0.1420
   72SLPC  H14Y 6363   3.363   1.632   8.811  0.3693 -0.5265 -0.4280
   72SLPC  C315 6364   3.559   1.711   8.742  0.1493  0.1585  0.4623
   72SLPC  H15X 6365   3.621   1.627   8.704 -0.7389  0.1455 -1.0605
   72SLPC  H15Y 6366   3.633   1.790   8.767 -1.2231  0.8225  2.6796
   72SLPC  C316 6367   3.494   1.771   8.614  0.5158  0.4965  0.3604
   72SLPC  H16X 6368   3.569   1.826   8.555  0.9107 -0.8018 -0.3980
   72SLPC  H16Y 6369   3.411   1.840   8.640 -1.9494 -2.2306  0.3754
   72SLPC  C317 6370   3.436   1.666   8.511 -0.2599 -0.0687 -0.2287
   72SLPC  H17X 6371   3.342   1.620   8.551 -1.0725  0.8816 -0.9876
   72SLPC  H17Y 6372   3.504   1.579   8.505 -2.1684 -1.6853  0.2518
   72SLPC  C318 6373   3.410   1.722   8.368 -0.2075  0.0684  0.0099
   72SLPC  H18X 6374   3.497   1.780   8.331 -0.8722  1.3597  0.3958
   72SLPC  H18Y 6375   3.319   1.785   8.371  0.3579  1.0744 -2.0518
   72SLPC  H18Z 6376   3.395   1.640   8.294  1.4125  0.3150 -0.6354
   73SLPC     N 6377   2.139   5.061  11.056 -0.3174 -0.1450 -0.4926
   73SLPC   C13 6378   2.142   4.961  11.172  0.0200 -0.2918  0.2932
   73SLPC  H13A 6379   2.225   4.972  11.240  0.4029  0.7666 -0.3262
   73SLPC  H13B 6380   2.045   4.964  11.220 -1.2260  0.5453 -2.0778
   73SLPC  H13C 6381   2.158   4.863  11.131  0.2502  0.8429 -2.5686
   73SLPC   C14 6382   2.261   5.053  10.975 -0.2702  0.8166  0.1233
   73SLPC  H14A 6383   2.349   5.063  11.038 -0.4353  2.0335  0.1894
   73SLPC  H14B 6384   2.263   4.955  10.930 -0.5830  0.5095  0.7699
   73SLPC  H14C 6385   2.256   5.130  10.898  0.5304  1.2259  0.4613
   73SLPC   C15 6386   2.146   5.201  11.112  0.3899 -0.0824  0.3649
   73SLPC  H15A 6387   2.153   5.279  11.038  1.3426 -1.1521 -0.7090
   73SLPC  H15B 6388   2.053   5.223  11.163  1.3638  0.5132  1.9752
   73SLPC  H15C 6389   2.227   5.208  11.183  1.5130  1.1444 -0.9875
   73SLPC   C12 6390   2.010   5.052  10.972 -0.1208 -0.2916  0.1231
   73SLPC  H12A 6391   1.928   5.069  11.040  1.7079 -0.6970  2.5480
   73SLPC  H12B 6392   1.998   4.949  10.945 -0.3232  0.1475 -1.5783
   73SLPC   C11 6393   1.998   5.135  10.847 -0.6293 -0.6109 -0.5180
   73SLPC  H11A 6394   1.936   5.084  10.770 -0.4275 -0.4847 -0.7703
   73SLPC  H11B 6395   2.099   5.134  10.799  0.3093 -4.0833  1.1638
   73SLPC     P 6396   1.805   5.303  10.871  0.2198 -0.3129 -0.3600
   73SLPC   O13 6397   1.726   5.179  10.901 -0.0639 -0.3686  0.1393
   73SLPC   O14 6398   1.778   5.420  10.957  0.7805  0.2952  0.4891
   73SLPC   O12 6399   1.957   5.269  10.872 -0.3529  0.4630 -0.5450
   73SLPC   O11 6400   1.786   5.337  10.718 -0.2272  0.0348 -0.1272
   73SLPC    C1 6401   1.852   5.453  10.664 -0.0792  0.0399 -0.1610
   73SLPC    HA 6402   1.774   5.523  10.628 -0.5885  0.0181  0.8502
   73SLPC    HB 6403   1.924   5.497  10.736  0.5427  0.1026 -0.8118
   73SLPC    C2 6404   1.915   5.421  10.526 -0.2809 -1.3741 -0.0202
   73SLPC    HS 6405   1.901   5.508  10.458 -1.9703 -0.7215  1.1045
   73SLPC   O21 6406   1.856   5.303  10.463 -0.4240 -0.2612 -0.5013
   73SLPC   C21 6407   1.733   5.312  10.428  0.1431  0.1216 -0.7553
   73SLPC   O22 6408   1.659   5.407  10.447 -0.1065  0.2273  0.3560
   73SLPC   C22 6409   1.685   5.176  10.382  0.4064  0.9533 -0.2866
   73SLPC   H2R 6410   1.760   5.098  10.407  0.3539  1.1755  0.5764
   73SLPC   H2S 6411   1.589   5.156  10.435  1.3562 -3.4177  0.1487
   73SLPC    C3 6412   2.066   5.393  10.546 -0.4837  0.3238 -0.0608
   73SLPC    HX 6413   2.076   5.297  10.603 -0.2059 -0.4923 -1.4376
   73SLPC    HY 6414   2.108   5.477  10.605  0.9590 -2.1347  2.6533
   73SLPC   O31 6415   2.138   5.396  10.424 -0.3816  0.0087  0.7761
   73SLPC   C31 6416   2.184   5.275  10.374  0.3233  0.0315 -0.5005
   73SLPC   O32 6417   2.169   5.168  10.436 -0.0376  0.2485  0.2568
   73SLPC   C32 6418   2.258   5.296  10.238 -0.0295  0.6627  0.1665
   73SLPC   H2X 6419   2.365   5.274  10.262 -0.2840 -0.7200  0.1052
   73SLPC   H2Y 6420   2.270   5.404  10.217  5.1342  0.1357 -1.0060
   73SLPC   C23 6421   1.650   5.161  10.230 -0.9153 -0.3235  0.5296
   73SLPC   H3R 6422   1.584   5.240  10.188 -0.4254  0.5024  1.2607
   73SLPC   H3S 6423   1.591   5.068  10.232 -1.1989 -0.1441  2.4285
   73SLPC   C24 6424   1.775   5.145  10.153 -0.4224  0.4518 -0.1333
   73SLPC   H4R 6425   1.827   5.057  10.198 -0.1466  0.2222 -0.8924
   73SLPC   H4S 6426   1.838   5.235  10.170  2.2666 -1.0499 -1.5207
   73SLPC   C25 6427   1.745   5.128   9.996 -0.2166 -0.6839 -1.1030
   73SLPC   H5R 6428   1.663   5.200   9.978 -1.2981 -1.3871  0.6641
   73SLPC   H5S 6429   1.708   5.026   9.975 -3.1476 -0.0273  0.2901
   73SLPC   C26 6430   1.867   5.166   9.904 -0.1760 -0.6840  0.1970
   73SLPC   H6R 6431   1.949   5.119   9.963 -0.1075 -1.4532 -0.4943
   73SLPC   H6S 6432   1.894   5.273   9.900  1.9376 -1.2142 -1.8236
   73SLPC   C27 6433   1.846   5.107   9.764  0.1336 -0.6982  0.1563
   73SLPC   H7R 6434   1.781   5.017   9.773  0.3936 -0.7702  1.4954
   73SLPC   H7S 6435   1.943   5.076   9.719  0.2956  1.9355 -1.5383
   73SLPC   C28 6436   1.747   5.192   9.679 -0.3386 -0.0646 -0.5786
   73SLPC   H8R 6437   1.668   5.233   9.744  0.3264 -0.3562  0.4387
   73SLPC   H8S 6438   1.704   5.132   9.596 -1.2928 -0.0630 -0.0959
   73SLPC   C29 6439   1.813   5.311   9.625 -0.3378 -0.3281 -0.5954
   73SLPC   H9R 6440   1.839   5.398   9.687  0.3282 -0.4396 -0.7078
   73SLPC  C210 6441   1.847   5.318   9.494  0.0805 -0.5609 -0.4695
   73SLPC  H10R 6442   1.887   5.416   9.465 -0.7576  0.0624  0.3984
   73SLPC  C211 6443   1.826   5.214   9.389 -0.1413 -0.0903 -0.0798
   73SLPC  H11R 6444   1.717   5.210   9.364  0.0567  2.0707 -1.6728
   73SLPC  H11S 6445   1.856   5.116   9.430 -0.2636  0.1171  0.5181
   73SLPC  C212 6446   1.900   5.243   9.265 -0.2797 -0.8159 -0.0995
   73SLPC  H12R 6447   1.966   5.331   9.269  1.5197 -2.1207  0.6085
   73SLPC  C213 6448   1.888   5.166   9.159 -0.0035  0.1612  0.2331
   73SLPC  H13R 6449   1.967   5.169   9.083  1.0124 -2.2963  1.0746
   73SLPC  C214 6450   1.803   5.042   9.139  0.8310  0.7903  0.0131
   73SLPC  H14R 6451   1.741   5.037   9.047  2.8693 -2.6635 -1.3850
   73SLPC  H14S 6452   1.722   5.036   9.215  1.0669 -0.0121  0.2054
   73SLPC  C215 6453   1.893   4.916   9.132 -0.2796 -0.3604  0.2289
   73SLPC  H15R 6454   1.968   4.907   9.213 -0.8420  0.5511  0.8678
   73SLPC  H15S 6455   1.944   4.931   9.034 -0.4777 -1.5179 -0.0689
   73SLPC  C216 6456   1.822   4.779   9.129 -0.5514 -0.7444 -0.1975
   73SLPC  H16R 6457   1.899   4.700   9.142  0.7297  0.5718  0.5913
   73SLPC  H16S 6458   1.785   4.747   9.029  2.9653  1.1554 -2.3213
   73SLPC  C217 6459   1.719   4.763   9.249 -0.9131 -1.0071  0.5274
   73SLPC  H17R 6460   1.635   4.828   9.218 -0.3640 -0.8349 -0.6483
   73SLPC  H17S 6461   1.760   4.800   9.346  2.4454 -2.2544 -0.2765
   73SLPC  C218 6462   1.681   4.618   9.285 -0.4882 -0.0009  0.6585
   73SLPC  H18R 6463   1.763   4.547   9.308  0.0572  0.7528  1.0779
   73SLPC  H18S 6464   1.627   4.575   9.198 -1.7012 -0.7520  1.7487
   73SLPC  H18T 6465   1.610   4.617   9.370 -1.2839  1.6568  0.0578
   73SLPC   C33 6466   2.200   5.212  10.121  0.6018 -0.0257 -0.7839
   73SLPC   H3X 6467   2.091   5.225  10.105  0.7559  1.9025 -0.5567
   73SLPC   H3Y 6468   2.223   5.104  10.131 -0.5615 -0.2801 -0.7035
   73SLPC   C34 6469   2.272   5.260   9.999 -0.6224  0.1496 -0.1070
   73SLPC   H4X 6470   2.382   5.275  10.007 -0.7501  1.3045 -0.2113
   73SLPC   H4Y 6471   2.238   5.364   9.977  0.9660  0.9263  0.8767
   73SLPC   C35 6472   2.232   5.190   9.861  0.3915  0.1185 -0.9832
   73SLPC   H5X 6473   2.122   5.170   9.864  0.2217  1.1363  0.4206
   73SLPC   H5Y 6474   2.285   5.093   9.858  2.2051  0.8834  2.3850
   73SLPC   C36 6475   2.274   5.280   9.740 -0.3807  0.3083 -0.4140
   73SLPC   H6X 6476   2.383   5.293   9.754  0.2142 -4.9029  2.2856
   73SLPC   H6Y 6477   2.221   5.377   9.729  0.2147  0.8145  0.9881
   73SLPC   C37 6478   2.265   5.199   9.609  0.9327 -0.3911 -0.7927
   73SLPC   H7X 6479   2.159   5.172   9.593  0.4127  0.1211  1.4892
   73SLPC   H7Y 6480   2.321   5.103   9.617 -0.6577 -1.2241  1.5013
   73SLPC   C38 6481   2.321   5.268   9.487  0.1966  0.1124  0.1268
   73SLPC   H8X 6482   2.331   5.186   9.413  0.1112 -1.4869  1.8006
   73SLPC   H8Y 6483   2.419   5.308   9.522 -0.7445  2.4236  0.2453
   73SLPC   C39 6484   2.238   5.387   9.426 -0.0320  0.5181 -0.4348
   73SLPC   H9X 6485   2.266   5.479   9.480 -1.1754  0.4912  0.2343
   73SLPC   H9Y 6486   2.128   5.374   9.429 -0.1829  1.8229  1.9121
   73SLPC  C310 6487   2.279   5.417   9.287 -0.3786 -0.4377 -0.6825
   73SLPC  H10X 6488   2.380   5.464   9.285 -0.8871  0.7112 -0.2766
   73SLPC  H10Y 6489   2.210   5.494   9.245 -0.4095 -0.6824 -1.0858
   73SLPC  C311 6490   2.265   5.302   9.190  0.0722  0.2984  0.1107
   73SLPC  H11X 6491   2.185   5.230   9.219  1.3079 -1.9089 -1.6107
   73SLPC  H11Y 6492   2.358   5.241   9.198  1.3368  2.1741  0.4856
   73SLPC  C312 6493   2.266   5.337   9.041 -0.1054 -0.5125  0.3776
   73SLPC  H12X 6494   2.368   5.377   9.025 -0.0093 -1.3804 -1.4742
   73SLPC  H12Y 6495   2.194   5.421   9.035 -0.1087 -0.6091 -2.2339
   73SLPC  C313 6496   2.217   5.229   8.948  0.0757  0.4774 -0.0283
   73SLPC  H13X 6497   2.183   5.141   9.007  1.3929  2.0726  3.3717
   73SLPC  H13Y 6498   2.296   5.183   8.886  0.4483  0.9966  0.0530
   73SLPC  C314 6499   2.108   5.275   8.844 -0.0645 -0.6117 -0.7097
   73SLPC  H14X 6500   2.139   5.357   8.776  1.2107 -0.4065  0.0751
   73SLPC  H14Y 6501   2.027   5.311   8.912 -0.2468 -1.6368 -0.3664
   73SLPC  C315 6502   2.049   5.164   8.753  0.4163  0.2685 -0.2521
   73SLPC  H15X 6503   2.031   5.072   8.812  0.6892  0.8451  0.7529
   73SLPC  H15Y 6504   2.123   5.135   8.675  0.2122 -0.1524 -0.2872
   73SLPC  C316 6505   1.927   5.218   8.680  0.8218 -0.7880  0.1848
   73SLPC  H16X 6506   1.951   5.278   8.590 -0.8353 -1.0768 -0.4905
   73SLPC  H16Y 6507   1.870   5.288   8.745  2.0013  2.6605 -2.2376
   73SLPC  C317 6508   1.834   5.097   8.646  0.2864 -0.1275 -0.2904
   73SLPC  H17X 6509   1.802   5.058   8.745 -0.8084  1.3479 -0.0326
   73SLPC  H17Y 6510   1.891   5.019   8.591  1.4606 -1.4244  2.5617
   73SLPC  C318 6511   1.712   5.142   8.561 -0.8444  0.3401  0.1286
   73SLPC  H18X 6512   1.652   5.204   8.632 -1.7338 -2.4509  1.9874
   73SLPC  H18Y 6513   1.649   5.057   8.528 -1.7147 -0.5272  3.5692
   73SLPC  H18Z 6514   1.747   5.207   8.478  0.3345 -0.6119 -0.1384
   74SLPC     N 6515   3.069   0.498  10.774  0.7843 -0.9631  0.2326
   74SLPC   C13 6516   3.060   0.591  10.885  0.0675 -0.0508 -0.1982
   74SLPC  H13A 6517   3.062   0.546  10.983  1.6429  0.7131  0.1486
   74SLPC  H13B 6518   3.141   0.661  10.876  0.0047 -0.1969 -2.3159
   74SLPC  H13C 6519   2.976   0.657  10.873  2.2152  2.5912 -1.9656
   74SLPC   C14 6520   2.950   0.408  10.782 -0.0244  0.7479  0.3713
   74SLPC  H14A 6521   2.856   0.455  10.807 -1.1265 -0.2878 -1.5353
   74SLPC  H14B 6522   2.933   0.359  10.688  2.6733 -0.8471  0.6158
   74SLPC  H14C 6523   2.968   0.326  10.850 -0.7694 -0.9856 -1.4312
   74SLPC   C15 6524   3.191   0.414  10.779  0.4893 -0.0349 -0.4205
   74SLPC  H15A 6525   3.277   0.470  10.812 -0.4987  0.6403  1.1288
   74SLPC  H15B 6526   3.166   0.348  10.861  3.0266 -0.4728  0.0738
   74SLPC  H15C 6527   3.208   0.349  10.695  1.5304 -0.9629  0.4851
   74SLPC   C12 6528   3.070   0.582  10.646  0.5570 -0.6766  0.0813
   74SLPC  H12A 6529   3.068   0.509  10.567  1.6305  0.3170 -0.9106
   74SLPC  H12B 6530   3.176   0.607  10.648  0.3100  0.5138  2.5723
   74SLPC   C11 6531   2.983   0.707  10.618 -0.2694 -0.0233  0.1924
   74SLPC  H11A 6532   3.011   0.740  10.516  0.8927  2.0120  1.1106
   74SLPC  H11B 6533   3.018   0.793  10.678  1.2404 -0.7896  0.4579
   74SLPC     P 6534   2.752   0.625  10.542  0.1806 -0.0708  0.2427
   74SLPC   O13 6535   2.635   0.562  10.609  0.2115 -0.2750 -0.0931
   74SLPC   O14 6536   2.713   0.734  10.454  0.0876  0.1677  0.3053
   74SLPC   O12 6537   2.853   0.681  10.644  0.1974 -0.5186 -0.1754
   74SLPC   O11 6538   2.835   0.512  10.461 -0.6673 -0.3051 -0.4912
   74SLPC    C1 6539   2.786   0.470  10.332  0.3043  0.0568  0.3975
   74SLPC    HA 6540   2.832   0.370  10.319 -1.2576 -0.9499  2.1382
   74SLPC    HB 6541   2.676   0.456  10.338  0.1384  1.4988  1.0486
   74SLPC    C2 6542   2.833   0.560  10.213 -0.1060  0.0251 -0.5313
   74SLPC    HS 6543   2.811   0.665  10.240  1.0312 -0.1457  1.2711
   74SLPC   O21 6544   2.763   0.519  10.086  0.1635 -0.7560  0.1139
   74SLPC   C21 6545   2.739   0.625   9.999 -1.0919 -0.4136 -0.0757
   74SLPC   O22 6546   2.772   0.739  10.024 -0.6995 -0.4394  0.0939
   74SLPC   C22 6547   2.665   0.570   9.875  0.6106  0.4502 -0.2382
   74SLPC   H2R 6548   2.669   0.459   9.877 -0.1994  0.4299  1.0786
   74SLPC   H2S 6549   2.557   0.594   9.890 -0.1646 -1.9735 -1.3590
   74SLPC    C3 6550   2.990   0.548  10.201  0.0807 -0.0549 -0.5520
   74SLPC    HX 6551   3.012   0.444  10.170  0.4409 -0.2417  0.2973
   74SLPC    HY 6552   3.033   0.569  10.301 -1.0735  0.0495 -0.0564
   74SLPC   O31 6553   3.047   0.634  10.100 -0.9346  0.1218 -0.1173
   74SLPC   C31 6554   3.057   0.766  10.126  0.3719  0.3707 -0.7525
   74SLPC   O32 6555   3.016   0.812  10.234  0.3496 -0.4788 -0.1397
   74SLPC   C32 6556   3.128   0.849  10.024  0.2768 -0.0663  0.8741
   74SLPC   H2X 6557   3.121   0.788   9.931  0.0019  0.3335  0.6299
   74SLPC   H2Y 6558   3.228   0.885  10.057  0.1381  0.3604  0.8311
   74SLPC   C23 6559   2.709   0.640   9.748 -0.2698 -0.0297  0.2669
   74SLPC   H3R 6560   2.694   0.751   9.751  0.2293  0.0248  1.6579
   74SLPC   H3S 6561   2.646   0.600   9.666 -0.5049 -0.5485  0.6976
   74SLPC   C24 6562   2.858   0.604   9.720 -0.0500 -0.5101 -0.7275
   74SLPC   H4R 6563   2.867   0.494   9.706 -1.6799 -0.4846 -2.4827
   74SLPC   H4S 6564   2.922   0.633   9.806 -0.2297 -0.3331 -0.6499
   74SLPC   C25 6565   2.912   0.672   9.591  0.1904 -0.7492  0.5403
   74SLPC   H5R 6566   3.022   0.661   9.598  0.4302  1.7376  1.8215
   74SLPC   H5S 6567   2.905   0.783   9.596  2.6123 -0.5973  3.4627
   74SLPC   C26 6568   2.846   0.632   9.467  0.0267 -0.1502 -0.0973
   74SLPC   H6R 6569   2.735   0.639   9.471  0.0462  0.6262 -0.7227
   74SLPC   H6S 6570   2.878   0.528   9.445  2.0905  0.2262  0.9270
   74SLPC   C27 6571   2.895   0.709   9.340  0.1585 -0.2201  0.5436
   74SLPC   H7R 6572   3.006   0.697   9.340  0.1264 -1.1425  3.0349
   74SLPC   H7S 6573   2.866   0.814   9.358 -1.4312 -0.4218 -0.6408
   74SLPC   C28 6574   2.829   0.661   9.206  0.0113  0.4897  0.1324
   74SLPC   H8R 6575   2.719   0.652   9.222  0.0727 -1.8851 -0.4575
   74SLPC   H8S 6576   2.859   0.554   9.198  0.0835  0.5193 -0.0038
   74SLPC   C29 6577   2.863   0.742   9.082  0.4965 -0.5615 -0.4278
   74SLPC   H9R 6578   2.849   0.849   9.104  2.0378 -0.8080  2.2767
   74SLPC  C210 6579   2.893   0.705   8.959  0.1034  0.3623  0.4865
   74SLPC  H10R 6580   2.934   0.774   8.884  2.7789 -2.0212 -0.4213
   74SLPC  C211 6581   2.904   0.555   8.918  0.5696 -0.3463 -0.7113
   74SLPC  H11R 6582   2.964   0.497   8.991 -0.6361 -0.3866  0.2734
   74SLPC  H11S 6583   2.970   0.559   8.829 -0.1086  0.5202 -1.1894
   74SLPC  C212 6584   2.768   0.484   8.903 -0.9093 -0.3668 -0.1076
   74SLPC  H12R 6585   2.687   0.531   8.961  1.9319  1.0667  3.0073
   74SLPC  C213 6586   2.746   0.369   8.833 -0.1722  0.0918  0.3440
   74SLPC  H13R 6587   2.643   0.335   8.814  0.2711 -1.7248  0.9081
   74SLPC  C214 6588   2.862   0.288   8.776  0.2310  0.4660  1.0797
   74SLPC  H14R 6589   2.965   0.331   8.777  0.2722  0.4127 -0.1941
   74SLPC  H14S 6590   2.854   0.272   8.667  0.5129 -0.1891  1.1460
   74SLPC  C215 6591   2.872   0.147   8.844 -0.6214  0.4200  0.0268
   74SLPC  H15R 6592   2.916   0.157   8.946  0.2456 -0.1696 -0.2835
   74SLPC  H15S 6593   2.940   0.081   8.787 -0.5964  1.8261 -1.6518
   74SLPC  C216 6594   2.747   0.063   8.850  0.8656  0.5101 -0.9940
   74SLPC  H16R 6595   2.671   0.101   8.920  0.4522 -1.6740 -0.1725
   74SLPC  H16S 6596   2.782  -0.033   8.894 -1.2935  0.2517  0.2881
   74SLPC  C217 6597   2.671   0.035   8.722  0.4775 -0.3132 -0.2703
   74SLPC  H17R 6598   2.747   0.048   8.641  1.9953  2.7663  1.4948
   74SLPC  H17S 6599   2.589   0.108   8.710  1.5414  1.1234  0.9535
   74SLPC  C218 6600   2.618  -0.102   8.712 -0.5435  0.2276 -0.3896
   74SLPC  H18R 6601   2.563  -0.128   8.805 -1.3272  0.0114 -0.9010
   74SLPC  H18S 6602   2.697  -0.180   8.724 -1.0968 -0.2202  0.4494
   74SLPC  H18T 6603   2.565  -0.124   8.617 -2.9163 -0.0890  0.9233
   74SLPC   C33 6604   3.033   0.969   9.987  0.6116  0.3037  0.3420
   74SLPC   H3X 6605   3.018   1.038  10.073 -0.7485  1.3850 -0.6909
   74SLPC   H3Y 6606   2.933   0.928   9.962  0.7083 -0.2366  0.8461
   74SLPC   C34 6607   3.086   1.042   9.863  0.1857 -0.4205  0.2123
   74SLPC   H4X 6608   3.189   1.079   9.880  0.3832  1.2211 -3.5140
   74SLPC   H4Y 6609   3.019   1.130   9.847 -0.7635 -1.2467 -0.5276
   74SLPC   C35 6610   3.082   0.958   9.733 -0.3085 -1.1022 -0.5978
   74SLPC   H5X 6611   2.976   0.927   9.717 -0.8475  0.4793 -0.3332
   74SLPC   H5Y 6612   3.151   0.871   9.737 -0.8507 -1.4938  2.0028
   74SLPC   C36 6613   3.125   1.050   9.617  0.6606  0.3075 -0.2070
   74SLPC   H6X 6614   3.233   1.070   9.633  0.5342 -0.5510  2.1010
   74SLPC   H6Y 6615   3.074   1.149   9.618  1.5799  0.7984  1.0638
   74SLPC   C37 6616   3.122   0.985   9.472  0.1530  0.1456  0.3359
   74SLPC   H7X 6617   3.022   0.941   9.452  0.5327 -0.0325 -1.2486
   74SLPC   H7Y 6618   3.186   0.895   9.471 -2.1949 -1.6361 -0.5111
   74SLPC   C38 6619   3.146   1.091   9.366  0.0722 -0.0147 -0.0112
   74SLPC   H8X 6620   3.238   1.151   9.384  1.3947 -1.5371 -1.3233
   74SLPC   H8Y 6621   3.058   1.159   9.365 -0.2128 -0.3134 -2.5499
   74SLPC   C39 6622   3.143   1.026   9.224  0.0748 -0.0979 -0.1357
   74SLPC   H9X 6623   3.057   0.955   9.228  1.7771 -2.2156  1.4080
   74SLPC   H9Y 6624   3.236   0.965   9.227  0.2087 -0.0206 -2.0234
   74SLPC  C310 6625   3.124   1.122   9.106  0.0228 -0.0397  0.3451
   74SLPC  H10X 6626   3.217   1.179   9.087  0.1635 -0.9289 -1.9548
   74SLPC  H10Y 6627   3.041   1.194   9.126 -0.4125 -0.0655 -1.2713
   74SLPC  C311 6628   3.093   1.050   8.979 -0.1489 -0.0674  0.8039
   74SLPC  H11X 6629   2.999   0.994   8.999 -1.2919  1.0980 -1.0013
   74SLPC  H11Y 6630   3.179   0.997   8.933  0.7903  2.9313 -1.1783
   74SLPC  C312 6631   3.079   1.159   8.870  0.5776  0.3909  0.6229
   74SLPC  H12X 6632   3.180   1.202   8.858 -0.0274  1.6420 -0.3123
   74SLPC  H12Y 6633   3.013   1.242   8.904  0.0651  0.1152  0.3191
   74SLPC  C313 6634   3.018   1.108   8.735  0.7192  0.3698 -0.0529
   74SLPC  H13X 6635   2.910   1.091   8.753 -0.0900  2.7124 -1.9790
   74SLPC  H13Y 6636   3.067   1.012   8.708  0.2549 -0.0209  0.4874
   74SLPC  C314 6637   3.030   1.205   8.610  0.7432  0.3279 -0.1168
   74SLPC  H14X 6638   3.044   1.310   8.642  1.8743 -0.3384  1.7817
   74SLPC  H14Y 6639   2.930   1.193   8.565  0.6810 -0.6707  0.2664
   74SLPC  C315 6640   3.132   1.166   8.503  0.1572 -0.1583 -0.7971
   74SLPC  H15X 6641   3.114   1.227   8.411 -0.3031 -2.2394 -2.1661
   74SLPC  H15Y 6642   3.116   1.059   8.479  0.3120 -0.8124  1.7401
   74SLPC  C316 6643   3.281   1.182   8.544 -1.0610 -0.0789  0.0062
   74SLPC  H16X 6644   3.349   1.146   8.464  0.1710  2.2176 -0.0657
   74SLPC  H16Y 6645   3.305   1.111   8.626  1.4172 -0.3586 -0.8562
   74SLPC  C317 6646   3.321   1.317   8.604 -0.4441 -0.2820  0.3812
   74SLPC  H17X 6647   3.261   1.332   8.696 -1.2240 -0.6438 -0.0648
   74SLPC  H17Y 6648   3.288   1.399   8.537  0.9125  0.5696  0.7121
   74SLPC  C318 6649   3.467   1.329   8.635  0.1774 -0.1199 -0.2909
   74SLPC  H18X 6650   3.510   1.244   8.692 -1.6729  0.0661  1.4917
   74SLPC  H18Y 6651   3.474   1.421   8.697 -0.5925 -0.9793  1.1264
   74SLPC  H18Z 6652   3.533   1.339   8.546 -2.2325  1.8046 -1.9976
   75SLPC     N 6653   0.749   4.530   6.654  0.4385 -0.4242 -0.7909
   75SLPC   C13 6654   0.755   4.642   6.746  0.8763  0.3617  0.3835
   75SLPC  H13A 6655   0.825   4.628   6.828  0.7971 -0.2365  0.3505
   75SLPC  H13B 6656   0.787   4.727   6.687  2.1882  0.8494  1.7308
   75SLPC  H13C 6657   0.663   4.674   6.793  1.1892  2.5767 -0.3756
   75SLPC   C14 6658   0.881   4.525   6.581 -0.3365 -0.4053  0.5721
   75SLPC  H14A 6659   0.955   4.512   6.659 -2.7780 -3.0090  2.6506
   75SLPC  H14B 6660   0.874   4.440   6.515 -1.5390  0.0231  0.1190
   75SLPC  H14C 6661   0.886   4.613   6.518 -0.5856 -0.0920  0.9822
   75SLPC   C15 6662   0.640   4.547   6.557 -0.5417 -0.3815  0.9092
   75SLPC  H15A 6663   0.543   4.569   6.600 -0.9996  1.1544 -0.8080
   75SLPC  H15B 6664   0.664   4.634   6.498  1.7086 -2.8437 -2.1065
   75SLPC  H15C 6665   0.631   4.470   6.483 -0.7783  0.0611  0.4727
   75SLPC   C12 6666   0.729   4.413   6.740 -0.3634  0.0765 -0.1994
   75SLPC  H12A 6667   0.647   4.436   6.807  0.2701  1.5034  0.1221
   75SLPC  H12B 6668   0.811   4.400   6.809 -0.3766  0.7521 -0.0512
   75SLPC   C11 6669   0.717   4.276   6.670  0.4363  0.2104  0.1704
   75SLPC  H11A 6670   0.728   4.211   6.759 -0.7016  2.3938  2.0215
   75SLPC  H11B 6671   0.810   4.265   6.610 -0.2417  1.6727 -1.2113
   75SLPC     P 6672   0.568   4.135   6.517  0.0094  0.0222  0.3847
   75SLPC   O13 6673   0.429   4.129   6.467  0.2020  0.1782  0.2611
   75SLPC   O14 6674   0.678   4.107   6.423  0.2282  0.3690 -0.0531
   75SLPC   O12 6675   0.595   4.273   6.591  0.4483  0.5572 -0.1355
   75SLPC   O11 6676   0.588   4.032   6.639  0.0513  0.4617 -0.3056
   75SLPC    C1 6677   0.481   4.000   6.730 -0.5582 -0.3158  0.5787
   75SLPC    HA 6678   0.415   4.088   6.749  0.4207 -0.0318  3.0150
   75SLPC    HB 6679   0.420   3.921   6.682  0.4894 -1.7051  1.4469
   75SLPC    C2 6680   0.542   3.959   6.869 -0.3852  0.3497 -0.3307
   75SLPC    HS 6681   0.457   3.948   6.940  0.1342  1.5883  0.5109
   75SLPC   O21 6682   0.633   4.055   6.923 -0.2480  0.1472  0.4430
   75SLPC   C21 6683   0.570   4.162   6.971  0.0900  0.4038  0.1919
   75SLPC   O22 6684   0.448   4.180   6.962 -0.1983  0.1686  0.2961
   75SLPC   C22 6685   0.664   4.251   7.046  0.0641 -0.5762  0.1814
   75SLPC   H2R 6686   0.740   4.282   6.971 -0.7961  0.7784 -0.1790
   75SLPC   H2S 6687   0.620   4.344   7.088  0.4655 -0.6395  0.7478
   75SLPC    C3 6688   0.610   3.823   6.851  0.0022  0.0171  0.0163
   75SLPC    HX 6689   0.708   3.839   6.800  0.2552 -1.3697  0.0185
   75SLPC    HY 6690   0.545   3.764   6.782  0.0290  0.2384 -0.1989
   75SLPC   O31 6691   0.630   3.762   6.980  0.0824  0.0132 -0.5649
   75SLPC   C31 6692   0.560   3.654   7.013  1.2413  0.3945 -0.4524
   75SLPC   O32 6693   0.464   3.613   6.949 -0.0667  0.0888  0.4064
   75SLPC   C32 6694   0.615   3.576   7.132 -0.3513 -0.0232 -0.1223
   75SLPC   H2X 6695   0.710   3.626   7.161 -0.0644 -0.8187  0.3379
   75SLPC   H2Y 6696   0.642   3.481   7.083  0.6251  1.5417 -2.8408
   75SLPC   C23 6697   0.732   4.172   7.156  0.4683  0.5599  0.4928
   75SLPC   H3R 6698   0.832   4.205   7.191  1.3461 -1.0705 -0.3476
   75SLPC   H3S 6699   0.766   4.075   7.114  1.5413  0.6931  1.0345
   75SLPC   C24 6700   0.648   4.151   7.283 -0.1080  0.3288  0.6763
   75SLPC   H4R 6701   0.546   4.125   7.248  0.3054 -0.1127 -0.2052
   75SLPC   H4S 6702   0.662   4.248   7.337 -1.7848  0.7227  0.4455
   75SLPC   C25 6703   0.696   4.032   7.364 -0.2462 -0.2882 -0.3938
   75SLPC   H5R 6704   0.799   4.046   7.401  0.0492 -2.1861 -0.3900
   75SLPC   H5S 6705   0.704   3.937   7.307  0.0725 -0.4696 -0.0511
   75SLPC   C26 6706   0.615   4.027   7.498 -0.0391  0.2723  0.1403
   75SLPC   H6R 6707   0.508   4.009   7.474  0.7428 -3.4988 -1.2159
   75SLPC   H6S 6708   0.632   4.112   7.567  0.6855 -1.9519  2.9262
   75SLPC   C27 6709   0.653   3.896   7.576  0.3872 -0.2464 -0.1316
   75SLPC   H7R 6710   0.758   3.915   7.607  0.8435  0.1635 -1.8364
   75SLPC   H7S 6711   0.669   3.812   7.505  2.7567  1.5552 -1.8843
   75SLPC   C28 6712   0.555   3.855   7.689 -0.0131  0.1546 -0.2441
   75SLPC   H8R 6713   0.592   3.755   7.721 -0.3347 -1.1443 -3.6011
   75SLPC   H8S 6714   0.451   3.855   7.650  0.1196 -0.8487 -0.6357
   75SLPC   C29 6715   0.566   3.948   7.812 -0.0972  0.0780  0.6274
   75SLPC   H9R 6716   0.656   3.926   7.872  0.6738  0.6569 -0.2960
   75SLPC  C210 6717   0.470   4.032   7.864  0.3476 -0.0321  0.2487
   75SLPC  H10R 6718   0.504   4.091   7.950  1.2063  0.0648 -0.1468
   75SLPC  C211 6719   0.325   4.056   7.818  0.5792 -0.1014  0.0038
   75SLPC  H11R 6720   0.256   3.983   7.865  0.1187  1.4721  1.9000
   75SLPC  H11S 6721   0.314   4.035   7.710 -1.3473  2.1073 -0.3006
   75SLPC  C212 6722   0.265   4.185   7.870 -0.1157  0.2516 -0.0269
   75SLPC  H12R 6723   0.304   4.227   7.963  1.4052 -1.8319  0.3530
   75SLPC  C213 6724   0.153   4.243   7.811  0.2266  0.2350  0.2770
   75SLPC  H13R 6725   0.122   4.344   7.841  0.3545  0.3819 -0.0808
   75SLPC  C214 6726   0.076   4.192   7.690 -0.1093  0.5486 -0.3077
   75SLPC  H14R 6727  -0.014   4.154   7.744  0.7757 -0.2809  0.6064
   75SLPC  H14S 6728   0.128   4.113   7.632  0.6600  1.0219 -0.2680
   75SLPC  C215 6729   0.028   4.314   7.596  0.8813 -0.5638  0.0258
   75SLPC  H15R 6730   0.115   4.366   7.550 -1.4431  0.9834 -2.9169
   75SLPC  H15S 6731  -0.032   4.393   7.646  0.3844 -0.2753 -1.0014
   75SLPC  C216 6732  -0.047   4.253   7.485 -0.3553 -0.0104 -0.4025
   75SLPC  H16R 6733  -0.133   4.188   7.511  0.7773 -2.1281 -1.6873
   75SLPC  H16S 6734   0.020   4.174   7.444 -0.3255  0.1314 -0.6291
   75SLPC  C217 6735  -0.069   4.350   7.376  0.3707 -0.0663  1.3186
   75SLPC  H17R 6736   0.025   4.410   7.376  0.9386 -0.8211 -1.2160
   75SLPC  H17S 6737  -0.145   4.423   7.410 -1.0341 -0.2388 -1.2302
   75SLPC  C218 6738  -0.101   4.290   7.238 -0.6532 -0.0127  0.3444
   75SLPC  H18R 6739  -0.015   4.229   7.202 -0.6358 -0.5509  1.2652
   75SLPC  H18S 6740  -0.120   4.375   7.170  1.7953  1.7860  1.7581
   75SLPC  H18T 6741  -0.192   4.225   7.242  0.9061 -2.3953 -0.5247
   75SLPC   C33 6742   0.519   3.587   7.258 -0.1581 -0.3366  0.0134
   75SLPC   H3X 6743   0.513   3.696   7.280 -1.5576 -0.2325 -0.8155
   75SLPC   H3Y 6744   0.417   3.562   7.223 -0.4652  2.1320 -1.0704
   75SLPC   C34 6745   0.576   3.503   7.374 -0.1918  0.4996 -0.3082
   75SLPC   H4X 6746   0.678   3.545   7.380 -0.0615 -0.0199  2.0690
   75SLPC   H4Y 6747   0.566   3.396   7.348  1.6149 -0.0676  1.1201
   75SLPC   C35 6748   0.493   3.526   7.505  0.0474  0.5759  0.1294
   75SLPC   H5X 6749   0.389   3.486   7.497  0.2331  0.0787  0.1451
   75SLPC   H5Y 6750   0.479   3.635   7.513 -1.5224  0.4138 -0.1037
   75SLPC   C36 6751   0.560   3.458   7.629 -0.6433  0.2949 -0.4237
   75SLPC   H6X 6752   0.657   3.498   7.666  0.2167 -0.9392 -1.2948
   75SLPC   H6Y 6753   0.586   3.357   7.593  1.6290 -0.0039  1.7875
   75SLPC   C37 6754   0.471   3.463   7.749  0.3929  0.4419  0.8899
   75SLPC   H7X 6755   0.365   3.442   7.722  0.2017 -0.2347  2.0821
   75SLPC   H7Y 6756   0.488   3.561   7.798 -1.3341  0.4483  1.5421
   75SLPC   C38 6757   0.495   3.342   7.844 -0.6460 -0.2661  0.5466
   75SLPC   H8X 6758   0.604   3.338   7.866 -0.4736  1.1655  0.0980
   75SLPC   H8Y 6759   0.477   3.248   7.789 -0.5163  0.6931 -1.1921
   75SLPC   C39 6760   0.393   3.335   7.960 -0.0793 -0.2292  0.4971
   75SLPC   H9X 6761   0.295   3.368   7.922 -0.0285 -0.3205  0.2835
   75SLPC   H9Y 6762   0.429   3.412   8.031 -0.0251  1.2498 -1.0680
   75SLPC  C310 6763   0.369   3.196   8.024  0.5792 -0.5005 -0.8011
   75SLPC  H10X 6764   0.337   3.125   7.944 -1.2769  0.3264 -0.8480
   75SLPC  H10Y 6765   0.287   3.201   8.098 -1.3031  3.0729 -2.8544
   75SLPC  C311 6766   0.482   3.135   8.111 -0.4153  0.3435  0.2158
   75SLPC  H11X 6767   0.583   3.142   8.066 -0.7506  0.2792 -0.5739
   75SLPC  H11Y 6768   0.453   3.028   8.116  0.4210  0.0881 -0.2172
   75SLPC  C312 6769   0.482   3.178   8.259 -0.0313 -0.3737 -1.2489
   75SLPC  H12X 6770   0.382   3.172   8.306  0.3797 -1.3031 -0.4538
   75SLPC  H12Y 6771   0.528   3.278   8.273 -0.5648 -0.4989  2.4749
   75SLPC  C313 6772   0.568   3.084   8.349 -0.0019  0.2955 -0.9393
   75SLPC  H13X 6773   0.671   3.079   8.306 -0.3836  2.7625 -2.3196
   75SLPC  H13Y 6774   0.512   2.988   8.348  0.5821 -0.0915  0.3705
   75SLPC  C314 6775   0.581   3.149   8.497 -0.3824  0.5016  0.3315
   75SLPC  H14X 6776   0.488   3.199   8.531 -0.4839  1.3408 -1.1282
   75SLPC  H14Y 6777   0.652   3.234   8.491 -0.1514  0.2018 -2.0837
   75SLPC  C315 6778   0.623   3.049   8.604  0.2173 -0.4672  0.1473
   75SLPC  H15X 6779   0.555   2.962   8.596 -1.5209  0.8782 -0.2038
   75SLPC  H15Y 6780   0.604   3.097   8.702 -2.4995  0.0161 -0.5519
   75SLPC  C316 6781   0.768   3.010   8.587  0.0521 -0.0607 -0.2113
   75SLPC  H16X 6782   0.816   3.107   8.564 -2.1517  1.0123 -0.5423
   75SLPC  H16Y 6783   0.771   2.940   8.501 -0.3709 -0.5115  0.1316
   75SLPC  C317 6784   0.832   2.934   8.711 -0.7449 -0.3533 -0.2117
   75SLPC  H17X 6785   0.940   2.921   8.689  0.5567  3.7498  2.5036
   75SLPC  H17Y 6786   0.787   2.834   8.729 -1.3743 -0.1708 -0.7239
   75SLPC  C318 6787   0.814   3.014   8.840  0.2180  0.2435  0.6536
   75SLPC  H18X 6788   0.832   3.123   8.827 -1.8527  0.6840  1.1161
   75SLPC  H18Y 6789   0.873   2.976   8.926 -2.4884  0.5676  2.8024
   75SLPC  H18Z 6790   0.708   3.004   8.870 -0.1093 -2.8967 -1.0069
   76SLPC     N 6791   2.429   2.184   6.299  0.0945  0.0836  0.6941
   76SLPC   C13 6792   2.495   2.228   6.165  0.2062  0.2685 -0.4133
   76SLPC  H13A 6793   2.535   2.328   6.165  0.1340  0.3133 -1.4315
   76SLPC  H13B 6794   2.585   2.172   6.144  0.4026  0.4074  0.0479
   76SLPC  H13C 6795   2.424   2.231   6.083 -1.0575 -0.2571  0.6209
   76SLPC   C14 6796   2.382   2.042   6.276 -0.0094 -0.3802 -0.2739
   76SLPC  H14A 6797   2.319   2.040   6.189 -1.4690 -0.2233  0.7560
   76SLPC  H14B 6798   2.458   1.965   6.263 -0.9480 -1.6380  1.2680
   76SLPC  H14C 6799   2.325   2.018   6.365 -2.7717 -0.1012 -1.8643
   76SLPC   C15 6800   2.313   2.266   6.335  0.1398  0.0891 -0.2455
   76SLPC  H15A 6801   2.338   2.371   6.341 -2.4622  0.6849  1.5485
   76SLPC  H15B 6802   2.232   2.266   6.263  1.4104  2.2634 -1.8003
   76SLPC  H15C 6803   2.278   2.244   6.434 -2.0634  1.4298 -0.6619
   76SLPC   C12 6804   2.537   2.187   6.407 -0.0442 -0.8196  0.3683
   76SLPC  H12A 6805   2.500   2.144   6.499  1.3860 -0.7466  1.0024
   76SLPC  H12B 6806   2.570   2.287   6.429  1.9197 -1.7095  1.7874
   76SLPC   C11 6807   2.661   2.093   6.372  0.1636 -0.0336  0.4309
   76SLPC  H11A 6808   2.727   2.099   6.461  0.1427  0.6842  0.4063
   76SLPC  H11B 6809   2.714   2.156   6.297  0.3043 -1.4821 -0.7172
   76SLPC     P 6810   2.763   1.876   6.275  0.2410  0.0987 -0.3641
   76SLPC   O13 6811   2.715   1.817   6.149 -0.3672  0.0121  0.8369
   76SLPC   O14 6812   2.884   1.961   6.252  0.8912 -0.2060  0.2382
   76SLPC   O12 6813   2.636   1.957   6.328 -0.2740  0.2858  0.4175
   76SLPC   O11 6814   2.790   1.770   6.386 -0.3940 -0.1941  0.5002
   76SLPC    C1 6815   2.693   1.749   6.487 -0.0169  0.0789 -0.3461
   76SLPC    HA 6816   2.695   1.839   6.552  1.1673 -0.9277  1.1083
   76SLPC    HB 6817   2.593   1.727   6.444 -0.6337  0.7340  0.7064
   76SLPC    C2 6818   2.741   1.629   6.575 -0.9169 -0.2450 -0.5199
   76SLPC    HS 6819   2.698   1.634   6.677  1.0051  0.1120  0.2965
   76SLPC   O21 6820   2.888   1.638   6.581  0.0810 -0.3171 -0.2127
   76SLPC   C21 6821   2.933   1.578   6.689  0.4338 -0.2462  0.3474
   76SLPC   O22 6822   2.871   1.538   6.783  0.6012  0.0106 -0.3008
   76SLPC   C22 6823   3.088   1.564   6.675  0.0146 -0.0047  0.4058
   76SLPC   H2R 6824   3.116   1.511   6.582 -0.1979  1.8455 -0.7731
   76SLPC   H2S 6825   3.132   1.666   6.669  0.3227 -0.1636 -0.0612
   76SLPC    C3 6826   2.701   1.504   6.499 -0.7314  0.0267 -0.1429
   76SLPC    HX 6827   2.771   1.474   6.419 -0.5338  0.4808 -0.1382
   76SLPC    HY 6828   2.601   1.517   6.453  0.1053  0.9519 -1.7713
   76SLPC   O31 6829   2.681   1.396   6.583 -0.2685  0.5469  0.2504
   76SLPC   C31 6830   2.758   1.291   6.578 -0.0708  0.0374 -0.2972
   76SLPC   O32 6831   2.854   1.281   6.500  0.7993  0.0092  0.0982
   76SLPC   C32 6832   2.725   1.192   6.692 -0.8051  0.3182  0.2696
   76SLPC   H2X 6833   2.791   1.204   6.781 -1.1616 -0.7012  0.6842
   76SLPC   H2Y 6834   2.748   1.089   6.657  0.0404  0.4929  0.2806
   76SLPC   C23 6835   3.142   1.497   6.805 -0.0955  0.3837  0.3511
   76SLPC   H3R 6836   3.082   1.525   6.894  1.4384 -1.8921  2.2216
   76SLPC   H3S 6837   3.244   1.533   6.832 -0.4651  0.4797  1.7087
   76SLPC   C24 6838   3.147   1.344   6.785  0.0700 -0.8205 -0.0953
   76SLPC   H4R 6839   3.235   1.319   6.722 -0.0760 -2.2334  0.2244
   76SLPC   H4S 6840   3.061   1.306   6.726 -1.2140  1.2075  0.4034
   76SLPC   C25 6841   3.167   1.266   6.917  0.3026  0.1771  0.5406
   76SLPC   H5R 6842   3.262   1.291   6.970 -1.2085  1.2570  2.9172
   76SLPC   H5S 6843   3.181   1.159   6.890 -0.6167 -0.0210  0.8068
   76SLPC   C26 6844   3.050   1.285   7.020  0.1192  0.5030  0.2375
   76SLPC   H6R 6845   2.959   1.250   6.967 -0.1056  1.4985 -0.0610
   76SLPC   H6S 6846   3.032   1.390   7.055 -2.1090  0.3679 -0.3825
   76SLPC   C27 6847   3.073   1.193   7.139  0.3208  0.0511 -0.2198
   76SLPC   H7R 6848   3.167   1.223   7.189  0.5135 -0.4734 -0.2625
   76SLPC   H7S 6849   3.101   1.090   7.111 -2.2331 -0.8981  0.4580
   76SLPC   C28 6850   2.955   1.196   7.239  0.0471  0.2272  0.0446
   76SLPC   H8R 6851   3.004   1.172   7.336  1.2714 -1.3165 -0.9057
   76SLPC   H8S 6852   2.923   1.300   7.261 -1.9188 -0.6908  1.9304
   76SLPC   C29 6853   2.834   1.104   7.217  0.0250  0.5915 -0.1423
   76SLPC   H9R 6854   2.778   1.111   7.122  0.5027 -1.0671 -0.5817
   76SLPC  C210 6855   2.785   1.010   7.294  0.3001 -0.2177  0.0592
   76SLPC  H10R 6856   2.701   0.950   7.256  0.4601 -2.2159  2.5880
   76SLPC  C211 6857   2.826   0.968   7.439 -0.2871 -0.5281 -0.0921
   76SLPC  H11R 6858   2.937   0.982   7.441 -0.4224  0.5144  0.5194
   76SLPC  H11S 6859   2.806   0.859   7.450 -2.8634 -0.1601 -0.6169
   76SLPC  C212 6860   2.763   1.057   7.550  0.0950  0.2293  0.0495
   76SLPC  H12R 6861   2.760   1.163   7.522  0.1135  0.7161  1.7560
   76SLPC  C213 6862   2.731   1.012   7.672 -0.3696 -0.6733  0.2883
   76SLPC  H13R 6863   2.682   1.085   7.738  0.0747  1.6675 -1.8483
   76SLPC  C214 6864   2.745   0.872   7.719 -0.3800  0.1237  0.0796
   76SLPC  H14R 6865   2.759   0.800   7.636 -0.9483 -0.2445  0.2946
   76SLPC  H14S 6866   2.661   0.841   7.785  0.4001  1.3203  1.7230
   76SLPC  C215 6867   2.871   0.866   7.812 -0.4495 -0.4076  0.9568
   76SLPC  H15R 6868   2.901   0.761   7.834 -0.9511 -0.5111  1.1433
   76SLPC  H15S 6869   2.839   0.902   7.912 -0.5890  1.1300  0.3932
   76SLPC  C216 6870   2.999   0.955   7.776  0.6160 -0.5434  0.8095
   76SLPC  H16R 6871   2.972   1.063   7.771 -3.6768 -1.4805  0.1418
   76SLPC  H16S 6872   3.035   0.920   7.677  0.2283  0.4430  0.3095
   76SLPC  C217 6873   3.120   0.948   7.869 -0.3126 -0.1484 -0.5490
   76SLPC  H17R 6874   3.165   0.847   7.870 -0.4952 -0.2365  0.6205
   76SLPC  H17S 6875   3.085   0.976   7.971 -0.0124  2.8543 -1.1751
   76SLPC  C218 6876   3.235   1.049   7.831  0.3847 -0.8145 -0.1007
   76SLPC  H18R 6877   3.205   1.156   7.824 -1.1782 -1.2296 -0.0374
   76SLPC  H18S 6878   3.281   1.021   7.734  0.6128  0.8212 -0.5024
   76SLPC  H18T 6879   3.310   1.049   7.913  0.4713 -0.6624 -0.1774
   76SLPC   C33 6880   2.573   1.192   6.724 -0.3723  0.6910 -0.2003
   76SLPC   H3X 6881   2.517   1.188   6.628  2.4119 -0.6558 -1.9148
   76SLPC   H3Y 6882   2.551   1.292   6.765 -0.5904 -0.0114  1.4790
   76SLPC   C34 6883   2.536   1.095   6.835  0.0903  0.3436  0.2208
   76SLPC   H4X 6884   2.590   1.108   6.931  1.1805  1.4286 -0.5139
   76SLPC   H4Y 6885   2.562   0.993   6.802 -0.6598  0.6170 -1.2914
   76SLPC   C35 6886   2.387   1.092   6.874 -0.3940 -0.0166 -0.2613
   76SLPC   H5X 6887   2.321   1.078   6.786 -1.1234 -2.3551  0.5588
   76SLPC   H5Y 6888   2.348   1.191   6.906 -0.5376 -0.2008  0.1489
   76SLPC   C36 6889   2.349   0.976   6.966  0.3318 -0.7228 -0.1698
   76SLPC   H6X 6890   2.381   0.879   6.923 -1.3486 -0.2403 -2.7353
   76SLPC   H6Y 6891   2.238   0.974   6.971  0.2529  1.0982 -0.2874
   76SLPC   C37 6892   2.402   0.975   7.108 -0.5627  0.3850  0.6815
   76SLPC   H7X 6893   2.405   1.075   7.156  2.1906  0.8365 -0.2257
   76SLPC   H7Y 6894   2.510   0.948   7.107 -0.1185  2.0583  1.0114
   76SLPC   C38 6895   2.334   0.869   7.198 -0.0020 -0.7741 -0.1277
   76SLPC   H8X 6896   2.352   0.770   7.152 -0.8659 -2.6141  3.1621
   76SLPC   H8Y 6897   2.224   0.885   7.202 -0.1610 -1.9340  1.4605
   76SLPC   C39 6898   2.386   0.871   7.346  0.8600 -0.0581 -0.2320
   76SLPC   H9X 6899   2.372   0.969   7.396 -1.9291 -1.9697  3.1970
   76SLPC   H9Y 6900   2.489   0.829   7.340  0.1751 -1.7569 -0.5699
   76SLPC  C310 6901   2.296   0.787   7.445  0.3869 -0.2411  0.5224
   76SLPC  H10X 6902   2.195   0.834   7.447  0.9496  0.9892  1.1167
   76SLPC  H10Y 6903   2.335   0.790   7.549 -2.8690 -2.2718  1.9745
   76SLPC  C311 6904   2.291   0.643   7.403  0.1575  0.9702  0.2457
   76SLPC  H11X 6905   2.395   0.605   7.405 -0.4185 -0.7028 -0.4379
   76SLPC  H11Y 6906   2.263   0.629   7.297  0.5793  0.3266  0.2152
   76SLPC  C312 6907   2.197   0.549   7.496  0.6954  0.6929 -0.2411
   76SLPC  H12X 6908   2.142   0.477   7.432  0.2363  0.6989  0.1430
   76SLPC  H12Y 6909   2.119   0.619   7.534  1.7573  1.1212  1.2179
   76SLPC  C313 6910   2.280   0.479   7.601  0.0416  0.2499  0.3501
   76SLPC  H13X 6911   2.348   0.552   7.650 -0.7938  1.4486 -0.2097
   76SLPC  H13Y 6912   2.346   0.407   7.549  3.7626  3.0120  0.7790
   76SLPC  C314 6913   2.199   0.401   7.711 -0.4708  0.0083  0.2462
   76SLPC  H14X 6914   2.267   0.331   7.764  0.3625  1.2927  0.9572
   76SLPC  H14Y 6915   2.117   0.350   7.655 -0.1508 -1.3070  0.9387
   76SLPC  C315 6916   2.125   0.488   7.813 -0.5257  0.6380  0.6280
   76SLPC  H15X 6917   2.051   0.430   7.873  0.0717 -0.9954 -0.1343
   76SLPC  H15Y 6918   2.055   0.552   7.755 -2.5206 -0.5612  1.5872
   76SLPC  C316 6919   2.220   0.569   7.905  0.1032  0.7934 -0.5097
   76SLPC  H16X 6920   2.163   0.646   7.960 -0.6339  0.6575 -1.0535
   76SLPC  H16Y 6921   2.294   0.632   7.851  0.8767  0.7861  0.5243
   76SLPC  C317 6922   2.304   0.490   8.003  0.3389 -0.7046 -0.4499
   76SLPC  H17X 6923   2.390   0.437   7.956 -0.2238 -1.4335 -0.6783
   76SLPC  H17Y 6924   2.236   0.414   8.046 -0.6262  0.1293 -0.4492
   76SLPC  C318 6925   2.365   0.574   8.118 -0.1910 -0.2859  0.0439
   76SLPC  H18X 6926   2.408   0.669   8.080  0.1455  0.5406  2.3481
   76SLPC  H18Y 6927   2.457   0.522   8.153  0.0233 -0.1702 -0.3357
   76SLPC  H18Z 6928   2.291   0.597   8.197  1.1095 -0.9931  1.5248
   77SLPC     N 6929   5.878   3.353   6.398  0.7121 -0.3429 -0.5287
   77SLPC   C13 6930   5.960   3.439   6.489  0.4292 -0.9349  0.2375
   77SLPC  H13A 6931   5.903   3.502   6.556  0.4676 -1.3427  0.6588
   77SLPC  H13B 6932   6.044   3.383   6.526  0.6780  0.1278  1.3539
   77SLPC  H13C 6933   6.007   3.515   6.428  0.2535 -0.8452  0.2133
   77SLPC   C14 6934   5.939   3.337   6.267  0.2448  0.0279  0.9601
   77SLPC  H14A 6935   5.865   3.289   6.205  1.1155  1.2394 -1.1235
   77SLPC  H14B 6936   5.948   3.434   6.221 -2.9925 -0.3647 -0.8421
   77SLPC  H14C 6937   6.031   3.282   6.273 -1.1673 -2.4098  1.7791
   77SLPC   C15 6938   5.739   3.413   6.390 -0.6751 -0.2555  0.6144
   77SLPC  H15A 6939   5.690   3.359   6.310  1.0991  1.2209 -1.6223
   77SLPC  H15B 6940   5.687   3.410   6.484  0.6448  2.1648  1.5033
   77SLPC  H15C 6941   5.743   3.520   6.376  2.9687 -0.3127 -0.0133
   77SLPC   C12 6942   5.877   3.215   6.454 -0.0212  0.3397 -0.6224
   77SLPC  H12A 6943   5.852   3.229   6.558  1.4692  1.3795 -0.3689
   77SLPC  H12B 6944   5.978   3.177   6.453 -0.1514 -0.0226 -0.3506
   77SLPC   C11 6945   5.786   3.106   6.389  0.1188  0.6473  0.3097
   77SLPC  H11A 6946   5.819   3.011   6.437  0.7814  0.0425 -1.2832
   77SLPC  H11B 6947   5.817   3.093   6.283 -2.1125 -1.3674 -0.2109
   77SLPC     P 6948   5.543   3.040   6.458  0.1319  0.3090 -0.1009
   77SLPC   O13 6949   5.409   3.100   6.459  0.5132  0.2730  0.1662
   77SLPC   O14 6950   5.562   2.910   6.388  0.0320 -0.2464 -0.3679
   77SLPC   O12 6951   5.643   3.133   6.394  0.3446  0.2267 -0.0784
   77SLPC   O11 6952   5.599   3.036   6.602  0.0808  0.1036 -0.3658
   77SLPC    C1 6953   5.594   3.136   6.703  0.7886  0.1901  0.4833
   77SLPC    HA 6954   5.693   3.187   6.711  0.1727  1.4441  0.3352
   77SLPC    HB 6955   5.518   3.215   6.686  0.4618  0.2443  2.0142
   77SLPC    C2 6956   5.546   3.072   6.841 -0.3782 -0.6462  0.2997
   77SLPC    HS 6957   5.549   3.155   6.914  0.4576 -0.3886 -0.0174
   77SLPC   O21 6958   5.632   2.970   6.887 -0.0062 -0.0874  0.5214
   77SLPC   C21 6959   5.747   3.015   6.927 -0.8166 -0.4092 -0.8426
   77SLPC   O22 6960   5.788   3.126   6.943  0.1765 -0.4318  0.6304
   77SLPC   C22 6961   5.831   2.894   6.976  0.8630 -0.3657 -0.6695
   77SLPC   H2R 6962   5.764   2.808   6.995 -0.7205  0.8941 -0.2738
   77SLPC   H2S 6963   5.891   2.869   6.886 -0.1132  1.8485 -2.0216
   77SLPC    C3 6964   5.407   3.017   6.820  0.3524 -0.2779 -0.4581
   77SLPC    HX 6965   5.384   2.968   6.917  0.3113  2.0580  0.7818
   77SLPC    HY 6966   5.411   2.945   6.735 -0.5851 -0.1441 -0.6282
   77SLPC   O31 6967   5.303   3.116   6.790 -0.1338 -0.2569  0.0303
   77SLPC   C31 6968   5.195   3.063   6.740  0.3519  0.0231  0.0991
   77SLPC   O32 6969   5.187   2.957   6.681 -0.0580 -0.0275 -0.0021
   77SLPC   C32 6970   5.088   3.167   6.767  0.6313 -0.3386 -0.3596
   77SLPC   H2X 6971   5.018   3.184   6.682  0.4119  1.2532  0.1082
   77SLPC   H2Y 6972   5.126   3.267   6.798  1.5283 -0.7308 -0.1769
   77SLPC   C23 6973   5.916   2.927   7.096 -0.1450  0.2250 -0.1237
   77SLPC   H3R 6974   5.989   3.009   7.079  0.4489 -0.4705 -0.9965
   77SLPC   H3S 6975   5.974   2.834   7.116 -2.2516 -0.8123  1.7458
   77SLPC   C24 6976   5.839   2.961   7.225 -0.1314  0.3710  0.0761
   77SLPC   H4R 6977   5.758   2.887   7.241 -1.1494  1.4165 -0.0404
   77SLPC   H4S 6978   5.781   3.056   7.221  0.5015  0.7447 -0.7018
   77SLPC   C25 6979   5.924   2.955   7.343  0.2677  0.8626 -0.8996
   77SLPC   H5R 6980   5.996   3.040   7.346 -0.4293  1.5969 -2.8680
   77SLPC   H5S 6981   5.999   2.874   7.336 -1.1708 -0.5348 -0.5788
   77SLPC   C26 6982   5.848   2.924   7.478  0.4611 -1.1396 -0.2826
   77SLPC   H6R 6983   5.783   2.835   7.463  0.4332 -1.0191 -0.9051
   77SLPC   H6S 6984   5.781   3.007   7.510  0.2659 -1.2593 -0.3808
   77SLPC   C27 6985   5.943   2.903   7.593 -0.0980 -0.6298  0.8335
   77SLPC   H7R 6986   6.021   2.982   7.584  0.0319 -0.8794 -0.4976
   77SLPC   H7S 6987   5.998   2.808   7.576 -0.3960 -0.6667  0.0258
   77SLPC   C28 6988   5.865   2.870   7.714 -0.5205  0.8133 -0.2648
   77SLPC   H8R 6989   5.932   2.828   7.792 -1.6579  1.7854  1.2808
   77SLPC   H8S 6990   5.788   2.792   7.696  0.1706  0.2947 -1.0261
   77SLPC   C29 6991   5.810   2.992   7.775  0.3124 -0.0220 -0.6459
   77SLPC   H9R 6992   5.884   3.073   7.786 -0.5056  0.6827 -0.1813
   77SLPC  C210 6993   5.682   3.029   7.796 -1.0419 -0.3199 -0.1842
   77SLPC  H10R 6994   5.665   3.129   7.837 -0.7847 -0.7291  0.9502
   77SLPC  C211 6995   5.559   2.940   7.762 -0.7323 -0.3122 -0.1345
   77SLPC  H11R 6996   5.592   2.842   7.721 -0.2097 -0.6259  0.9889
   77SLPC  H11S 6997   5.496   2.982   7.681 -0.4506 -0.1036 -0.2467
   77SLPC  C212 6998   5.467   2.919   7.877 -0.0502  0.0581  0.3714
   77SLPC  H12R 6999   5.457   2.812   7.896  0.7679 -0.5030 -2.0073
   77SLPC  C213 7000   5.400   3.011   7.944  0.3116 -1.0470 -0.3555
   77SLPC  H13R 7001   5.331   2.979   8.023 -1.6581 -0.3727 -1.7496
   77SLPC  C214 7002   5.409   3.163   7.931  0.1253 -0.1446  0.8290
   77SLPC  H14R 7003   5.453   3.183   7.831  0.6229 -2.8149  0.4179
   77SLPC  H14S 7004   5.465   3.218   8.010 -1.6940  0.2174  1.9061
   77SLPC  C215 7005   5.272   3.235   7.922 -0.2187 -0.7857  0.6301
   77SLPC  H15R 7006   5.191   3.176   7.876 -0.5356  1.0420 -1.2826
   77SLPC  H15S 7007   5.296   3.309   7.843  0.0430 -0.2955  1.1600
   77SLPC  C216 7008   5.235   3.313   8.055 -1.0494 -0.4059  0.5719
   77SLPC  H16R 7009   5.331   3.370   8.066 -0.0312 -1.9282 -0.0904
   77SLPC  H16S 7010   5.228   3.233   8.131 -0.5907 -2.9329 -1.8631
   77SLPC  C217 7011   5.124   3.414   8.047 -0.3251  0.3060  0.7309
   77SLPC  H17R 7012   5.025   3.367   8.025  1.0753 -2.0708 -1.0902
   77SLPC  H17S 7013   5.122   3.484   7.961 -2.8514 -0.9186 -0.3299
   77SLPC  C218 7014   5.109   3.494   8.177 -0.7302 -0.3280  0.2513
   77SLPC  H18R 7015   5.048   3.587   8.173  2.8228  2.2343  0.7991
   77SLPC  H18S 7016   5.203   3.545   8.207 -0.8539  0.2434 -0.3199
   77SLPC  H18T 7017   5.079   3.433   8.265 -0.7145 -1.4742 -0.5151
   77SLPC   C33 7018   5.008   3.117   6.886  0.0826  0.2143  0.0348
   77SLPC   H3X 7019   4.972   3.015   6.863 -2.0879  1.4422 -2.5865
   77SLPC   H3Y 7020   4.917   3.178   6.904  1.5236  1.6602  3.3538
   77SLPC   C34 7021   5.082   3.114   7.022 -0.2924 -0.6241  0.6237
   77SLPC   H4X 7022   5.101   3.222   7.041 -4.1880  0.5949 -1.2769
   77SLPC   H4Y 7023   5.179   3.061   7.014 -0.4203 -0.6561 -1.0027
   77SLPC   C35 7024   4.996   3.075   7.140 -0.2264  0.8053  0.3381
   77SLPC   H5X 7025   5.065   3.063   7.226 -1.1764  0.5828  1.1031
   77SLPC   H5Y 7026   4.948   2.979   7.111 -1.2797  1.4769 -0.2040
   77SLPC   C36 7027   4.879   3.170   7.162 -0.2361  0.6816  0.0061
   77SLPC   H6X 7028   4.792   3.136   7.102  0.6298  0.2537 -1.0305
   77SLPC   H6Y 7029   4.915   3.272   7.136 -0.1889  0.7997  0.5148
   77SLPC   C37 7030   4.834   3.154   7.307  0.7878  1.3849 -0.0600
   77SLPC   H7X 7031   4.902   3.209   7.375 -0.4808 -0.7391  3.1341
   77SLPC   H7Y 7032   4.838   3.051   7.346  1.7701  0.8576 -1.4747
   77SLPC   C38 7033   4.685   3.196   7.319 -0.3513  0.0652  0.1388
   77SLPC   H8X 7034   4.621   3.133   7.253  1.6304 -2.0787  0.1555
   77SLPC   H8Y 7035   4.678   3.304   7.294  0.7024  0.0452 -0.2745
   77SLPC   C39 7036   4.623   3.177   7.460  0.4722 -0.7519  0.2210
   77SLPC   H9X 7037   4.671   3.249   7.529  3.7145 -1.0274 -1.5787
   77SLPC   H9Y 7038   4.639   3.072   7.492  2.9531 -1.6544 -3.3515
   77SLPC  C310 7039   4.470   3.191   7.451 -0.3835 -0.2926  1.0328
   77SLPC  H10X 7040   4.419   3.110   7.395  0.6288  0.0822 -0.4984
   77SLPC  H10Y 7041   4.444   3.288   7.404 -0.4161 -0.1810  1.2776
   77SLPC  C311 7042   4.411   3.208   7.584  0.6323 -0.1431  0.0662
   77SLPC  H11X 7043   4.303   3.229   7.572  0.9547  0.6494 -1.9864
   77SLPC  H11Y 7044   4.450   3.293   7.644 -1.3832  0.3999  0.6847
   77SLPC  C312 7045   4.418   3.071   7.653  0.7316 -0.7678 -0.4107
   77SLPC  H12X 7046   4.526   3.048   7.668  1.0077 -0.2236 -1.4855
   77SLPC  H12Y 7047   4.381   2.986   7.591 -2.0324  0.2615 -0.3053
   77SLPC  C313 7048   4.358   3.069   7.797  0.3457  0.3932 -0.2831
   77SLPC  H13X 7049   4.394   2.975   7.843  0.0124 -0.3793 -1.5336
   77SLPC  H13Y 7050   4.249   3.090   7.785  0.7178  1.9142 -1.3265
   77SLPC  C314 7051   4.391   3.181   7.898 -0.3824  0.4762  0.3798
   77SLPC  H14X 7052   4.395   3.280   7.847 -0.3795 -0.4020 -1.3675
   77SLPC  H14Y 7053   4.489   3.158   7.944 -0.4080 -1.3441 -0.4301
   77SLPC  C315 7054   4.287   3.184   8.009 -0.1314 -0.3289 -0.7214
   77SLPC  H15X 7055   4.290   3.087   8.064 -0.7299 -0.9646 -1.7807
   77SLPC  H15Y 7056   4.186   3.214   7.973  0.1248  0.8692 -0.4902
   77SLPC  C316 7057   4.324   3.287   8.117  0.8890 -0.2660  0.4885
   77SLPC  H16X 7058   4.310   3.388   8.072 -1.0678 -1.1900 -1.1748
   77SLPC  H16Y 7059   4.433   3.268   8.130  0.8644 -1.6394 -0.9419
   77SLPC  C317 7060   4.255   3.277   8.247 -0.3809 -0.2221 -0.6285
   77SLPC  H17X 7061   4.315   3.334   8.321 -2.0625 -0.3579  0.9127
   77SLPC  H17Y 7062   4.256   3.170   8.277  1.1778 -0.0195  0.1445
   77SLPC  C318 7063   4.112   3.332   8.240 -0.0013 -0.3339  0.1178
   77SLPC  H18X 7064   4.052   3.246   8.202  0.6472 -0.2466 -1.1445
   77SLPC  H18Y 7065   4.103   3.421   8.174 -0.1776 -0.8057 -0.5066
   77SLPC  H18Z 7066   4.076   3.362   8.341  1.7880  2.0916  0.1137
   78SLPC     N 7067   1.907   1.197   5.787  0.0191 -0.1389 -0.6861
   78SLPC   C13 7068   1.992   1.322   5.793  0.3479  0.3655 -0.0704
   78SLPC  H13A 7069   2.095   1.289   5.782  0.5788 -0.2312  2.8901
   78SLPC  H13B 7070   1.966   1.380   5.706 -1.4561  0.0170  0.2027
   78SLPC  H13C 7071   1.975   1.380   5.882 -1.7499 -2.6075  1.6548
   78SLPC   C14 7072   1.938   1.117   5.909 -0.3732  0.0319 -0.1338
   78SLPC  H14A 7073   2.045   1.116   5.927 -0.5199  1.1484  0.9323
   78SLPC  H14B 7074   1.900   1.167   5.996 -0.5650  0.8876 -0.6970
   78SLPC  H14C 7075   1.896   1.017   5.908  3.0516 -1.6264  2.0306
   78SLPC   C15 7076   1.931   1.126   5.658 -0.7924 -0.1503  0.1058
   78SLPC  H15A 7077   1.854   1.050   5.654  0.0883 -1.0657  0.2068
   78SLPC  H15B 7078   1.920   1.200   5.581  0.1634  0.5014  0.5785
   78SLPC  H15C 7079   2.027   1.078   5.655 -0.5596  0.2791  0.5097
   78SLPC   C12 7080   1.762   1.229   5.804  0.7288 -0.2274 -0.3112
   78SLPC  H12A 7081   1.707   1.137   5.818  0.6621  0.0753  1.5968
   78SLPC  H12B 7082   1.732   1.276   5.712 -2.6700 -2.3350 -0.4726
   78SLPC   C11 7083   1.718   1.309   5.924  0.8163 -0.7585  0.0096
   78SLPC  H11A 7084   1.614   1.339   5.901  0.8601  1.8494  2.5434
   78SLPC  H11B 7085   1.762   1.411   5.933 -1.3781  0.4465 -2.0169
   78SLPC     P 7086   1.620   1.123   6.068 -0.1698 -0.3883 -0.7921
   78SLPC   O13 7087   1.493   1.145   5.997  0.5664  0.3990  0.3917
   78SLPC   O14 7088   1.685   0.997   6.032 -0.1660 -0.5621 -0.2805
   78SLPC   O12 7089   1.715   1.243   6.049 -0.1306 -0.2923 -0.2174
   78SLPC   O11 7090   1.612   1.115   6.226  0.0983  0.1541  0.0030
   78SLPC    C1 7091   1.715   1.057   6.303  0.1906  0.4554 -0.2555
   78SLPC    HA 7092   1.744   0.951   6.284 -0.2909  0.0610  1.1223
   78SLPC    HB 7093   1.808   1.117   6.304  1.5143 -1.5065  0.4957
   78SLPC    C2 7094   1.669   1.041   6.449 -0.4972 -0.1638 -0.3104
   78SLPC    HS 7095   1.572   0.987   6.447  0.9293 -2.9102 -1.7086
   78SLPC   O21 7096   1.668   1.170   6.513 -0.3867 -0.0349  0.2728
   78SLPC   C21 7097   1.555   1.223   6.546 -0.1285 -0.5280  0.3710
   78SLPC   O22 7098   1.437   1.187   6.531 -0.0135 -0.3053 -0.2882
   78SLPC   C22 7099   1.590   1.343   6.629  0.4149 -0.0117  0.4493
   78SLPC   H2R 7100   1.695   1.370   6.604  0.4414 -0.2558  0.2951
   78SLPC   H2S 7101   1.538   1.433   6.589  1.7484 -0.0814 -1.6265
   78SLPC    C3 7102   1.778   0.956   6.522 -0.1967  0.0438  0.8520
   78SLPC    HX 7103   1.877   1.002   6.502  0.1901 -0.6774  1.0577
   78SLPC    HY 7104   1.790   0.850   6.492  1.4272 -0.3211  2.5373
   78SLPC   O31 7105   1.757   0.967   6.662  0.6225 -0.1830 -0.0586
   78SLPC   C31 7106   1.654   0.897   6.719 -0.1471 -0.2835 -0.3104
   78SLPC   O32 7107   1.563   0.850   6.653  0.4519 -0.0789  0.1164
   78SLPC   C32 7108   1.661   0.925   6.873 -0.1976 -0.6393  0.0594
   78SLPC   H2X 7109   1.685   1.032   6.888 -0.1282 -0.8247  1.3453
   78SLPC   H2Y 7110   1.742   0.862   6.916  2.7428  2.5654 -0.3484
   78SLPC   C23 7111   1.571   1.327   6.778 -0.7035  0.3617  0.4659
   78SLPC   H3R 7112   1.633   1.237   6.802 -0.0115  0.5665 -0.4854
   78SLPC   H3S 7113   1.467   1.317   6.814 -0.7546  0.1114  0.2549
   78SLPC   C24 7114   1.627   1.447   6.850 -0.2439 -0.4699  0.1355
   78SLPC   H4R 7115   1.569   1.538   6.823 -1.5837 -0.7869  1.7912
   78SLPC   H4S 7116   1.731   1.466   6.817  0.5549 -1.0510  2.1848
   78SLPC   C25 7117   1.617   1.429   6.999  0.3682  0.0724 -0.0182
   78SLPC   H5R 7118   1.682   1.341   7.017 -0.3082  0.1142  3.2015
   78SLPC   H5S 7119   1.513   1.398   7.023  0.6045 -0.6435  0.1016
   78SLPC   C26 7120   1.654   1.540   7.097  0.4711  0.4501 -0.8349
   78SLPC   H6R 7121   1.585   1.625   7.110  1.7471  1.5699 -1.1260
   78SLPC   H6S 7122   1.755   1.575   7.065  0.4654  1.9736  0.7196
   78SLPC   C27 7123   1.676   1.471   7.234  0.2363 -0.0634 -0.4844
   78SLPC   H7R 7124   1.772   1.418   7.219  1.1937  1.5630 -0.3914
   78SLPC   H7S 7125   1.598   1.403   7.275  0.2910  0.0529 -0.1801
   78SLPC   C28 7126   1.710   1.567   7.349  0.1216 -0.7202  0.3122
   78SLPC   H8R 7127   1.783   1.641   7.309 -0.0938 -1.0872 -0.7939
   78SLPC   H8S 7128   1.754   1.518   7.438  2.0023 -1.1663 -0.8075
   78SLPC   C29 7129   1.596   1.655   7.402  0.1481  0.5570  0.3646
   78SLPC   H9R 7130   1.546   1.718   7.327 -1.4357  1.4916  2.1449
   78SLPC  C210 7131   1.546   1.648   7.524  0.3308 -0.7103 -0.4668
   78SLPC  H10R 7132   1.474   1.729   7.546  1.2677  0.5310 -1.7808
   78SLPC  C211 7133   1.592   1.560   7.639 -1.0416  0.0969  0.5097
   78SLPC  H11R 7134   1.603   1.457   7.600 -1.4824  0.6674 -1.2136
   78SLPC  H11S 7135   1.510   1.561   7.715 -1.2579 -1.5560  0.3230
   78SLPC  C212 7136   1.722   1.607   7.696  0.3258  0.0426  0.1580
   78SLPC  H12R 7137   1.747   1.711   7.671  3.2016 -0.2588  1.3182
   78SLPC  C213 7138   1.799   1.531   7.781  0.6564 -0.4534 -0.4858
   78SLPC  H13R 7139   1.894   1.572   7.820 -0.5502  1.7931  0.2311
   78SLPC  C214 7140   1.767   1.392   7.833 -0.6570 -0.0319 -0.2950
   78SLPC  H14R 7141   1.863   1.336   7.838  0.5716  1.9508 -0.7276
   78SLPC  H14S 7142   1.716   1.339   7.749 -1.2386 -0.7759  0.5112
   78SLPC  C215 7143   1.688   1.378   7.965  0.3068  0.6946 -0.1591
   78SLPC  H15R 7144   1.653   1.275   7.986 -1.1675  0.9811 -1.0587
   78SLPC  H15S 7145   1.592   1.431   7.945  1.0715  2.2752  0.1809
   78SLPC  C216 7146   1.756   1.441   8.085  0.1950 -0.5381  0.1496
   78SLPC  H16R 7147   1.695   1.433   8.178  1.7330  3.3562  1.7302
   78SLPC  H16S 7148   1.784   1.546   8.064  0.8620 -0.8409 -0.5155
   78SLPC  C217 7149   1.895   1.379   8.118  0.2157 -0.8847  0.2036
   78SLPC  H17R 7150   1.958   1.400   8.029 -0.6993  1.3581  0.0228
   78SLPC  H17S 7151   1.884   1.268   8.127  0.3689 -0.7460  2.7188
   78SLPC  C218 7152   1.951   1.447   8.239 -0.3983  0.0581 -0.7538
   78SLPC  H18R 7153   1.961   1.553   8.208  1.0756  0.5145  1.0589
   78SLPC  H18S 7154   2.053   1.418   8.272 -0.1616  2.2151  0.5596
   78SLPC  H18T 7155   1.883   1.440   8.327  0.3321  1.2020 -0.0777
   78SLPC   C33 7156   1.531   0.887   6.939  0.2212 -0.4594  0.2453
   78SLPC   H3X 7157   1.534   0.776   6.944  2.5783 -0.5861 -1.9953
   78SLPC   H3Y 7158   1.450   0.919   6.871  1.2572 -1.9564 -1.7865
   78SLPC   C34 7159   1.500   0.937   7.085 -0.7780 -0.4074  0.3621
   78SLPC   H4X 7160   1.596   0.923   7.140  0.4703  1.9235 -1.0469
   78SLPC   H4Y 7161   1.417   0.878   7.129  0.8037 -0.1476  4.1219
   78SLPC   C35 7162   1.446   1.083   7.083 -0.2320 -0.1950 -0.0464
   78SLPC   H5X 7163   1.377   1.105   6.998 -0.6694  0.4229  0.4603
   78SLPC   H5Y 7164   1.535   1.146   7.062  1.4392 -1.7066  2.0531
   78SLPC   C36 7165   1.373   1.136   7.208 -0.3705  0.0702  1.0082
   78SLPC   H6X 7166   1.293   1.061   7.226  0.2782 -1.7486 -2.6567
   78SLPC   H6Y 7167   1.331   1.237   7.186  0.4790  0.1482 -0.4469
   78SLPC   C37 7168   1.452   1.134   7.337  0.2614  0.1362  0.4437
   78SLPC   H7X 7169   1.557   1.166   7.323  0.7195 -0.9284  1.2337
   78SLPC   H7Y 7170   1.461   1.029   7.372 -0.6447  0.2137  0.9411
   78SLPC   C38 7171   1.380   1.211   7.451  0.4348  0.8272 -0.3793
   78SLPC   H8X 7172   1.277   1.170   7.464  1.7821 -2.9457 -0.3790
   78SLPC   H8Y 7173   1.379   1.322   7.444  0.1329  1.0742  2.3431
   78SLPC   C39 7174   1.441   1.169   7.583  0.5529 -0.2782 -0.4394
   78SLPC   H9X 7175   1.528   1.234   7.609  0.2527 -0.2096  0.4240
   78SLPC   H9Y 7176   1.485   1.067   7.591 -0.2237 -0.5006  1.6733
   78SLPC  C310 7177   1.352   1.179   7.713  0.7285  0.2541  0.5062
   78SLPC  H10X 7178   1.264   1.117   7.684  0.8670 -0.3063  1.2725
   78SLPC  H10Y 7179   1.313   1.281   7.733  1.4572  0.9871 -1.5103
   78SLPC  C311 7180   1.425   1.124   7.838 -0.0900  0.5510  1.0307
   78SLPC  H11X 7181   1.519   1.180   7.853  0.3637 -0.8693  4.4486
   78SLPC  H11Y 7182   1.457   1.018   7.831  0.4112  0.8070 -1.3084
   78SLPC  C312 7183   1.345   1.131   7.966  0.1919  0.0680 -0.2242
   78SLPC  H12X 7184   1.237   1.109   7.956  0.1811  0.7459 -1.9386
   78SLPC  H12Y 7185   1.349   1.236   8.001  2.2669 -0.2727  0.7653
   78SLPC  C313 7186   1.389   1.051   8.092 -0.0236 -0.5100 -0.1203
   78SLPC  H13X 7187   1.496   1.074   8.114 -0.1522  0.3175 -0.3464
   78SLPC  H13Y 7188   1.384   0.941   8.079  2.2237 -0.8241  1.0508
   78SLPC  C314 7189   1.309   1.095   8.217 -0.1539  0.1178 -0.2653
   78SLPC  H14X 7190   1.204   1.061   8.205  0.0465 -0.5812 -0.0778
   78SLPC  H14Y 7191   1.302   1.205   8.208 -2.8472 -0.0400 -1.0887
   78SLPC  C315 7192   1.372   1.069   8.354  0.5991 -0.3579 -0.0347
   78SLPC  H15X 7193   1.385   0.962   8.382  1.2540 -0.1360  0.5568
   78SLPC  H15Y 7194   1.297   1.107   8.427 -0.2001 -2.4531  0.3084
   78SLPC  C316 7195   1.495   1.153   8.373 -0.1301  0.0153 -0.0274
   78SLPC  H16X 7196   1.473   1.259   8.347  0.3182  0.4246  1.1524
   78SLPC  H16Y 7197   1.575   1.112   8.308 -1.2627 -1.3723 -0.5821
   78SLPC  C317 7198   1.558   1.162   8.507  0.4137 -0.4381  0.0507
   78SLPC  H17X 7199   1.567   1.059   8.549 -0.0177 -0.3235  0.4302
   78SLPC  H17Y 7200   1.485   1.218   8.569  0.8077  0.4456 -0.2662
   78SLPC  C318 7201   1.699   1.230   8.491 -0.0179 -0.2831  0.2322
   78SLPC  H18X 7202   1.763   1.231   8.582  2.3048  0.8142 -1.3162
   78SLPC  H18Y 7203   1.683   1.336   8.464  3.5359  0.7015  1.3906
   78SLPC  H18Z 7204   1.760   1.180   8.413  0.5777 -0.6209  0.8972
   79SLPC     N 7205   5.094   5.697   6.350 -0.3626  0.4781 -0.2827
   79SLPC   C13 7206   5.219   5.636   6.286 -0.3691  0.6293  0.0948
   79SLPC  H13A 7207   5.249   5.685   6.195 -1.3747  1.2928  0.1088
   79SLPC  H13B 7208   5.303   5.627   6.354 -1.9556  2.6161  2.4786
   79SLPC  H13C 7209   5.197   5.531   6.268  1.4945 -0.2429  2.3069
   79SLPC   C14 7210   4.983   5.717   6.246  0.0478  0.5593  0.3469
   79SLPC  H14A 7211   4.971   5.625   6.191  1.8301  0.2846  0.3460
   79SLPC  H14B 7212   4.890   5.738   6.297 -0.5640 -0.0811 -0.4769
   79SLPC  H14C 7213   5.016   5.783   6.167  0.7922  0.0193  0.1881
   79SLPC   C15 7214   5.129   5.837   6.394  0.1099 -0.2148  0.2050
   79SLPC  H15A 7215   5.216   5.829   6.457  0.2835 -1.2344 -0.1476
   79SLPC  H15B 7216   5.165   5.903   6.316  0.3119 -0.8770 -0.2809
   79SLPC  H15C 7217   5.048   5.887   6.445  0.0993  0.7841 -0.7608
   79SLPC   C12 7218   5.048   5.603   6.461  0.0571  0.3590  0.1512
   79SLPC  H12A 7219   5.142   5.575   6.506  0.9582  0.5519 -1.5022
   79SLPC  H12B 7220   5.003   5.519   6.410  0.1613 -0.1914  0.9557
   79SLPC   C11 7221   4.946   5.656   6.567 -0.2790  0.5256 -0.3600
   79SLPC  H11A 7222   4.986   5.755   6.598  1.8036  0.1804 -1.7480
   79SLPC  H11B 7223   4.938   5.588   6.655 -3.0683 -0.5226 -1.3073
   79SLPC     P 7224   4.721   5.547   6.489  0.2478  0.4322 -0.0038
   79SLPC   O13 7225   4.596   5.591   6.425 -0.5122  0.3885 -0.0400
   79SLPC   O14 7226   4.791   5.434   6.418  1.1985  0.1966  0.6935
   79SLPC   O12 7227   4.823   5.667   6.504  0.3190  0.0577  0.5518
   79SLPC   O11 7228   4.681   5.506   6.628  0.5264  0.8655 -0.3389
   79SLPC    C1 7229   4.567   5.569   6.693  0.1373  0.0488  0.3044
   79SLPC    HA 7230   4.536   5.667   6.651 -0.7390 -0.6155 -0.6505
   79SLPC    HB 7231   4.474   5.508   6.684 -0.8229  1.6150 -0.8102
   79SLPC    C2 7232   4.597   5.592   6.846  0.3394  0.5670 -0.5264
   79SLPC    HS 7233   4.508   5.628   6.901  1.1208 -0.7489  1.7103
   79SLPC   O21 7234   4.690   5.695   6.862  0.0331  0.3660 -0.2616
   79SLPC   C21 7235   4.640   5.820   6.847 -0.4788 -0.4243 -0.3326
   79SLPC   O22 7236   4.525   5.847   6.817  0.0512  0.0370  0.9048
   79SLPC   C22 7237   4.760   5.927   6.854 -0.6553  0.0455  0.0145
   79SLPC   H2R 7238   4.840   5.901   6.928  0.6059  0.2450 -1.2297
   79SLPC   H2S 7239   4.803   5.930   6.752 -0.5454  0.9660  0.0814
   79SLPC    C3 7240   4.660   5.467   6.926  0.5927  0.8261  0.3606
   79SLPC    HX 7241   4.754   5.432   6.877  0.6323 -0.5477  1.3665
   79SLPC    HY 7242   4.588   5.383   6.915 -1.3547  2.3491  0.9550
   79SLPC   O31 7243   4.681   5.492   7.068 -0.3259  0.4338  0.2756
   79SLPC   C31 7244   4.573   5.523   7.139 -0.4929 -0.0815  0.0540
   79SLPC   O32 7245   4.461   5.481   7.124 -0.2459 -0.3528 -0.0489
   79SLPC   C32 7246   4.615   5.628   7.243  0.1940  0.7872 -0.1508
   79SLPC   H2X 7247   4.624   5.731   7.201 -1.0849  1.7870  1.8521
   79SLPC   H2Y 7248   4.714   5.592   7.279 -0.3330  1.1890  1.8435
   79SLPC   C23 7249   4.707   6.068   6.886  0.2015 -0.2531  0.3096
   79SLPC   H3R 7250   4.600   6.082   6.858  0.0881  0.1548  0.9125
   79SLPC   H3S 7251   4.755   6.149   6.826 -1.4106  0.6267  0.1409
   79SLPC   C24 7252   4.712   6.101   7.039 -0.0990  0.0155  0.4690
   79SLPC   H4R 7253   4.656   6.019   7.088 -1.5487  0.8216  0.2331
   79SLPC   H4S 7254   4.664   6.201   7.047  0.4523  0.6183 -2.5215
   79SLPC   C25 7255   4.853   6.100   7.101  0.0478 -0.1907 -0.4431
   79SLPC   H5R 7256   4.915   6.175   7.046 -0.5083  2.2542  2.0462
   79SLPC   H5S 7257   4.885   5.995   7.120  0.1992  0.2273  1.8843
   79SLPC   C26 7258   4.855   6.162   7.237  0.5852  0.0634 -0.1235
   79SLPC   H6R 7259   4.838   6.271   7.229  2.3133  0.2834 -1.1133
   79SLPC   H6S 7260   4.958   6.166   7.278  0.9931 -2.5271 -0.7342
   79SLPC   C27 7261   4.766   6.097   7.343 -0.0950 -0.7311 -0.4588
   79SLPC   H7R 7262   4.790   5.989   7.346  0.8952 -0.5590 -1.4468
   79SLPC   H7S 7263   4.664   6.120   7.307 -0.4744  0.1907  1.0814
   79SLPC   C28 7264   4.774   6.160   7.481 -0.0813  0.0833 -0.1328
   79SLPC   H8R 7265   4.686   6.128   7.542  0.1222  0.4489  0.3579
   79SLPC   H8S 7266   4.758   6.269   7.468  0.9859  0.0498 -1.9407
   79SLPC   C29 7267   4.900   6.132   7.555 -0.1560 -0.8853 -0.3403
   79SLPC   H9R 7268   4.961   6.050   7.514  0.5832 -1.1455  1.2002
   79SLPC  C210 7269   4.958   6.204   7.651 -0.2824 -0.7549 -0.0009
   79SLPC  H10R 7270   5.051   6.163   7.695 -0.9902 -1.0947  1.2351
   79SLPC  C211 7271   4.912   6.332   7.717 -0.1241 -0.4824  0.4424
   79SLPC  H11R 7272   4.859   6.401   7.648 -1.8895 -1.6912  0.5070
   79SLPC  H11S 7273   4.997   6.396   7.748 -1.1474  2.0152 -1.5425
   79SLPC  C212 7274   4.825   6.299   7.840 -0.1638 -0.3703  0.5301
   79SLPC  H12R 7275   4.729   6.254   7.809  0.4534 -1.5165  0.2032
   79SLPC  C213 7276   4.862   6.315   7.969  0.6477 -0.0371  0.1077
   79SLPC  H13R 7277   4.787   6.281   8.042 -0.9683  0.6036 -1.1904
   79SLPC  C214 7278   4.995   6.361   8.021  0.1875 -0.0050  0.1923
   79SLPC  H14R 7279   5.065   6.404   7.946  2.2600 -0.6520  1.6386
   79SLPC  H14S 7280   5.056   6.270   8.042  1.0138  0.7818  1.3048
   79SLPC  C215 7281   4.992   6.472   8.127  0.6028 -0.0689  0.1685
   79SLPC  H15R 7282   4.924   6.552   8.090  1.4946  0.3888 -0.5231
   79SLPC  H15S 7283   5.093   6.516   8.140  0.2697  0.2805  1.7320
   79SLPC  C216 7284   4.973   6.425   8.273  0.0107  0.6031  0.1813
   79SLPC  H16R 7285   5.057   6.359   8.305 -1.5848 -2.6348 -1.7763
   79SLPC  H16S 7286   4.882   6.364   8.291  0.8317 -0.4430  0.9176
   79SLPC  C217 7287   4.970   6.539   8.371  0.4104  0.4970  0.2022
   79SLPC  H17R 7288   5.043   6.618   8.342  0.6661 -0.5242 -2.1983
   79SLPC  H17S 7289   4.998   6.498   8.470  0.2336 -0.1853 -0.0248
   79SLPC  C218 7290   4.830   6.599   8.374 -0.4848 -0.3569  0.1676
   79SLPC  H18R 7291   4.820   6.702   8.416 -1.1780 -0.8483  1.2568
   79SLPC  H18S 7292   4.770   6.528   8.435 -1.4389 -0.1495 -0.5197
   79SLPC  H18T 7293   4.779   6.609   8.276 -1.0018  2.9117  0.6622
   79SLPC   C33 7294   4.519   5.636   7.361  0.0528 -0.1387 -0.2112
   79SLPC   H3X 7295   4.474   5.535   7.375 -1.6031  0.2701 -2.1175
   79SLPC   H3Y 7296   4.439   5.709   7.341  1.2253  1.6662  1.3534
   79SLPC   C34 7297   4.570   5.683   7.501  0.1626 -0.1577  0.5633
   79SLPC   H4X 7298   4.623   5.779   7.479 -2.2695  1.0986 -0.1911
   79SLPC   H4Y 7299   4.642   5.610   7.543 -0.8429 -1.1361  0.6332
   79SLPC   C35 7300   4.458   5.712   7.608 -0.3931  0.1602  0.0299
   79SLPC   H5X 7301   4.388   5.627   7.623 -1.0079  0.9571  2.0578
   79SLPC   H5Y 7302   4.398   5.799   7.573 -1.0494 -1.0904 -2.1140
   79SLPC   C36 7303   4.525   5.742   7.743  0.2320  0.1589 -0.3558
   79SLPC   H6X 7304   4.454   5.798   7.808 -0.6757  1.6553 -2.5303
   79SLPC   H6Y 7305   4.602   5.819   7.716  1.0019 -1.1052 -1.9312
   79SLPC   C37 7306   4.581   5.620   7.824 -0.4015  0.3885 -0.5923
   79SLPC   H7X 7307   4.646   5.548   7.770 -0.7195 -0.8737  0.6625
   79SLPC   H7Y 7308   4.497   5.555   7.854  1.0233 -0.8185  0.9350
   79SLPC   C38 7309   4.643   5.657   7.961 -0.9719 -0.2845  0.7343
   79SLPC   H8X 7310   4.585   5.726   8.025  0.6069  0.7613  1.1002
   79SLPC   H8Y 7311   4.731   5.722   7.941 -0.6763 -0.5945  1.0139
   79SLPC   C39 7312   4.683   5.532   8.033 -0.0093 -0.0715 -0.7297
   79SLPC   H9X 7313   4.770   5.552   8.099 -1.7453  3.5791  0.7350
   79SLPC   H9Y 7314   4.717   5.446   7.971  2.0646 -0.4346  0.8012
   79SLPC  C310 7315   4.559   5.474   8.102  0.4607 -0.4500 -0.1882
   79SLPC  H10X 7316   4.582   5.381   8.157  0.2621 -1.2091 -1.3437
   79SLPC  H10Y 7317   4.485   5.447   8.023  0.2275  2.8501 -1.2453
   79SLPC  C311 7318   4.499   5.572   8.206  0.6775 -0.1277  0.0259
   79SLPC  H11X 7319   4.430   5.638   8.149 -1.4376 -0.5189  1.9384
   79SLPC  H11Y 7320   4.568   5.632   8.269  0.3678 -0.1014  0.3503
   79SLPC  C312 7321   4.392   5.497   8.296 -0.5032 -0.2045 -0.1264
   79SLPC  H12X 7322   4.444   5.405   8.331  0.5095  1.0314  1.7673
   79SLPC  H12Y 7323   4.309   5.472   8.226  0.7741 -0.5022 -1.6071
   79SLPC  C313 7324   4.344   5.585   8.418 -0.1229  0.1960  0.3430
   79SLPC  H13X 7325   4.426   5.631   8.477 -0.8433  0.5862  1.0655
   79SLPC  H13Y 7326   4.294   5.519   8.492 -0.3207 -0.7305 -0.5992
   79SLPC  C314 7327   4.247   5.697   8.369  0.2167 -0.3763 -0.2923
   79SLPC  H14X 7328   4.188   5.657   8.284  2.0607 -1.8308 -0.9770
   79SLPC  H14Y 7329   4.306   5.776   8.319  1.2622 -2.1249 -1.9933
   79SLPC  C315 7330   4.157   5.752   8.482 -0.5468 -0.5698  0.9992
   79SLPC  H15X 7331   4.095   5.667   8.517  1.5562 -3.6712 -2.0826
   79SLPC  H15Y 7332   4.089   5.832   8.446  0.3940  0.3787  1.2783
   79SLPC  C316 7333   4.235   5.831   8.586  0.3101 -0.1328 -0.7884
   79SLPC  H16X 7334   4.318   5.876   8.527 -0.5984 -0.9469 -2.8132
   79SLPC  H16Y 7335   4.283   5.765   8.660 -1.2923 -1.3356 -0.7746
   79SLPC  C317 7336   4.158   5.944   8.659 -0.3504  0.6069  0.1406
   79SLPC  H17X 7337   4.236   5.991   8.722  0.5914 -0.2247 -0.3837
   79SLPC  H17Y 7338   4.082   5.906   8.731  0.6331  1.3053  1.6021
   79SLPC  C318 7339   4.097   6.053   8.567  0.3987 -0.4844  0.0474
   79SLPC  H18X 7340   4.070   6.144   8.625  2.6106  1.1793 -1.3399
   79SLPC  H18Y 7341   4.007   6.020   8.512  0.4011 -0.1841 -0.1383
   79SLPC  H18Z 7342   4.172   6.080   8.489 -0.4549 -0.1882 -0.6751
   80SLPC     N 7343   0.387   3.476   6.265  0.1388 -0.3427 -0.7601
   80SLPC   C13 7344   0.385   3.331   6.260  0.3091  0.1299 -0.4466
   80SLPC  H13A 7345   0.482   3.282   6.252 -1.0989 -2.6202 -2.5505
   80SLPC  H13B 7346   0.324   3.296   6.342 -1.1149  0.5852 -1.2830
   80SLPC  H13C 7347   0.328   3.296   6.175 -0.2429  2.1784 -0.9659
   80SLPC   C14 7348   0.446   3.532   6.141  0.0743  0.3469  0.1519
   80SLPC  H14A 7349   0.466   3.638   6.147  0.2561  0.2753  0.9040
   80SLPC  H14B 7350   0.544   3.489   6.124  0.1661  0.5831  0.0852
   80SLPC  H14C 7351   0.379   3.514   6.059 -0.7853 -0.7390  1.0570
   80SLPC   C15 7352   0.468   3.519   6.387 -0.0920 -0.2804  0.2649
   80SLPC  H15A 7353   0.432   3.487   6.484  1.3829 -1.9011  0.3313
   80SLPC  H15B 7354   0.564   3.471   6.374 -0.0567 -0.1360 -0.0169
   80SLPC  H15C 7355   0.480   3.626   6.384 -2.8848  0.0810 -2.0553
   80SLPC   C12 7356   0.245   3.541   6.284  0.5271  0.0325  0.1554
   80SLPC  H12A 7357   0.263   3.645   6.307  0.8179  0.1593 -0.6247
   80SLPC  H12B 7358   0.206   3.497   6.375  1.5646 -2.2351 -0.4380
   80SLPC   C11 7359   0.140   3.535   6.172 -0.2032 -0.0697  0.2974
   80SLPC  H11A 7360   0.188   3.564   6.076  1.2610  2.8055  1.7485
   80SLPC  H11B 7361   0.064   3.615   6.184 -1.5254 -0.7108 -2.8961
   80SLPC     P 7362  -0.029   3.355   6.252 -0.0302 -0.2794 -0.1594
   80SLPC   O13 7363  -0.155   3.392   6.188 -0.1036  1.0668  0.2246
   80SLPC   O14 7364  -0.006   3.210   6.276  0.1614 -0.1871  1.1551
   80SLPC   O12 7365   0.083   3.406   6.159 -0.0033 -0.3054 -0.3932
   80SLPC   O11 7366  -0.010   3.434   6.390  0.1157  0.0662 -0.2599
   80SLPC    C1 7367  -0.099   3.543   6.422 -0.0832  0.1764  0.3325
   80SLPC    HA 7368  -0.104   3.615   6.337  0.4322 -1.6179 -1.2939
   80SLPC    HB 7369  -0.205   3.520   6.444 -0.5384  3.4497  2.1011
   80SLPC    C2 7370  -0.067   3.618   6.544 -0.4227  0.4671  0.8202
   80SLPC    HS 7371   0.043   3.631   6.533 -0.3540 -1.4991 -1.5794
   80SLPC   O21 7372  -0.088   3.534   6.661 -0.3457  0.5895 -0.0565
   80SLPC   C21 7373  -0.015   3.572   6.766 -0.7645 -0.3649  0.5814
   80SLPC   O22 7374   0.059   3.665   6.764 -0.2067 -0.2025  0.1111
   80SLPC   C22 7375  -0.049   3.489   6.881 -0.0450  0.0682  0.3373
   80SLPC   H2R 7376  -0.118   3.556   6.935 -1.1446  1.1593 -2.2812
   80SLPC   H2S 7377  -0.116   3.404   6.855  0.6649  0.4185 -3.1488
   80SLPC    C3 7378  -0.137   3.760   6.563 -0.3551 -0.5265  0.7549
   80SLPC    HX 7379  -0.115   3.818   6.471 -2.1019 -0.6759  0.2178
   80SLPC    HY 7380  -0.096   3.813   6.652 -3.5843 -0.7493  2.5107
   80SLPC   O31 7381  -0.278   3.746   6.567 -0.3457 -0.1332 -0.2698
   80SLPC   C31 7382  -0.328   3.715   6.688 -0.1458  0.0065 -0.6964
   80SLPC   O32 7383  -0.268   3.725   6.795  0.2256  0.3514 -0.1019
   80SLPC   C32 7384  -0.464   3.645   6.676 -0.2076 -0.8405 -0.2527
   80SLPC   H2X 7385  -0.453   3.555   6.612  0.8882 -0.7006 -0.2843
   80SLPC   H2Y 7386  -0.527   3.714   6.616 -1.5470 -0.7798  1.1567
   80SLPC   C23 7387   0.080   3.448   6.953  0.0400  0.0675 -0.1111
   80SLPC   H3R 7388   0.143   3.534   6.983 -0.2315  0.3539 -0.3518
   80SLPC   H3S 7389   0.139   3.377   6.891  0.3685  0.9317 -0.8044
   80SLPC   C24 7390   0.044   3.401   7.096  0.5207  0.2610 -0.5348
   80SLPC   H4R 7391  -0.047   3.338   7.081  0.6861  0.4549 -2.6846
   80SLPC   H4S 7392   0.014   3.491   7.155 -0.2820  1.4475 -2.6236
   80SLPC   C25 7393   0.158   3.306   7.154  0.0149  0.3408  0.6522
   80SLPC   H5R 7394   0.249   3.371   7.153  0.0454  0.3157 -1.3692
   80SLPC   H5S 7395   0.160   3.231   7.073 -3.4300  1.0684 -0.2756
   80SLPC   C26 7396   0.133   3.246   7.289 -0.1159  0.2834  0.9385
   80SLPC   H6R 7397   0.219   3.182   7.320 -0.3138  0.4415  1.8504
   80SLPC   H6S 7398   0.052   3.170   7.280  0.2592 -0.0599  0.4363
   80SLPC   C27 7399   0.104   3.348   7.398  0.2236  0.0169 -0.2335
   80SLPC   H7R 7400   0.010   3.405   7.382  0.5193  0.4375 -0.4822
   80SLPC   H7S 7401   0.186   3.423   7.406 -1.8345  2.3277  0.2021
   80SLPC   C28 7402   0.095   3.292   7.539  0.2979  0.7378  0.0367
   80SLPC   H8R 7403   0.079   3.371   7.615 -1.0057  0.9358 -0.4114
   80SLPC   H8S 7404   0.188   3.236   7.560  1.0184  0.7928 -2.5822
   80SLPC   C29 7405  -0.024   3.198   7.551 -0.1576  0.7179  0.2839
   80SLPC   H9R 7406  -0.086   3.175   7.463  0.3696  0.8226 -0.1125
   80SLPC  C210 7407  -0.040   3.128   7.659  0.3678  0.5891  0.4156
   80SLPC  H10R 7408  -0.124   3.058   7.669  1.3654 -0.7734 -0.4106
   80SLPC  C211 7409   0.051   3.131   7.778 -0.1041  0.3742 -0.1883
   80SLPC  H11R 7410   0.152   3.148   7.736  0.2161  0.3693  0.5582
   80SLPC  H11S 7411   0.050   3.035   7.835  1.7453  1.9475  2.8043
   80SLPC  C212 7412   0.034   3.235   7.881 -0.2237 -0.4047 -0.0768
   80SLPC  H12R 7413   0.102   3.319   7.859 -1.6498  0.6029 -0.7991
   80SLPC  C213 7414  -0.056   3.235   7.986 -0.4856 -0.0256  0.3219
   80SLPC  H13R 7415  -0.070   3.331   8.038  1.2381  0.7834 -0.5949
   80SLPC  C214 7416  -0.153   3.129   8.016  0.0035  0.2070 -0.2775
   80SLPC  H14R 7417  -0.120   3.035   7.967 -0.8439  0.5807 -1.6296
   80SLPC  H14S 7418  -0.253   3.138   7.968 -0.4992 -1.6597  0.3215
   80SLPC  C215 7419  -0.175   3.092   8.168 -0.4901 -0.1898  0.6314
   80SLPC  H15R 7420  -0.239   3.001   8.172  0.4467 -1.0972 -2.2954
   80SLPC  H15S 7421  -0.226   3.174   8.222 -2.9427  0.0652 -1.8479
   80SLPC  C216 7422  -0.042   3.063   8.239  0.8660 -0.6056 -0.3870
   80SLPC  H16R 7423   0.020   3.154   8.231  2.0177 -1.4429 -1.3519
   80SLPC  H16S 7424   0.012   2.981   8.187  1.4561  0.1716 -0.9994
   80SLPC  C217 7425  -0.057   3.041   8.388  0.4922  0.4706 -0.9523
   80SLPC  H17R 7426  -0.099   2.940   8.405  4.6509 -1.2376  0.3925
   80SLPC  H17S 7427  -0.102   3.124   8.445  0.6375  0.9297 -1.4948
   80SLPC  C218 7428   0.087   3.025   8.446 -0.2479 -0.0110 -0.3704
   80SLPC  H18R 7429   0.150   2.964   8.378  0.3180 -1.1447  1.1195
   80SLPC  H18S 7430   0.089   2.979   8.548  2.9964 -0.4933 -0.5519
   80SLPC  H18T 7431   0.145   3.119   8.450  0.9145 -0.4819 -3.3314
   80SLPC   C33 7432  -0.524   3.600   6.809 -0.2664  0.3867 -0.0504
   80SLPC   H3X 7433  -0.443   3.562   6.875 -3.1127 -1.5663  2.6279
   80SLPC   H3Y 7434  -0.594   3.516   6.792 -1.1412  1.5944 -3.0454
   80SLPC   C34 7435  -0.596   3.712   6.887  0.5292  0.4831 -0.2236
   80SLPC   H4X 7436  -0.693   3.735   6.838  0.6997 -0.6877 -1.1700
   80SLPC   H4Y 7437  -0.530   3.801   6.881 -0.5513  1.4536  1.5244
   80SLPC   C35 7438  -0.614   3.674   7.032 -0.6134  0.0929  0.6321
   80SLPC   H5X 7439  -0.524   3.637   7.086 -1.7277 -0.1948  2.3695
   80SLPC   H5Y 7440  -0.683   3.586   7.033 -0.8774  0.2781  2.6051
   80SLPC   C36 7441  -0.678   3.782   7.114  0.1523 -0.1673 -0.8209
   80SLPC   H6X 7442  -0.783   3.802   7.084  0.2279  0.2327 -0.8235
   80SLPC   H6Y 7443  -0.639   3.886   7.105 -0.3043  0.0756  0.0197
   80SLPC   C37 7444  -0.684   3.738   7.265  0.3358  0.0574 -0.9220
   80SLPC   H7X 7445  -0.595   3.683   7.300  0.0425  0.7961  1.0976
   80SLPC   H7Y 7446  -0.774   3.674   7.278 -0.9610  1.2311 -3.2832
   80SLPC   C38 7447  -0.711   3.867   7.351  0.5755 -0.0496  0.2693
   80SLPC   H8X 7448  -0.804   3.915   7.315  0.9110  0.0046 -0.5535
   80SLPC   H8Y 7449  -0.630   3.943   7.347 -0.3027  0.9822  1.2519
   80SLPC   C39 7450  -0.739   3.850   7.502 -0.3139  0.1137  0.0834
   80SLPC   H9X 7451  -0.833   3.790   7.503 -0.8966  1.0082  1.1693
   80SLPC   H9Y 7452  -0.759   3.943   7.560  1.4974  1.5980 -1.5641
   80SLPC  C310 7453  -0.622   3.777   7.568  0.8464 -0.2911 -0.0547
   80SLPC  H10X 7454  -0.544   3.851   7.594  0.8921 -0.1463 -0.5936
   80SLPC  H10Y 7455  -0.570   3.705   7.501  4.1088  1.6519  0.1748
   80SLPC  C311 7456  -0.662   3.711   7.701  0.2521  0.5941  0.0458
   80SLPC  H11X 7457  -0.748   3.640   7.695  1.3519 -1.1631  2.9309
   80SLPC  H11Y 7458  -0.693   3.798   7.763  1.6441 -0.1054  1.8064
   80SLPC  C312 7459  -0.548   3.640   7.761 -0.7443  0.3123 -0.5397
   80SLPC  H12X 7460  -0.459   3.704   7.780 -0.9817  0.6641 -0.6052
   80SLPC  H12Y 7461  -0.511   3.565   7.688  1.9579  1.2142 -0.2428
   80SLPC  C313 7462  -0.585   3.560   7.891 -0.4157  0.3374 -0.5388
   80SLPC  H13X 7463  -0.496   3.498   7.916 -2.7737 -2.4281  1.6810
   80SLPC  H13Y 7464  -0.669   3.488   7.879 -1.6055  1.3975  0.9773
   80SLPC  C314 7465  -0.617   3.653   8.005  0.0047 -1.2435 -0.9042
   80SLPC  H14X 7466  -0.723   3.684   7.990  0.7063  1.1538 -1.2922
   80SLPC  H14Y 7467  -0.551   3.741   7.989 -1.4381 -0.3827 -2.5558
   80SLPC  C315 7468  -0.596   3.592   8.148  0.1236  0.3627 -0.4025
   80SLPC  H15X 7469  -0.527   3.507   8.130 -3.8370 -3.2350 -0.0502
   80SLPC  H15Y 7470  -0.685   3.551   8.202  0.4057  0.8543  0.4582
   80SLPC  C316 7471  -0.529   3.688   8.250 -0.0317  0.1805  0.7596
   80SLPC  H16X 7472  -0.605   3.761   8.285 -0.8062 -0.4498  0.4340
   80SLPC  H16Y 7473  -0.457   3.744   8.185 -1.0447  2.5372  1.5528
   80SLPC  C317 7474  -0.446   3.616   8.357 -0.1918  0.3454  0.0950
   80SLPC  H17X 7475  -0.372   3.543   8.317  2.9875  2.8883  0.8798
   80SLPC  H17Y 7476  -0.516   3.548   8.410 -1.0646  0.6235 -0.6867
   80SLPC  C318 7477  -0.376   3.714   8.452  0.3775  0.6566  0.1456
   80SLPC  H18X 7478  -0.342   3.665   8.546  0.9488 -2.2152 -1.4577
   80SLPC  H18Y 7479  -0.442   3.803   8.465 -2.3424 -1.1529 -0.3548
   80SLPC  H18Z 7480  -0.284   3.752   8.403 -0.8560  1.5916 -1.5534
   81SAPS     N 7481   1.538   3.353  11.142  0.1895  0.2352  0.7763
   81SAPS   HN1 7482   1.471   3.299  11.084  0.2174  0.4424  0.5489
   81SAPS   HN2 7483   1.578   3.420  11.072 -1.1424 -0.2940 -0.5395
   81SAPS   HN3 7484   1.611   3.284  11.169 -0.1194 -0.4877 -0.1948
   81SAPS   C12 7485   1.480   3.407  11.262  0.4363  0.6241 -0.3596
   81SAPS  H12A 7486   1.455   3.320  11.321 -0.0292  0.7164 -0.4170
   81SAPS   C13 7487   1.581   3.491  11.336  0.6342  0.4440 -0.4672
   81SAPS  O13A 7488   1.687   3.517  11.278 -0.5119  0.4396  0.1097
   81SAPS  O13B 7489   1.546   3.542  11.446  0.1009  0.0410 -0.1440
   81SAPS   C11 7490   1.348   3.495  11.237  0.9706  0.2410 -0.2098
   81SAPS  H11A 7491   1.377   3.584  11.177 -1.7518  1.0348 -0.4848
   81SAPS  H11B 7492   1.321   3.537  11.336 -3.1119  1.8859 -1.8192
   81SAPS     P 7493   1.109   3.504  11.142  0.4750 -0.0324 -0.4009
   81SAPS   O13 7494   1.010   3.403  11.101  0.5134 -0.1045 -0.8866
   81SAPS   O14 7495   1.077   3.584  11.267 -0.2003  0.5127  0.0807
   81SAPS   O12 7496   1.237   3.419  11.182 -0.2199 -0.0937  0.0518
   81SAPS   O11 7497   1.154   3.586  11.015  0.3868 -0.0542  0.0317
   81SAPS    C1 7498   1.237   3.532  10.911 -0.1894 -0.3944 -0.5747
   81SAPS    HA 7499   1.339   3.575  10.925 -0.5563  0.0248  1.0802
   81SAPS    HB 7500   1.253   3.422  10.912 -0.9551 -0.5171  0.1508
   81SAPS    C2 7501   1.176   3.570  10.770 -0.0217  0.6942 -0.8642
   81SAPS    HS 7502   1.255   3.545  10.696  2.2942 -1.3902  2.0513
   81SAPS   O21 7503   1.144   3.710  10.764  0.2720  0.0113  0.0770
   81SAPS   C21 7504   1.250   3.791  10.737  0.0550  0.0463 -0.1696
   81SAPS   O22 7505   1.362   3.745  10.711  0.4409  0.1963  0.3450
   81SAPS   C22 7506   1.203   3.935  10.710  1.1880  0.1607  0.2533
   81SAPS   H2R 7507   1.133   3.923  10.625  1.6345  1.4969 -0.3207
   81SAPS   H2S 7508   1.148   3.968  10.801 -1.0069 -1.3697 -0.4242
   81SAPS    C3 7509   1.051   3.483  10.736  0.2242 -0.0252  1.1118
   81SAPS    HX 7510   0.990   3.489  10.828 -0.1444  1.7400  0.7941
   81SAPS    HY 7511   1.065   3.379  10.701 -0.0457  0.3735 -0.2705
   81SAPS   O31 7512   0.969   3.544  10.640  0.2235 -0.2729  0.1977
   81SAPS   C31 7513   1.026   3.577  10.522  0.1550 -1.2023 -0.2254
   81SAPS   O32 7514   1.128   3.527  10.475 -0.3063 -0.0574 -0.1586
   81SAPS   C32 7515   0.959   3.689  10.455  0.7453  0.1531 -0.1855
   81SAPS   H2X 7516   0.968   3.770  10.531  2.3705 -2.1488  2.2877
   81SAPS   H2Y 7517   0.854   3.654  10.450  0.7197 -1.1747  4.3901
   81SAPS   C23 7518   1.317   4.029  10.667  0.1290  0.0236 -0.2271
   81SAPS   H3R 7519   1.394   4.014  10.745 -0.0375  0.6860  0.0727
   81SAPS   H3S 7520   1.283   4.135  10.673  1.9638  0.6517 -0.4625
   81SAPS   C24 7521   1.370   4.005  10.525  0.2606  0.2752  0.7029
   81SAPS   H4R 7522   1.396   3.897  10.522 -0.0566  0.1812  1.1649
   81SAPS   H4S 7523   1.470   4.052  10.521 -0.2110  1.2580  0.2769
   81SAPS   C25 7524   1.268   4.053  10.421 -0.1663  1.2174 -1.1430
   81SAPS   H5R 7525   1.167   4.013  10.437  0.3443  0.1404 -0.4797
   81SAPS   C26 7526   1.302   4.132  10.318  0.3487 -0.0913  0.4373
   81SAPS   H6R 7527   1.233   4.152  10.234  0.4445  1.6400  0.7249
   81SAPS   C27 7528   1.439   4.189  10.286 -0.8843 -0.0902  0.1857
   81SAPS   H7R 7529   1.510   4.108  10.260  0.3474  1.0804 -0.2329
   81SAPS   H7S 7530   1.480   4.232  10.379  2.3232 -1.7071 -0.3449
   81SAPS   C28 7531   1.424   4.293  10.180 -1.0521  0.3765  0.0613
   81SAPS   H8R 7532   1.340   4.365  10.184 -0.0950  1.5578 -0.3838
   81SAPS   C29 7533   1.501   4.298  10.069  0.5901 -0.2325 -0.4262
   81SAPS   H9R 7534   1.482   4.386  10.006 -0.2084 -1.1137 -1.4537
   81SAPS  C210 7535   1.614   4.205  10.038 -0.1456  0.4182  0.2908
   81SAPS  H10R 7536   1.621   4.109  10.093 -2.8497 -0.0956 -0.1578
   81SAPS  H10S 7537   1.704   4.261  10.070  0.3622 -0.7983  1.0642
   81SAPS  C211 7538   1.636   4.181   9.895  0.5172 -0.5790 -0.3844
   81SAPS  H11R 7539   1.599   4.087   9.851 -0.5106 -0.5701  0.4280
   81SAPS  C212 7540   1.715   4.257   9.812  0.6510  0.3046 -0.1963
   81SAPS  H12R 7541   1.722   4.228   9.707  1.5039  0.4200 -0.1725
   81SAPS  C213 7542   1.799   4.383   9.844  0.4855  0.0050 -0.5404
   81SAPS  H13R 7543   1.902   4.357   9.875  0.8221  1.1980 -0.6132
   81SAPS  H13S 7544   1.753   4.429   9.934 -0.7765 -1.2927 -0.4786
   81SAPS  C214 7545   1.806   4.475   9.726  0.2611  0.4261  0.8124
   81SAPS  H14R 7546   1.749   4.569   9.729 -0.7867  0.1622 -3.5477
   81SAPS  C215 7547   1.888   4.456   9.622 -0.0956  0.0725 -0.0709
   81SAPS  H15R 7548   1.888   4.522   9.535  0.9363  1.3623  0.8636
   81SAPS  C216 7549   1.995   4.351   9.611  0.6831  0.1661  0.3716
   81SAPS  H16R 7550   1.974   4.263   9.674 -1.5689 -0.3756 -1.0058
   81SAPS  H16S 7551   2.097   4.384   9.640  1.5517 -1.2049 -0.9935
   81SAPS  C217 7552   2.014   4.274   9.474  0.2205 -0.4563 -0.3724
   81SAPS  H17R 7553   2.089   4.194   9.490 -1.2451 -1.7805  0.2058
   81SAPS  H17S 7554   2.046   4.348   9.398 -0.1895  0.6336  0.4859
   81SAPS  C218 7555   1.876   4.217   9.435  0.1079 -0.3030 -0.1549
   81SAPS  H18R 7556   1.815   4.301   9.397  0.5475 -0.6724 -1.7665
   81SAPS  H18S 7557   1.829   4.162   9.519 -0.5239 -1.0995 -0.9956
   81SAPS  C219 7558   1.875   4.115   9.315 -0.6317  0.0008 -0.2716
   81SAPS  H19R 7559   1.971   4.059   9.311 -0.0541  1.0160 -1.5270
   81SAPS  H19S 7560   1.892   4.184   9.229  1.5407 -0.5849 -0.3556
   81SAPS  C220 7561   1.756   4.021   9.296 -0.0791 -0.5252  0.4361
   81SAPS  H20R 7562   1.748   3.967   9.200  1.3430 -0.1612  0.0778
   81SAPS  H20S 7563   1.663   4.079   9.311 -0.0160  0.0995 -1.4468
   81SAPS  H20T 7564   1.765   3.943   9.375  1.1528  0.1962  1.0460
   81SAPS   C33 7565   1.022   3.724  10.325  0.0491  0.3224  0.9774
   81SAPS   H3X 7566   1.131   3.742  10.333  0.0712 -0.3411  2.4390
   81SAPS   H3Y 7567   0.981   3.825  10.306  0.7159  1.0588  3.1371
   81SAPS   C34 7568   0.976   3.656  10.199 -0.8663  0.1466 -0.2527
   81SAPS   H4X 7569   0.865   3.658  10.185 -1.0047  0.1312  0.7511
   81SAPS   H4Y 7570   1.012   3.551  10.195 -1.4156 -0.0725  0.2947
   81SAPS   C35 7571   1.019   3.711  10.061 -0.8138 -0.0910 -0.5502
   81SAPS   H5X 7572   1.129   3.720  10.069 -0.8647 -0.6605  1.3353
   81SAPS   H5Y 7573   0.979   3.815  10.056 -0.9299  0.0440  1.8423
   81SAPS   C36 7574   0.980   3.618   9.942 -0.8472 -0.0096  0.9565
   81SAPS   H6X 7575   0.870   3.616   9.954 -0.7855  0.7751  1.7211
   81SAPS   H6Y 7576   1.016   3.513   9.949  1.9090  0.8671  1.1570
   81SAPS   C37 7577   1.022   3.684   9.810 -0.0066  0.1247  0.3995
   81SAPS   H7X 7578   1.127   3.655   9.790 -0.4324 -1.1297 -0.1559
   81SAPS   H7Y 7579   1.016   3.792   9.836  0.3126  0.5979 -1.3232
   81SAPS   C38 7580   0.939   3.644   9.686  0.2258 -0.0477  0.0700
   81SAPS   H8X 7581   0.830   3.657   9.705  0.2127 -0.8769  0.5971
   81SAPS   H8Y 7582   0.939   3.532   9.685 -2.0014 -0.1360  1.7159
   81SAPS   C39 7583   0.977   3.700   9.554 -0.8851 -0.6326 -0.3581
   81SAPS   H9X 7584   1.085   3.722   9.542 -0.9618  0.6667  1.1314
   81SAPS   H9Y 7585   0.921   3.796   9.553  1.1961  0.6852  0.8069
   81SAPS  C310 7586   0.926   3.621   9.435 -0.1386  0.0058 -0.0582
   81SAPS  H10X 7587   0.915   3.693   9.351 -0.6639  1.5727  1.2861
   81SAPS  H10Y 7588   0.825   3.583   9.463 -0.7410  2.2159  1.0371
   81SAPS  C311 7589   1.029   3.517   9.395  0.1495 -0.9062  0.5140
   81SAPS  H11X 7590   1.059   3.468   9.491  1.8517 -1.9126 -0.4725
   81SAPS  H11Y 7591   1.119   3.568   9.354  1.3608 -0.7154  3.1824
   81SAPS  C312 7592   1.005   3.403   9.298  0.5038 -0.1870  0.2265
   81SAPS  H12X 7593   0.926   3.335   9.337  0.3921  0.4281  1.0752
   81SAPS  H12Y 7594   1.103   3.352   9.287  1.8718  1.8274  2.3272
   81SAPS  C313 7595   0.977   3.474   9.162 -0.0551  0.4873 -0.0767
   81SAPS  H13X 7596   1.070   3.529   9.137 -0.2309 -0.1281 -2.2758
   81SAPS  H13Y 7597   0.888   3.540   9.165  0.7699  1.6610 -0.6797
   81SAPS  C314 7598   0.943   3.365   9.059 -0.3378  0.1038 -0.1946
   81SAPS  H14X 7599   0.849   3.316   9.091 -1.1592  1.6898 -0.0723
   81SAPS  H14Y 7600   1.028   3.294   9.053  1.3962  2.0650  0.1723
   81SAPS  C315 7601   0.904   3.421   8.919 -0.6876 -0.0625  0.5472
   81SAPS  H15X 7602   0.823   3.496   8.925 -1.2279 -0.1959 -3.1941
   81SAPS  H15Y 7603   0.857   3.343   8.855  2.1035 -1.6464  0.2521
   81SAPS  C316 7604   1.023   3.474   8.842  0.1713 -0.7902  0.0208
   81SAPS  H16X 7605   1.093   3.391   8.819  1.0608  0.3766 -1.6784
   81SAPS  H16Y 7606   1.079   3.559   8.887 -0.6370  0.2090 -0.8224
   81SAPS  C317 7607   0.973   3.537   8.710  0.2350 -0.2788 -0.1812
   81SAPS  H17X 7608   0.925   3.637   8.719 -0.2397 -0.4021 -1.1734
   81SAPS  H17Y 7609   0.887   3.476   8.675  0.5033 -0.9278  0.2745
   81SAPS  C318 7610   1.089   3.545   8.616 -0.1023  0.1299  0.0280
   81SAPS  H18X 7611   1.162   3.610   8.670 -1.2401  2.3594 -0.9744
   81SAPS  H18Y 7612   1.058   3.599   8.524  1.8486  0.2316 -0.6173
   81SAPS  H18Z 7613   1.124   3.446   8.580 -0.5923 -0.0275 -0.0153
   82SAPS     N 7614   5.126   4.374  10.808  0.4326 -0.2802 -0.4649
   82SAPS   HN1 7615   5.058   4.424  10.868  0.1836 -0.1445 -0.8611
   82SAPS   HN2 7616   5.188   4.440  10.756 -0.1744 -0.8442 -1.9535
   82SAPS   HN3 7617   5.060   4.331  10.741  0.0647 -0.0555 -0.2544
   82SAPS   C12 7618   5.203   4.281  10.882  0.3498 -0.2054  0.3275
   82SAPS  H12A 7619   5.204   4.309  10.986 -0.0347 -0.0525  0.2916
   82SAPS   C13 7620   5.155   4.138  10.875  0.0889 -0.4422  0.1441
   82SAPS  O13A 7621   5.057   4.100  10.802  0.3209  0.0517 -0.0985
   82SAPS  O13B 7622   5.194   4.069  10.974  0.3670 -0.1050 -0.4492
   82SAPS   C11 7623   5.353   4.281  10.840  0.0485 -0.7656 -0.9976
   82SAPS  H11A 7624   5.420   4.226  10.909  0.1816  0.4910 -0.0901
   82SAPS  H11B 7625   5.396   4.384  10.844 -2.8545  0.5497  1.1809
   82SAPS     P 7626   5.493   4.135  10.667  0.1129 -0.2345  0.6537
   82SAPS   O13 7627   5.624   4.198  10.655  0.2162  0.0130  0.9815
   82SAPS   O14 7628   5.487   4.016  10.757 -0.4072  0.0035  1.0885
   82SAPS   O12 7629   5.382   4.237  10.707 -0.1528 -0.1022 -0.1837
   82SAPS   O11 7630   5.449   4.089  10.517 -0.3854 -0.4753  0.1057
   82SAPS    C1 7631   5.529   4.115  10.403 -0.2568  0.2843  1.0591
   82SAPS    HA 7632   5.639   4.106  10.415  0.0253  1.3073 -0.5222
   82SAPS    HB 7633   5.507   4.047  10.318  0.3022  0.0674  1.0801
   82SAPS    C2 7634   5.506   4.258  10.356 -0.4768 -0.2502 -0.9923
   82SAPS    HS 7635   5.530   4.329  10.438 -1.2582  0.4723 -1.3839
   82SAPS   O21 7636   5.364   4.265  10.316  0.0119 -0.7989 -0.3216
   82SAPS   C21 7637   5.314   4.383  10.323 -0.2844  0.6752 -0.0428
   82SAPS   O22 7638   5.375   4.482  10.362  0.3548  0.1847  0.1407
   82SAPS   C22 7639   5.171   4.382  10.301 -0.5672 -0.4607  0.2515
   82SAPS   H2R 7640   5.142   4.281  10.262  0.6926 -1.0911  0.9149
   82SAPS   H2S 7641   5.116   4.387  10.397 -1.9485 -3.2434 -0.2531
   82SAPS    C3 7642   5.594   4.298  10.234  0.0237  0.4886  0.5804
   82SAPS    HX 7643   5.697   4.300  10.274 -1.0313  0.6204  3.5330
   82SAPS    HY 7644   5.561   4.398  10.199  0.2076  0.2275 -0.3640
   82SAPS   O31 7645   5.577   4.199  10.127 -0.2573 -0.2977 -0.6110
   82SAPS   C31 7646   5.646   4.226  10.022 -0.8561 -0.5048  0.0499
   82SAPS   O32 7647   5.714   4.330  10.001  0.4393  0.5251 -0.7005
   82SAPS   C32 7648   5.631   4.117   9.924  0.4514  0.3487  0.4053
   82SAPS   H2X 7649   5.522   4.097   9.918  0.6463 -1.0226  1.0402
   82SAPS   H2Y 7650   5.695   4.035   9.963 -1.5430 -1.8704 -0.7289
   82SAPS   C23 7651   5.124   4.498  10.208  0.2389  0.6740  0.1695
   82SAPS   H3R 7652   5.169   4.588  10.255  2.4451 -1.2379  1.9971
   82SAPS   H3S 7653   5.014   4.505  10.199  0.0857 -2.6137 -1.8558
   82SAPS   C24 7654   5.166   4.481  10.066  0.2916  0.4348 -0.6294
   82SAPS   H4R 7655   5.098   4.411  10.014  1.4693 -0.9175 -0.3995
   82SAPS   H4S 7656   5.262   4.425  10.065  0.0703  0.0477 -0.3225
   82SAPS   C25 7657   5.192   4.610   9.994  0.3787 -0.1932  0.1339
   82SAPS   H5R 7658   5.170   4.702  10.050 -1.3168 -0.4008 -0.1240
   82SAPS   C26 7659   5.216   4.609   9.862 -0.1894 -0.8054  0.6863
   82SAPS   H6R 7660   5.205   4.707   9.814 -1.5924 -1.3988 -0.2652
   82SAPS   C27 7661   5.230   4.499   9.764  0.4385 -0.3419 -0.6285
   82SAPS   H7R 7662   5.178   4.532   9.672  2.9715 -0.6199 -2.2677
   82SAPS   H7S 7663   5.180   4.405   9.794 -2.0057  0.7134 -1.1450
   82SAPS   C28 7664   5.377   4.485   9.737 -0.1439 -0.1162 -0.6289
   82SAPS   H8R 7665   5.436   4.483   9.830 -0.9645 -0.8384 -0.1057
   82SAPS   C29 7666   5.445   4.487   9.621 -0.0186 -0.0736  0.1085
   82SAPS   H9R 7667   5.555   4.496   9.621 -0.0118 -0.1378  0.3370
   82SAPS  C210 7668   5.383   4.513   9.487 -0.1360 -0.1164 -0.2661
   82SAPS  H10R 7669   5.307   4.435   9.469 -1.1040  0.5658  0.7179
   82SAPS  H10S 7670   5.460   4.480   9.413  0.6052 -1.4539  1.0445
   82SAPS  C211 7671   5.337   4.656   9.468 -0.2193 -0.3574 -0.6096
   82SAPS  H11R 7672   5.281   4.695   9.554  2.0157  0.9668  0.3343
   82SAPS  C212 7673   5.375   4.740   9.376  0.2638 -0.8246 -0.5388
   82SAPS  H12R 7674   5.339   4.843   9.378 -2.0566 -1.5970 -0.1221
   82SAPS  C213 7675   5.457   4.702   9.254 -0.0685  0.6206  0.4279
   82SAPS  H13R 7676   5.429   4.600   9.220 -1.7079  0.8166  1.1123
   82SAPS  H13S 7677   5.566   4.705   9.275  0.3354 -2.2727 -0.7632
   82SAPS  C214 7678   5.437   4.786   9.131 -0.1220 -0.5843 -0.6479
   82SAPS  H14R 7679   5.517   4.855   9.101  0.7161 -1.5789 -0.7425
   82SAPS  C215 7680   5.326   4.791   9.055 -0.1105 -0.2881 -0.3345
   82SAPS  H15R 7681   5.335   4.851   8.963 -4.1289  3.2610  1.2393
   82SAPS  C216 7682   5.201   4.715   9.078 -0.2307  0.7432  0.4204
   82SAPS  H16R 7683   5.116   4.781   9.107 -2.5815 -1.7293 -0.4472
   82SAPS  H16S 7684   5.202   4.637   9.157 -3.1283  1.0244  0.8266
   82SAPS  C217 7685   5.158   4.644   8.950  0.0192  0.5116  0.1954
   82SAPS  H17R 7686   5.132   4.727   8.881  3.1195  1.3426 -0.1736
   82SAPS  H17S 7687   5.071   4.583   8.982  1.1628 -0.3080  1.9186
   82SAPS  C218 7688   5.268   4.548   8.885  0.6086 -0.1467 -0.0048
   82SAPS  H18R 7689   5.326   4.510   8.972 -1.0594 -0.8958  0.8206
   82SAPS  H18S 7690   5.331   4.604   8.812 -1.3709 -0.2508 -1.8941
   82SAPS  C219 7691   5.208   4.420   8.819 -0.6404  0.3794 -0.3257
   82SAPS  H19R 7692   5.148   4.364   8.893 -1.4142  0.1652 -1.0987
   82SAPS  H19S 7693   5.293   4.357   8.785 -0.5509 -1.0062  2.2024
   82SAPS  C220 7694   5.128   4.454   8.694 -0.0765 -0.2885  0.4780
   82SAPS  H20R 7695   5.052   4.528   8.726 -0.1028 -0.2761  0.3866
   82SAPS  H20S 7696   5.080   4.363   8.652  0.1541 -0.0014 -0.4355
   82SAPS  H20T 7697   5.198   4.501   8.621 -0.7607 -1.1067 -0.7524
   82SAPS   C33 7698   5.663   4.163   9.776  0.0418 -0.5528  0.4715
   82SAPS   H3X 7699   5.773   4.174   9.760  0.2157 -1.9012  0.6283
   82SAPS   H3Y 7700   5.606   4.257   9.762 -1.2519 -0.9163  2.7422
   82SAPS   C34 7701   5.621   4.075   9.651  0.0555  0.4724 -1.1456
   82SAPS   H4X 7702   5.512   4.067   9.666  0.3663 -1.2440  0.6463
   82SAPS   H4Y 7703   5.655   3.970   9.665  1.7792  0.6437 -3.4929
   82SAPS   C35 7704   5.648   4.129   9.512  0.6303 -0.0179 -0.5580
   82SAPS   H5X 7705   5.757   4.131   9.491  0.8371 -1.1769  0.3619
   82SAPS   H5Y 7706   5.610   4.232   9.496  0.1995 -0.2352 -0.9603
   82SAPS   C36 7707   5.597   4.043   9.390  0.6610 -0.6906 -0.9882
   82SAPS   H6X 7708   5.486   4.043   9.391  0.5681  0.5013 -3.6217
   82SAPS   H6Y 7709   5.635   3.940   9.405  0.1307 -0.7675 -0.0499
   82SAPS   C37 7710   5.649   4.100   9.249  1.0713 -0.0069  0.3463
   82SAPS   H7X 7711   5.758   4.114   9.260  1.3060  1.1122 -2.5884
   82SAPS   H7Y 7712   5.603   4.199   9.226  1.3684  0.0865  0.1456
   82SAPS   C38 7713   5.597   4.011   9.132  0.1367  0.2512  0.1239
   82SAPS   H8X 7714   5.500   3.960   9.148  0.3469 -0.4148 -0.7156
   82SAPS   H8Y 7715   5.674   3.932   9.121 -1.2991 -1.2492  0.5340
   82SAPS   C39 7716   5.580   4.093   9.006 -0.2395  0.1241  0.6401
   82SAPS   H9X 7717   5.671   4.154   8.989  0.4532 -0.3704  2.4167
   82SAPS   H9Y 7718   5.490   4.158   9.018 -0.3856 -0.0180  0.3259
   82SAPS  C310 7719   5.576   4.019   8.869 -0.7137  1.2095 -0.4804
   82SAPS  H10X 7720   5.503   3.941   8.898  2.4629 -0.4695  4.1626
   82SAPS  H10Y 7721   5.671   3.963   8.854 -1.5552 -0.4458  0.0690
   82SAPS  C311 7722   5.540   4.097   8.747  0.4144  0.0977 -0.0413
   82SAPS  H11X 7723   5.618   4.176   8.748  0.1702  0.3396  0.7780
   82SAPS  H11Y 7724   5.442   4.149   8.755  0.7635  1.1471 -1.9487
   82SAPS  C312 7725   5.551   4.027   8.613 -0.5912 -0.0932 -0.0316
   82SAPS  H12X 7726   5.461   3.967   8.589 -0.5479 -1.3500  2.6466
   82SAPS  H12Y 7727   5.643   3.964   8.612 -0.2891  0.2274 -2.9078
   82SAPS  C313 7728   5.562   4.122   8.504  1.4261  0.3061 -0.1353
   82SAPS  H13X 7729   5.584   4.067   8.410  1.7232 -0.3961  0.3340
   82SAPS  H13Y 7730   5.649   4.188   8.519 -0.1617  2.8909 -1.5546
   82SAPS  C314 7731   5.434   4.205   8.483 -0.2607  0.0520 -0.2317
   82SAPS  H14X 7732   5.410   4.238   8.586 -1.4479  0.6067 -0.6752
   82SAPS  H14Y 7733   5.340   4.147   8.473 -1.5246  1.5086  2.1181
   82SAPS  C315 7734   5.456   4.324   8.383  0.7016  0.5771  0.5906
   82SAPS  H15X 7735   5.544   4.384   8.414  1.8099 -0.3018 -0.7404
   82SAPS  H15Y 7736   5.366   4.388   8.379  0.5498  0.3233 -0.1228
   82SAPS  C316 7737   5.467   4.288   8.234 -0.8017 -0.3892  0.4030
   82SAPS  H16X 7738   5.370   4.242   8.205 -1.3674  1.8721 -1.6712
   82SAPS  H16Y 7739   5.549   4.216   8.220  3.5037  4.2554 -1.4340
   82SAPS  C317 7740   5.504   4.405   8.142 -0.2970  0.2277 -0.1743
   82SAPS  H17X 7741   5.575   4.473   8.194 -0.2894 -0.8058  1.2162
   82SAPS  H17Y 7742   5.410   4.463   8.126 -0.6381 -0.3313 -0.2034
   82SAPS  C318 7743   5.543   4.359   8.002 -0.6326 -0.1822  0.2012
   82SAPS  H18X 7744   5.465   4.289   7.965  0.2929 -1.1422  0.0246
   82SAPS  H18Y 7745   5.643   4.312   8.012 -0.6600 -0.1556  0.6231
   82SAPS  H18Z 7746   5.560   4.449   7.939 -1.0341 -0.5916 -0.4946
   83SAPS     N 7747   6.306   5.018  10.838  0.6644  0.0579 -0.4804
   83SAPS   HN1 7748   6.394   5.036  10.786  2.2628 -2.1443  1.2512
   83SAPS   HN2 7749   6.308   4.914  10.828  0.7068  0.1173 -1.1263
   83SAPS   HN3 7750   6.216   5.060  10.805  0.8278  3.3249  2.6265
   83SAPS   C12 7751   6.336   5.051  10.979  0.8382  0.1374  0.3579
   83SAPS  H12A 7752   6.327   5.158  10.992 -1.6194  0.1370 -0.8059
   83SAPS   C13 7753   6.239   5.001  11.088 -0.0413  0.8435 -0.4763
   83SAPS  O13A 7754   6.137   4.939  11.060 -0.1587  0.0393 -0.2826
   83SAPS  O13B 7755   6.251   5.051  11.204  0.1992  0.0764  0.7097
   83SAPS   C11 7756   6.484   5.008  11.003  0.2389 -0.4594  0.0854
   83SAPS  H11A 7757   6.503   5.039  11.108 -0.3566 -3.1528  1.0736
   83SAPS  H11B 7758   6.540   5.063  10.925 -1.5124 -0.4346 -1.2329
   83SAPS     P 7759   6.620   4.794  11.017 -0.0511  0.0453  0.1326
   83SAPS   O13 7760   6.692   4.872  11.124 -0.1677 -0.3697 -0.0554
   83SAPS   O14 7761   6.585   4.660  11.049 -0.4262 -0.3026 -0.6842
   83SAPS   O12 7762   6.492   4.868  10.988 -0.1264  0.2016 -0.1035
   83SAPS   O11 7763   6.703   4.791  10.883 -0.2656 -0.2499  0.2131
   83SAPS    C1 7764   6.652   4.742  10.758 -0.9256  0.3892 -0.8197
   83SAPS    HA 7765   6.595   4.647  10.767  1.6854 -1.3440 -1.6037
   83SAPS    HB 7766   6.587   4.812  10.702 -1.7964 -0.0100 -0.3278
   83SAPS    C2 7767   6.755   4.703  10.648  0.5421  0.6993  0.0585
   83SAPS    HS 7768   6.832   4.636  10.693 -1.0429 -0.9447  0.4157
   83SAPS   O21 7769   6.805   4.821  10.576  1.0140 -0.0636  0.1450
   83SAPS   C21 7770   6.933   4.818  10.542  0.1510 -0.0791  0.8898
   83SAPS   O22 7771   7.007   4.722  10.563  0.0238 -0.0537 -0.2096
   83SAPS   C22 7772   6.964   4.938  10.460 -0.5265  0.2312  0.2069
   83SAPS   H2R 7773   6.888   4.939  10.379 -0.4768  0.8187  0.1618
   83SAPS   H2S 7774   6.955   5.029  10.523 -2.3562  0.0005  0.3374
   83SAPS    C3 7775   6.690   4.609  10.548  0.0622  0.1820  0.8826
   83SAPS    HX 7776   6.595   4.661  10.522  0.1957  1.4834  2.8387
   83SAPS    HY 7777   6.658   4.516  10.599 -0.2842 -0.6043 -0.6790
   83SAPS   O31 7778   6.778   4.580  10.431  1.0378 -0.3271 -0.0570
   83SAPS   C31 7779   6.842   4.468  10.439 -0.0057 -0.3689 -0.6258
   83SAPS   O32 7780   6.852   4.397  10.540 -0.0863 -0.3588  0.0342
   83SAPS   C32 7781   6.925   4.443  10.310 -0.3001  0.5324 -0.9312
   83SAPS   H2X 7782   6.994   4.527  10.284  0.5167 -0.2570 -1.3827
   83SAPS   H2Y 7783   6.847   4.447  10.231  0.4050  0.3855 -1.6565
   83SAPS   C23 7784   7.104   4.933  10.387 -0.1652  0.1864 -0.5059
   83SAPS   H3R 7785   7.136   4.831  10.356  0.9587 -0.9881  3.8621
   83SAPS   H3S 7786   7.177   4.986  10.451 -0.1490 -1.2802  0.7379
   83SAPS   C24 7787   7.095   5.012  10.251 -0.2495 -0.1529 -0.3275
   83SAPS   H4R 7788   7.088   5.122  10.266  1.8340  0.2223 -1.7337
   83SAPS   H4S 7789   7.010   4.973  10.190 -0.0136  1.0664 -1.4919
   83SAPS   C25 7790   7.210   4.976  10.159 -0.3770 -0.6998 -0.4737
   83SAPS   H5R 7791   7.280   4.901  10.198 -1.3816 -2.1560 -1.3767
   83SAPS   C26 7792   7.242   5.028  10.046 -0.3319  0.6729  0.5120
   83SAPS   H6R 7793   7.326   4.989   9.986 -0.2430 -0.1588  1.1546
   83SAPS   C27 7794   7.154   5.130   9.981 -0.2879  0.2187  0.0509
   83SAPS   H7R 7795   7.116   5.206  10.053 -0.7695 -0.8787  0.9868
   83SAPS   H7S 7796   7.060   5.084   9.946  0.3153 -0.5343 -0.6267
   83SAPS   C28 7797   7.218   5.204   9.865  0.4431  0.7327 -0.5245
   83SAPS   H8R 7798   7.247   5.309   9.878  0.8451  0.4423  1.0845
   83SAPS   C29 7799   7.235   5.150   9.739  0.8630 -0.6237  0.1533
   83SAPS   H9R 7800   7.289   5.210   9.665  0.3478 -0.6539 -0.2580
   83SAPS  C210 7801   7.188   5.016   9.687 -0.4370  0.5414 -0.5824
   83SAPS  H10R 7802   7.231   4.932   9.745  0.4335  0.7183 -0.9586
   83SAPS  H10S 7803   7.238   5.003   9.589  0.5950  1.3873 -0.1967
   83SAPS  C211 7804   7.042   4.997   9.683  0.8763  0.4551 -0.5854
   83SAPS  H11R 7805   6.987   4.981   9.776  0.5641 -0.9646 -0.9890
   83SAPS  C212 7806   6.954   4.986   9.576 -0.1013 -0.7260  0.2349
   83SAPS  H12R 7807   6.846   4.973   9.589 -0.2477 -0.4962 -0.6787
   83SAPS  C213 7808   7.003   4.990   9.429  0.0417  0.7666  0.4301
   83SAPS  H13R 7809   7.101   5.042   9.426  0.6763 -0.4073 -1.6087
   83SAPS  H13S 7810   6.934   5.051   9.366  0.5737 -0.1422 -1.1000
   83SAPS  C214 7811   6.996   4.851   9.378  0.1977 -0.9198 -0.2800
   83SAPS  H14R 7812   6.896   4.806   9.368 -0.0955 -0.1287 -0.9931
   83SAPS  C215 7813   7.103   4.772   9.348  0.5375  0.1108  0.4486
   83SAPS  H15R 7814   7.079   4.674   9.305 -0.9758  0.1930  1.0500
   83SAPS  C216 7815   7.253   4.808   9.344 -0.8075  0.2987 -0.5886
   83SAPS  H16R 7816   7.313   4.729   9.394 -4.3561 -0.6913  2.6180
   83SAPS  H16S 7817   7.283   4.891   9.410  2.5173 -2.6821  2.0460
   83SAPS  C217 7818   7.303   4.823   9.203 -0.0782  0.3213 -1.0120
   83SAPS  H17R 7819   7.266   4.918   9.160  1.7120  1.7458  0.4332
   83SAPS  H17S 7820   7.265   4.737   9.143  0.1903  1.2753 -2.6015
   83SAPS  C218 7821   7.456   4.830   9.202 -0.5880 -0.0842 -0.6636
   83SAPS  H18R 7822   7.481   4.749   9.274  0.7427  1.3667  0.5756
   83SAPS  H18S 7823   7.509   4.922   9.235 -2.0371  1.1295 -1.5821
   83SAPS  C219 7824   7.525   4.787   9.066 -0.0966 -0.3973  0.1506
   83SAPS  H19R 7825   7.474   4.836   8.980  1.4883  2.6024  0.7997
   83SAPS  H19S 7826   7.506   4.678   9.068 -1.8225 -0.1297  2.0002
   83SAPS  C220 7827   7.671   4.835   9.063 -0.0007  0.5248 -0.3012
   83SAPS  H20R 7828   7.670   4.946   9.077  0.1582  0.7365 -1.8472
   83SAPS  H20S 7829   7.720   4.804   8.969 -1.6483  0.2334 -1.1020
   83SAPS  H20T 7830   7.725   4.797   9.152 -2.3751 -0.4874  0.7980
   83SAPS   C33 7831   6.989   4.304  10.321  0.4559 -0.7873  0.5274
   83SAPS   H3X 7832   6.907   4.231  10.340 -1.5543  1.3636  0.5408
   83SAPS   H3Y 7833   7.070   4.302  10.396  0.5895  0.6798  0.4477
   83SAPS   C34 7834   7.056   4.266  10.183 -0.2474  0.4689 -0.3570
   83SAPS   H4X 7835   7.158   4.225  10.200 -1.4784 -2.8140 -0.0644
   83SAPS   H4Y 7836   7.057   4.362  10.128  1.6229  1.3711  1.1557
   83SAPS   C35 7837   6.979   4.159  10.112 -0.1007  0.6987  0.4488
   83SAPS   H5X 7838   6.877   4.190  10.080 -0.4798 -2.0537 -1.4103
   83SAPS   H5Y 7839   6.962   4.069  10.175  0.7365 -0.5890 -1.0829
   83SAPS   C36 7840   7.046   4.120   9.978 -0.0519 -0.5461  0.6084
   83SAPS   H6X 7841   6.969   4.058   9.929 -3.5931  1.7145  2.8016
   83SAPS   H6Y 7842   7.142   4.072  10.007  0.5320  0.2094 -0.0511
   83SAPS   C37 7843   7.081   4.245   9.895 -0.4560 -1.0503 -0.0070
   83SAPS   H7X 7844   7.165   4.303   9.939  0.1421 -1.8909 -0.0169
   83SAPS   H7Y 7845   6.992   4.310   9.884  0.3197  0.3099  1.3323
   83SAPS   C38 7846   7.137   4.208   9.756  0.3096  0.3819 -0.0388
   83SAPS   H8X 7847   7.062   4.147   9.701  0.9605 -0.3094 -0.1864
   83SAPS   H8Y 7848   7.221   4.143   9.788 -0.7894 -0.2758  1.6223
   83SAPS   C39 7849   7.184   4.319   9.673 -0.3350 -0.7020  0.4931
   83SAPS   H9X 7850   7.269   4.372   9.719  2.4374 -3.4326 -1.0667
   83SAPS   H9Y 7851   7.103   4.394   9.662  0.9488  0.9244  1.8241
   83SAPS  C310 7852   7.239   4.268   9.538  0.6083 -0.2387 -0.0868
   83SAPS  H10X 7853   7.153   4.216   9.491  0.4921 -1.7020  1.6402
   83SAPS  H10Y 7854   7.320   4.193   9.545  2.2495  1.4634 -0.1403
   83SAPS  C311 7855   7.296   4.385   9.450 -0.0637  0.0228  0.4450
   83SAPS  H11X 7856   7.374   4.439   9.507  1.3584 -0.9415 -0.5471
   83SAPS  H11Y 7857   7.211   4.456   9.435 -0.4686 -0.8727 -1.7564
   83SAPS  C312 7858   7.355   4.339   9.317 -0.2511  0.2219 -0.0302
   83SAPS  H12X 7859   7.282   4.269   9.272  2.1507 -1.6993 -1.1632
   83SAPS  H12Y 7860   7.447   4.281   9.341 -1.6261 -2.6181 -1.1601
   83SAPS  C313 7861   7.398   4.449   9.218  0.1719 -0.4113  0.1071
   83SAPS  H13X 7862   7.464   4.523   9.268 -0.9629  1.7283 -1.4024
   83SAPS  H13Y 7863   7.300   4.496   9.196  0.7014  1.2681  1.1746
   83SAPS  C314 7864   7.467   4.410   9.088  0.4092 -0.4489  0.3175
   83SAPS  H14X 7865   7.435   4.482   9.010  1.1162 -1.9601 -1.4792
   83SAPS  H14Y 7866   7.442   4.307   9.054  4.3753 -2.5895  3.1049
   83SAPS  C315 7867   7.622   4.426   9.099  0.1402  1.0601  0.2542
   83SAPS  H15X 7868   7.674   4.352   9.163 -0.2190  0.1783 -0.4479
   83SAPS  H15Y 7869   7.644   4.525   9.144  2.3798  0.6540  0.1738
   83SAPS  C316 7870   7.672   4.435   8.963 -0.4657  0.0790  0.1990
   83SAPS  H16X 7871   7.621   4.522   8.916  0.2419  0.7530  0.6591
   83SAPS  H16Y 7872   7.635   4.343   8.912 -0.6690 -1.6293  3.1686
   83SAPS  C317 7873   7.824   4.455   8.944  0.4282  0.3505  1.1107
   83SAPS  H17X 7874   7.882   4.362   8.965  2.7028  1.3561 -0.3053
   83SAPS  H17Y 7875   7.865   4.539   9.004  0.5103  0.0859  1.4285
   83SAPS  C318 7876   7.863   4.459   8.799 -0.7201 -0.2270 -0.1114
   83SAPS  H18X 7877   7.836   4.549   8.740  1.3774  0.5174 -0.0300
   83SAPS  H18Y 7878   7.825   4.364   8.756  2.5156 -1.6992 -0.0581
   83SAPS  H18Z 7879   7.974   4.463   8.795 -0.3319  4.0919  4.3927
   84SAPS     N 7880   2.989   5.870  11.106  0.3323 -0.1965  0.0416
   84SAPS   HN1 7881   2.993   5.785  11.166  0.8368  0.1878  0.5613
   84SAPS   HN2 7882   2.908   5.918  11.148 -1.1127 -1.1788 -1.5120
   84SAPS   HN3 7883   2.968   5.850  11.006 -0.7913  0.0004  0.2368
   84SAPS   C12 7884   3.104   5.950  11.115  0.1970 -0.1226 -0.6371
   84SAPS  H12A 7885   3.070   6.034  11.173 -0.2114  0.7546 -2.1086
   84SAPS   C13 7886   3.238   5.882  11.161  0.9348  0.1114 -0.6429
   84SAPS  O13A 7887   3.237   5.783  11.247 -0.1438 -0.0739  0.0210
   84SAPS  O13B 7888   3.342   5.954  11.156  0.1972  0.3091 -0.4049
   84SAPS   C11 7889   3.126   6.020  10.978 -0.5871  0.6817  0.3860
   84SAPS  H11A 7890   3.146   5.952  10.892  0.8287  0.8782  0.5315
   84SAPS  H11B 7891   3.219   6.082  10.983  0.0198 -0.1233 -0.5206
   84SAPS     P 7892   3.019   6.256  10.945 -0.0967  0.3176  0.1272
   84SAPS   O13 7893   2.885   6.302  10.971  0.1518 -0.5469 -0.5453
   84SAPS   O14 7894   3.137   6.300  11.030  0.0183  0.1252 -0.0695
   84SAPS   O12 7895   3.010   6.096  10.941  0.3705  0.5875 -0.6090
   84SAPS   O11 7896   3.048   6.294  10.797  0.1807 -0.1806 -0.1075
   84SAPS    C1 7897   2.983   6.211  10.701 -0.2187  0.2266 -0.0503
   84SAPS    HA 7898   2.904   6.141  10.736 -1.6497  1.2494 -1.1479
   84SAPS    HB 7899   2.933   6.280  10.631 -1.5925 -1.9625 -1.3532
   84SAPS    C2 7900   3.088   6.145  10.605  0.6204 -0.3521  0.3361
   84SAPS    HS 7901   3.155   6.083  10.669  0.2381 -2.4899 -1.2500
   84SAPS   O21 7902   3.154   6.255  10.535  0.4276  0.3398  0.3839
   84SAPS   C21 7903   3.282   6.268  10.563 -0.2869 -0.8979  0.0603
   84SAPS   O22 7904   3.356   6.197  10.635 -0.0032 -0.6623 -0.0596
   84SAPS   C22 7905   3.329   6.403  10.500  0.3352  0.1044 -0.3623
   84SAPS   H2R 7906   3.298   6.407  10.393 -2.8732  0.5734  0.4883
   84SAPS   H2S 7907   3.269   6.472  10.562  1.2218  0.1470  0.4740
   84SAPS    C3 7908   3.040   6.054  10.495  0.1664  0.3647  0.1736
   84SAPS    HX 7909   2.960   6.109  10.441  0.4525  0.9491  0.3415
   84SAPS    HY 7910   2.982   5.970  10.539 -0.1736  0.5431  0.0653
   84SAPS   O31 7911   3.139   6.007  10.398  0.5455  0.2380  0.0693
   84SAPS   C31 7912   3.223   5.916  10.437  0.7724 -0.1365  0.7855
   84SAPS   O32 7913   3.233   5.858  10.544 -0.3924  0.4637 -0.6494
   84SAPS   C32 7914   3.304   5.873  10.315 -0.3237  0.2400  0.3348
   84SAPS   H2X 7915   3.265   5.772  10.289  0.7889 -0.7260  2.2097
   84SAPS   H2Y 7916   3.409   5.855  10.347 -0.1721  1.4134  0.5367
   84SAPS   C23 7917   3.482   6.433  10.523  0.2615  0.0006  0.8212
   84SAPS   H3R 7918   3.496   6.422  10.633 -2.7491 -1.4389  1.1603
   84SAPS   H3S 7919   3.506   6.537  10.491 -0.8999 -0.1761 -0.7316
   84SAPS   C24 7920   3.564   6.329  10.434 -0.6984 -0.1914  0.4203
   84SAPS   H4R 7921   3.512   6.335  10.336 -2.9457 -1.0387  1.4938
   84SAPS   H4S 7922   3.553   6.226  10.476  1.3402  0.2626  2.2771
   84SAPS   C25 7923   3.707   6.367  10.430  0.1410  0.0704 -0.2391
   84SAPS   H5R 7924   3.761   6.375  10.526  1.8582 -2.2796 -0.9204
   84SAPS   C26 7925   3.769   6.385  10.312  0.4982  0.8115 -0.1989
   84SAPS   H6R 7926   3.873   6.421  10.313  1.7022 -2.3113 -1.6624
   84SAPS   C27 7927   3.705   6.364  10.174  0.0625  0.6281 -0.3531
   84SAPS   H7R 7928   3.760   6.416  10.093  0.2913  1.7618  0.4996
   84SAPS   H7S 7929   3.633   6.448  10.168  0.0106  0.5307 -1.2003
   84SAPS   C28 7930   3.651   6.228  10.124  0.2755 -0.3152 -0.5311
   84SAPS   H8R 7931   3.663   6.143  10.193  1.5507 -0.3605 -0.7828
   84SAPS   C29 7932   3.599   6.201  10.003 -0.4923  0.5052 -0.3973
   84SAPS   H9R 7933   3.566   6.098   9.984  3.2031 -0.7581 -0.7465
   84SAPS  C210 7934   3.585   6.293   9.888  0.2802 -0.0536 -0.2167
   84SAPS  H10R 7935   3.567   6.395   9.928 -3.1904 -0.8407  0.5720
   84SAPS  H10S 7936   3.492   6.271   9.832 -0.2888  1.1149  0.2358
   84SAPS  C211 7937   3.711   6.292   9.808 -0.0307 -0.0747 -0.3886
   84SAPS  H11R 7938   3.804   6.289   9.867  0.4622  0.5350 -1.1090
   84SAPS  C212 7939   3.730   6.283   9.679 -0.0370  0.1985  0.1683
   84SAPS  H12R 7940   3.831   6.271   9.637 -0.8400  0.4332 -1.9973
   84SAPS  C213 7941   3.615   6.271   9.575  1.0736  0.0174 -0.3012
   84SAPS  H13R 7942   3.521   6.307   9.622  0.0607 -0.2683 -2.0377
   84SAPS  H13S 7943   3.598   6.163   9.555 -0.8122 -0.3936  2.8367
   84SAPS  C214 7944   3.631   6.347   9.443  0.3511  0.1969  0.2088
   84SAPS  H14R 7945   3.708   6.426   9.443 -0.3525  0.9211 -1.0891
   84SAPS  C215 7946   3.551   6.330   9.338 -0.1492 -0.5106 -0.0210
   84SAPS  H15R 7947   3.562   6.391   9.247  0.0031  1.3311  1.1718
   84SAPS  C216 7948   3.423   6.248   9.333 -0.6479 -0.4169  0.1759
   84SAPS  H16R 7949   3.339   6.309   9.292 -2.1419 -1.5899  1.3913
   84SAPS  H16S 7950   3.395   6.226   9.438 -1.4819 -1.7126 -0.2951
   84SAPS  C217 7951   3.436   6.119   9.253  0.5776 -0.0063 -0.3350
   84SAPS  H17R 7952   3.341   6.063   9.256  0.1470  0.3259 -3.9527
   84SAPS  H17S 7953   3.514   6.051   9.294  1.2316 -2.4593 -5.0325
   84SAPS  C218 7954   3.471   6.155   9.102  0.0528 -0.3607 -0.0234
   84SAPS  H18R 7955   3.564   6.216   9.102 -0.0283 -0.1672  1.8880
   84SAPS  H18S 7956   3.394   6.229   9.070  0.8613  0.5763  0.1340
   84SAPS  C219 7957   3.471   6.034   9.006  0.0473 -0.2981  0.7387
   84SAPS  H19R 7958   3.483   6.068   8.901  0.1962 -0.1994  0.7871
   84SAPS  H19S 7959   3.369   5.993   9.017  0.2264 -0.3870  2.1578
   84SAPS  C220 7960   3.582   5.928   9.046  0.1393  0.4366  0.6430
   84SAPS  H20R 7961   3.565   5.893   9.150  2.3627  0.0081  0.9110
   84SAPS  H20S 7962   3.683   5.973   9.042  1.2446 -2.0012 -0.3022
   84SAPS  H20T 7963   3.582   5.838   8.981 -1.8086 -1.2600  2.8064
   84SAPS   C33 7964   3.292   5.967  10.186  0.2235  0.8327  0.0419
   84SAPS   H3X 7965   3.339   6.067  10.198  0.9304  0.7539 -1.6736
   84SAPS   H3Y 7966   3.182   5.965  10.171  0.0093  0.8135  1.5048
   84SAPS   C34 7967   3.356   5.913  10.062  0.2737 -0.0234  0.8890
   84SAPS   H4X 7968   3.345   5.804  10.046  0.1264  0.0591  0.3952
   84SAPS   H4Y 7969   3.465   5.934  10.067  0.6143 -2.0206  3.7009
   84SAPS   C35 7970   3.283   5.966   9.931  0.3152 -0.1275 -0.2369
   84SAPS   H5X 7971   3.244   6.069   9.946 -0.7422 -0.6771  0.9936
   84SAPS   H5Y 7972   3.196   5.898   9.917 -0.4110  0.9037 -0.8667
   84SAPS   C36 7973   3.376   5.956   9.805  0.0027 -0.1251 -0.1626
   84SAPS   H6X 7974   3.397   5.852   9.772  1.3514 -0.4259  1.5093
   84SAPS   H6Y 7975   3.474   6.006   9.819 -0.1647  0.7628 -1.8975
   84SAPS   C37 7976   3.318   6.015   9.679  0.0944  0.6623 -0.5366
   84SAPS   H7X 7977   3.396   6.022   9.600  2.0368 -2.6074  0.9005
   84SAPS   H7Y 7978   3.261   6.108   9.697 -1.1351 -0.1101 -0.3715
   84SAPS   C38 7979   3.223   5.907   9.615 -0.3057 -0.5875  0.4848
   84SAPS   H8X 7980   3.135   5.902   9.683 -0.1588  0.2898  0.7529
   84SAPS   H8Y 7981   3.265   5.804   9.619 -0.7921 -0.7567  1.9222
   84SAPS   C39 7982   3.183   5.956   9.474  0.7353 -0.3128  0.1896
   84SAPS   H9X 7983   3.274   5.935   9.416  0.4479 -1.2094  0.0535
   84SAPS   H9Y 7984   3.159   6.064   9.485  1.1862 -0.2619  0.6828
   84SAPS  C310 7985   3.065   5.886   9.416 -0.0261  0.1372  0.7492
   84SAPS  H10X 7986   2.971   5.917   9.467 -0.9039  2.0857 -1.8246
   84SAPS  H10Y 7987   3.073   5.776   9.424 -1.4347 -0.1170 -0.8553
   84SAPS  C311 7988   3.044   5.915   9.263  0.0736 -0.0877 -0.9397
   84SAPS  H11X 7989   3.140   5.902   9.207 -0.3800 -0.1010 -1.7285
   84SAPS  H11Y 7990   3.007   6.017   9.240 -0.8463 -0.5362 -1.5201
   84SAPS  C312 7991   2.930   5.828   9.205 -0.1280 -0.0752 -0.6573
   84SAPS  H12X 7992   2.847   5.821   9.278 -1.4372 -2.1245 -2.1899
   84SAPS  H12Y 7993   2.963   5.722   9.196 -3.1826 -1.3093  0.9470
   84SAPS  C313 7994   2.878   5.867   9.061 -0.1563 -0.2845 -0.3444
   84SAPS  H13X 7995   2.965   5.886   8.994  0.7731 -4.0880 -0.4297
   84SAPS  H13Y 7996   2.818   5.961   9.067  0.8448  0.3001  4.2554
   84SAPS  C314 7997   2.795   5.756   8.998  0.0243  0.5104 -0.0357
   84SAPS  H14X 7998   2.854   5.663   8.987 -1.0950 -0.2414  0.1549
   84SAPS  H14Y 7999   2.770   5.803   8.901 -2.0764  0.5066  0.4452
   84SAPS  C315 8000   2.659   5.738   9.067 -0.0879 -0.6454  0.6624
   84SAPS  H15X 8001   2.624   5.843   9.083  0.2076 -0.4609  0.1196
   84SAPS  H15Y 8002   2.660   5.681   9.162  0.8644  0.9763  1.6567
   84SAPS  C316 8003   2.554   5.683   8.970  0.2462 -0.3721  0.0960
   84SAPS  H16X 8004   2.586   5.583   8.934  3.3204  0.7626 -0.6870
   84SAPS  H16Y 8005   2.570   5.744   8.878 -0.4357  0.7471  0.6909
   84SAPS  C317 8006   2.413   5.680   9.030  0.5474 -0.3019 -0.3588
   84SAPS  H17X 8007   2.420   5.601   9.108 -3.4656 -1.6467 -1.1673
   84SAPS  H17Y 8008   2.340   5.626   8.967 -0.1335  0.6668 -0.4218
   84SAPS  C318 8009   2.347   5.814   9.073 -0.3194  0.1955 -0.3785
   84SAPS  H18X 8010   2.400   5.876   9.147 -1.9207  3.1960 -1.5880
   84SAPS  H18Y 8011   2.243   5.792   9.105  0.0186 -2.1876 -0.6651
   84SAPS  H18Z 8012   2.333   5.877   8.983 -2.0376 -1.1335 -1.1096
   85SAPS     N 8013   1.122   6.017  11.164  0.0756 -0.4433 -0.6247
   85SAPS   HN1 8014   1.062   6.101  11.154  3.4409  2.0959 -1.3688
   85SAPS   HN2 8015   1.114   5.963  11.075 -1.8096 -2.3237  0.5816
   85SAPS   HN3 8016   1.104   5.953  11.244  1.1856 -0.6129 -0.4937
   85SAPS   C12 8017   1.266   6.071  11.165 -0.4615  0.2537 -0.1113
   85SAPS  H12A 8018   1.286   6.129  11.076  1.3545  0.6695  0.5231
   85SAPS   C13 8019   1.294   6.150  11.298  0.0234  0.0297 -0.6441
   85SAPS  O13A 8020   1.207   6.154  11.382  0.1051 -0.9629 -0.0447
   85SAPS  O13B 8021   1.406   6.194  11.319 -0.5280 -0.7936 -0.0998
   85SAPS   C11 8022   1.354   5.941  11.144  0.1275  0.4866  0.2395
   85SAPS  H11A 8023   1.315   5.853  11.200 -1.1822  0.7142 -0.2715
   85SAPS  H11B 8024   1.457   5.951  11.185 -0.0572  0.2354  0.7786
   85SAPS     P 8025   1.315   5.802  10.932 -0.0071  0.1084  0.1073
   85SAPS   O13 8026   1.403   5.681  10.949  0.1839 -0.0934 -0.3287
   85SAPS   O14 8027   1.179   5.810  10.995  0.1016 -0.9428 -0.8685
   85SAPS   O12 8028   1.384   5.918  11.002  0.1218  0.3060  0.2526
   85SAPS   O11 8029   1.323   5.838  10.774 -0.4443  0.3149 -0.0264
   85SAPS    C1 8030   1.259   5.961  10.737  0.3048  0.2586 -0.6967
   85SAPS    HA 8031   1.151   5.962  10.763  0.4213 -1.9358  0.0490
   85SAPS    HB 8032   1.315   6.040  10.792  2.3351 -1.8630  0.4376
   85SAPS    C2 8033   1.277   5.978  10.578  0.0081  0.3062  0.2817
   85SAPS    HS 8034   1.386   5.992  10.565  0.1746 -0.5052  0.7534
   85SAPS   O21 8035   1.194   6.077  10.530  0.0127 -0.2495  0.1649
   85SAPS   C21 8036   1.233   6.144  10.409 -0.2039  0.0976  0.2100
   85SAPS   O22 8037   1.343   6.133  10.361  0.7398  0.3006 -0.3296
   85SAPS   C22 8038   1.124   6.239  10.359  0.1212  0.0047 -0.3184
   85SAPS   H2R 8039   1.030   6.215  10.412 -0.0633  0.7688 -0.2859
   85SAPS   H2S 8040   1.163   6.337  10.392  0.2768 -0.5057  1.0764
   85SAPS    C3 8041   1.245   5.845  10.510  0.1530 -0.2319 -0.2384
   85SAPS    HX 8042   1.139   5.822  10.534 -0.5963  1.7501 -1.4226
   85SAPS    HY 8043   1.306   5.767  10.560  2.0720  0.7711 -0.8799
   85SAPS   O31 8044   1.268   5.843  10.370 -0.0720  0.0440  0.1030
   85SAPS   C31 8045   1.391   5.824  10.330  0.2001  0.0571 -0.1594
   85SAPS   O32 8046   1.484   5.814  10.408 -0.2262 -0.3290  0.6524
   85SAPS   C32 8047   1.398   5.805  10.177  0.1158  0.0869 -0.8599
   85SAPS   H2X 8048   1.304   5.763  10.137  0.2599  1.4123 -2.7450
   85SAPS   H2Y 8049   1.483   5.736  10.154  1.6991  2.2809 -1.9938
   85SAPS   C23 8050   1.095   6.226  10.210  0.1860  0.5351 -0.3244
   85SAPS   H3R 8051   1.064   6.122  10.188 -3.6471  1.0589  1.6089
   85SAPS   H3S 8052   1.188   6.257  10.158  0.5393 -0.4791 -0.3113
   85SAPS   C24 8053   0.972   6.309  10.176 -0.4911 -0.4276  0.4145
   85SAPS   H4R 8054   0.983   6.411  10.220  0.2079 -1.2740  2.2902
   85SAPS   H4S 8055   0.885   6.259  10.223 -0.4576 -0.9867 -0.1152
   85SAPS   C25 8056   0.952   6.315  10.024 -0.7095  0.0998  0.3335
   85SAPS   H5R 8057   0.987   6.230   9.964 -0.1658  0.1679  0.5517
   85SAPS   C26 8058   0.898   6.422   9.957  1.2450  0.4251 -0.5804
   85SAPS   H6R 8059   0.901   6.417   9.847  1.0518  1.4893 -0.6504
   85SAPS   C27 8060   0.852   6.553  10.019 -0.2973 -0.1461 -0.1094
   85SAPS   H7R 8061   0.842   6.532  10.128 -0.3930 -1.1265 -0.2976
   85SAPS   H7S 8062   0.753   6.590   9.985  0.6130  1.3733 -1.2636
   85SAPS   C28 8063   0.955   6.657  10.015 -0.2611 -0.4465 -0.3324
   85SAPS   H8R 8064   1.032   6.646  10.093  1.1408 -0.2594 -1.6423
   85SAPS   C29 8065   0.967   6.755   9.921  0.2300  0.0559 -0.1657
   85SAPS   H9R 8066   1.057   6.819   9.923  1.5645 -1.7044 -0.7915
   85SAPS  C210 8067   0.884   6.778   9.798  0.4114 -0.0709  0.5425
   85SAPS  H10R 8068   0.789   6.831   9.819  0.3669  0.0204  0.1221
   85SAPS  H10S 8069   0.848   6.682   9.754  1.1247  0.8474 -2.2496
   85SAPS  C211 8070   0.969   6.830   9.684  0.4808  0.6521  0.2106
   85SAPS  H11R 8071   1.077   6.841   9.702  0.8069  2.9323 -2.3456
   85SAPS  C212 8072   0.917   6.868   9.565  0.2399 -0.5203 -0.5731
   85SAPS  H12R 8073   0.982   6.913   9.489 -1.2284  1.3742 -0.7777
   85SAPS  C213 8074   0.776   6.870   9.533  0.6713  0.5973  1.1232
   85SAPS  H13R 8075   0.727   6.879   9.633  0.7396 -3.9889  1.8054
   85SAPS  H13S 8076   0.744   6.772   9.490  3.5103 -0.1871  0.5890
   85SAPS  C214 8077   0.743   6.983   9.440  0.2091 -0.3680 -0.0277
   85SAPS  H14R 8078   0.789   7.076   9.476  1.4585 -1.4413  1.3035
   85SAPS  C215 8079   0.646   7.003   9.349  0.2353  0.1199 -0.0830
   85SAPS  H15R 8080   0.670   7.086   9.281  1.4632 -0.8816 -0.9336
   85SAPS  C216 8081   0.538   6.902   9.311  0.2866  0.1929  0.3644
   85SAPS  H16R 8082   0.441   6.942   9.348 -0.2060 -0.3119 -0.3637
   85SAPS  H16S 8083   0.550   6.812   9.375 -3.5835 -1.4189 -0.8915
   85SAPS  C217 8084   0.523   6.869   9.160 -0.5854 -0.0883 -0.5093
   85SAPS  H17R 8085   0.432   6.808   9.145 -0.0602 -1.1382  0.3912
   85SAPS  H17S 8086   0.601   6.794   9.134 -0.6132 -0.0547 -0.6929
   85SAPS  C218 8087   0.516   6.983   9.062 -0.0389  0.0968  0.0767
   85SAPS  H18R 8088   0.578   7.069   9.097  1.2140 -1.0752  0.8301
   85SAPS  H18S 8089   0.408   7.010   9.062 -0.4389 -0.7783  4.1403
   85SAPS  C219 8090   0.568   6.934   8.925 -0.4664  0.1620  0.2841
   85SAPS  H19R 8091   0.505   6.843   8.914  1.4160 -1.2259  0.6244
   85SAPS  H19S 8092   0.677   6.913   8.922  0.0938  2.7974 -1.3267
   85SAPS  C220 8093   0.542   7.034   8.817 -0.0032 -0.5380 -0.3265
   85SAPS  H20R 8094   0.615   7.112   8.846  1.8718 -2.7244  1.1873
   85SAPS  H20S 8095   0.442   7.082   8.824  0.8981  1.1379  2.3691
   85SAPS  H20T 8096   0.568   6.980   8.723  0.1248 -0.2041 -0.4854
   85SAPS   C33 8097   1.449   5.940  10.117 -0.4259  0.1165 -1.3870
   85SAPS   H3X 8098   1.548   5.967  10.160 -0.9835  0.7611 -0.4697
   85SAPS   H3Y 8099   1.389   6.031  10.141  2.3892  1.8574 -0.4743
   85SAPS   C34 8100   1.460   5.942   9.963 -0.9272  0.5807  0.6497
   85SAPS   H4X 8101   1.512   5.847   9.938  0.0166  0.5071  2.6990
   85SAPS   H4Y 8102   1.529   6.025   9.935  2.3509 -1.5258  1.8614
   85SAPS   C35 8103   1.330   5.963   9.879 -0.1347 -0.4841 -1.0778
   85SAPS   H5X 8104   1.275   6.046   9.928  0.4568 -1.3535  1.1982
   85SAPS   H5Y 8105   1.268   5.871   9.883  2.0147 -1.9427  0.5446
   85SAPS   C36 8106   1.361   5.990   9.737 -0.7636  0.6948  0.3331
   85SAPS   H6X 8107   1.419   5.909   9.688 -0.3355  1.1102  0.1474
   85SAPS   H6Y 8108   1.430   6.076   9.727  1.5958 -1.2683 -1.5912
   85SAPS   C37 8109   1.235   6.026   9.653  0.1514  0.3040 -0.3845
   85SAPS   H7X 8110   1.194   6.121   9.695  3.5439  1.3538  0.9015
   85SAPS   H7Y 8111   1.166   5.941   9.666  1.4213 -0.5362  1.2584
   85SAPS   C38 8112   1.261   6.058   9.507 -0.3701  0.3001 -0.5564
   85SAPS   H8X 8113   1.319   5.975   9.462  0.1141 -0.2099  0.9305
   85SAPS   H8Y 8114   1.319   6.153   9.503  0.0982 -0.0059 -1.0767
   85SAPS   C39 8115   1.131   6.077   9.430 -0.5165  0.0250 -0.4346
   85SAPS   H9X 8116   1.089   6.178   9.446 -3.1261 -1.1843  0.9966
   85SAPS   H9Y 8117   1.050   6.018   9.479 -1.0522  0.6362 -0.5715
   85SAPS  C310 8118   1.159   6.039   9.283 -0.7047 -0.2033  0.5692
   85SAPS  H10X 8119   1.212   5.942   9.279  1.4327  0.9334  0.1000
   85SAPS  H10Y 8120   1.228   6.112   9.236  1.7244 -0.8454  2.8473
   85SAPS  C311 8121   1.025   6.056   9.215 -0.6459 -0.0964 -0.3011
   85SAPS  H11X 8122   0.981   6.155   9.238 -0.6980 -0.1252 -0.2794
   85SAPS  H11Y 8123   0.957   5.980   9.257 -1.5236 -0.3238 -2.0256
   85SAPS  C312 8124   1.014   6.035   9.062 -0.0951  0.7177 -0.4567
   85SAPS  H12X 8125   1.064   5.941   9.031  1.5847  0.9132  1.4453
   85SAPS  H12Y 8126   1.054   6.127   9.014  0.3839 -0.0567 -1.5665
   85SAPS  C313 8127   0.859   6.038   9.033  0.3108  0.0361 -0.2903
   85SAPS  H13X 8128   0.814   6.128   9.080 -0.0620 -0.1892 -0.2124
   85SAPS  H13Y 8129   0.805   5.954   9.081 -1.7567  0.5696 -1.5823
   85SAPS  C314 8130   0.834   6.047   8.883 -0.3506 -0.1394 -0.0723
   85SAPS  H14X 8131   0.858   5.944   8.849  0.6558  0.0481  0.0366
   85SAPS  H14Y 8132   0.899   6.121   8.831 -2.7339  0.5375 -2.3215
   85SAPS  C315 8133   0.693   6.088   8.848  0.2101  0.2790 -0.2606
   85SAPS  H15X 8134   0.663   6.178   8.906 -0.1605  0.1465 -0.2445
   85SAPS  H15Y 8135   0.627   6.003   8.876  2.1575 -1.8510 -1.7679
   85SAPS  C316 8136   0.666   6.106   8.702  0.2358  0.3286  0.1546
   85SAPS  H16X 8137   0.733   6.182   8.656 -2.3387  2.9324  0.3968
   85SAPS  H16Y 8138   0.558   6.130   8.689  0.3212  1.8777  1.9884
   85SAPS  C317 8139   0.689   5.978   8.623 -0.1244  1.0483  0.3670
   85SAPS  H17X 8140   0.611   5.902   8.644  1.0142  0.0871  1.3254
   85SAPS  H17Y 8141   0.790   5.933   8.636  0.2479  0.4759 -3.2900
   85SAPS  C318 8142   0.688   6.004   8.477  0.9833 -0.0153 -0.0149
   85SAPS  H18X 8143   0.773   6.069   8.448  1.4700 -0.7343 -0.2097
   85SAPS  H18Y 8144   0.594   6.049   8.439  2.2131  0.5635 -2.5604
   85SAPS  H18Z 8145   0.709   5.908   8.425 -0.1639 -0.5666  0.5141
   86SAPS     N 8146   2.994   6.731  11.350  0.1194 -0.3634 -0.5334
   86SAPS   HN1 8147   2.983   6.683  11.441 -0.4914 -2.0324 -1.4514
   86SAPS   HN2 8148   3.039   6.665  11.283  0.4440  0.1295 -0.8142
   86SAPS   HN3 8149   3.058   6.810  11.373 -2.0996  0.7185  2.5659
   86SAPS   C12 8150   2.879   6.783  11.279  0.2599 -0.2066  0.3128
   86SAPS  H12A 8151   2.826   6.706  11.226 -0.7389  0.0324  0.9409
   86SAPS   C13 8152   2.764   6.849  11.365  0.3363 -0.1202 -0.5839
   86SAPS  O13A 8153   2.758   6.826  11.492 -0.2196 -0.9884  0.3418
   86SAPS  O13B 8154   2.673   6.918  11.310  0.1140  1.1791  0.0796
   86SAPS   C11 8155   2.940   6.882  11.177 -0.0292  0.4934 -0.0440
   86SAPS  H11A 8156   3.007   6.956  11.225  0.7403 -0.6481  0.7125
   86SAPS  H11B 8157   2.845   6.928  11.142 -0.6463  0.2129  1.2272
   86SAPS     P 8158   2.943   6.747  10.946  0.5552  0.2654  0.2719
   86SAPS   O13 8159   2.829   6.667  10.989 -0.1033  0.6768  0.2307
   86SAPS   O14 8160   2.914   6.856  10.845 -0.2888 -0.8338  0.7328
   86SAPS   O12 8161   3.012   6.812  11.075 -0.0507 -0.2063  0.3520
   86SAPS   O11 8162   3.052   6.647  10.898 -0.4756  0.2438 -0.3968
   86SAPS    C1 8163   3.195   6.672  10.924  0.3675  0.4611  0.1217
   86SAPS    HA 8164   3.223   6.722  11.019  0.3339 -1.9220  1.4904
   86SAPS    HB 8165   3.244   6.572  10.926  0.3672  0.4707  1.2359
   86SAPS    C2 8166   3.264   6.768  10.823  0.0635 -0.6027  0.0615
   86SAPS    HS 8167   3.243   6.875  10.846  3.2274  0.7832 -2.5939
   86SAPS   O21 8168   3.230   6.733  10.686 -0.1825  0.1045 -0.7492
   86SAPS   C21 8169   3.209   6.820  10.600 -0.6154 -0.4401 -0.0600
   86SAPS   O22 8170   3.214   6.940  10.618  0.0596 -0.6798  0.2039
   86SAPS   C22 8171   3.180   6.753  10.463 -0.2956 -0.5364 -0.0631
   86SAPS   H2R 8172   3.276   6.713  10.425 -1.0752 -0.5317 -2.2066
   86SAPS   H2S 8173   3.097   6.681  10.478  0.3497 -0.9060  2.0241
   86SAPS    C3 8174   3.413   6.756  10.837 -0.6630  0.0515 -0.7367
   86SAPS    HX 8175   3.440   6.656  10.800  2.4808 -0.0275  1.4099
   86SAPS    HY 8176   3.437   6.765  10.945 -1.1496  1.8436 -0.7411
   86SAPS   O31 8177   3.478   6.850  10.747  0.6082  0.0935 -0.1471
   86SAPS   C31 8178   3.529   6.949  10.811 -0.5073  0.4844 -0.2741
   86SAPS   O32 8179   3.539   6.969  10.928  0.0538  0.0552 -0.5116
   86SAPS   C32 8180   3.588   7.046  10.699  0.0992  0.6493  0.2672
   86SAPS   H2X 8181   3.510   7.125  10.697 -0.1183  0.5357  2.3399
   86SAPS   H2Y 8182   3.591   6.981  10.609  2.3828 -1.0579  1.4648
   86SAPS   C23 8183   3.144   6.855  10.357  0.0016  0.0405  0.1283
   86SAPS   H3R 8184   3.211   6.943  10.359  0.6654 -0.4543  0.1345
   86SAPS   H3S 8185   3.041   6.892  10.373 -0.3826  0.0533 -2.0275
   86SAPS   C24 8186   3.149   6.795  10.212  0.0551  0.1309 -0.6256
   86SAPS   H4R 8187   3.258   6.778  10.197  0.5383  1.7356  0.7710
   86SAPS   H4S 8188   3.117   6.874  10.142 -0.1480  0.6634  0.0552
   86SAPS   C25 8189   3.044   6.685  10.201  0.5379  0.2430  0.2237
   86SAPS   H5R 8190   2.938   6.699  10.226  0.3208  0.8385 -0.9733
   86SAPS   C26 8191   3.078   6.565  10.140  0.2076 -0.2592 -0.6317
   86SAPS   H6R 8192   3.001   6.492  10.112 -0.0610 -0.2379  0.0398
   86SAPS   C27 8193   3.217   6.532  10.091 -0.0506  0.5431  0.1598
   86SAPS   H7R 8194   3.293   6.527  10.172  1.2330  1.5879 -0.9375
   86SAPS   H7S 8195   3.242   6.610  10.016 -2.3971  2.8256  1.5998
   86SAPS   C28 8196   3.229   6.397  10.026  0.1398  0.6355 -0.6187
   86SAPS   H8R 8197   3.286   6.323  10.085 -0.4061 -0.8155 -1.8448
   86SAPS   C29 8198   3.202   6.358   9.904  0.4587  0.0842  0.3020
   86SAPS   H9R 8199   3.212   6.253   9.873 -0.3404  0.9101 -3.2223
   86SAPS  C210 8200   3.154   6.439   9.785  0.6822  0.1984 -0.3110
   86SAPS  H10R 8201   3.121   6.539   9.820  1.5442 -0.9536  4.5188
   86SAPS  H10S 8202   3.052   6.397   9.775  1.3450 -1.2075 -1.7264
   86SAPS  C211 8203   3.233   6.419   9.652 -0.4641 -0.8768  0.2175
   86SAPS  H11R 8204   3.341   6.402   9.662  0.3047  2.7737 -0.3843
   86SAPS  C212 8205   3.169   6.419   9.533  0.1947  0.4813  0.3650
   86SAPS  H12R 8206   3.228   6.406   9.441  0.5548  2.8410  0.2023
   86SAPS  C213 8207   3.021   6.437   9.504  0.2628  0.4355 -0.1691
   86SAPS  H13R 8208   3.000   6.541   9.470  2.1092  0.9918  0.2728
   86SAPS  H13S 8209   2.961   6.433   9.597  1.2877 -1.9730  0.4599
   86SAPS  C214 8210   2.980   6.328   9.410  0.6075  0.4418 -0.2676
   86SAPS  H14R 8211   2.975   6.229   9.458 -1.1756  0.4732 -0.3402
   86SAPS  C215 8212   2.938   6.331   9.279  0.1342  0.3567 -0.0160
   86SAPS  H15R 8213   2.905   6.240   9.226  2.6485 -1.1491  0.8444
   86SAPS  C216 8214   2.938   6.460   9.192  0.0006  0.1606 -0.5113
   86SAPS  H16R 8215   2.963   6.542   9.263  2.3551 -1.3516  0.5557
   86SAPS  H16S 8216   2.843   6.482   9.139  0.0846  0.5059 -0.5181
   86SAPS  C217 8217   3.053   6.456   9.086 -0.4378 -0.1999  0.0365
   86SAPS  H17R 8218   3.041   6.369   9.017 -0.2745 -0.9316  0.9211
   86SAPS  H17S 8219   3.153   6.439   9.131  1.2314  0.2389 -3.1992
   86SAPS  C218 8220   3.054   6.585   9.004 -0.2658  0.3503  0.3893
   86SAPS  H18R 8221   3.061   6.676   9.067  0.7874 -0.3820  1.3737
   86SAPS  H18S 8222   2.962   6.587   8.942  0.1173 -2.5327 -0.4429
   86SAPS  C219 8223   3.183   6.593   8.916 -0.0347 -1.1715  0.4488
   86SAPS  H19R 8224   3.272   6.588   8.981 -0.0514  1.9279  0.8330
   86SAPS  H19S 8225   3.177   6.695   8.872 -3.1736 -1.3928  0.0908
   86SAPS  C220 8226   3.194   6.488   8.817  0.2222  0.0819  0.1765
   86SAPS  H20R 8227   3.290   6.491   8.762 -0.3099 -0.2254 -0.7979
   86SAPS  H20S 8228   3.113   6.498   8.742 -0.4354  0.0831  0.8761
   86SAPS  H20T 8229   3.176   6.384   8.852 -1.4806  0.6319  0.9947
   86SAPS   C33 8230   3.723   7.109  10.736 -0.0211 -0.0876  0.1619
   86SAPS   H3X 8231   3.806   7.036  10.744  0.2256  0.3450  2.2670
   86SAPS   H3Y 8232   3.711   7.142  10.842  1.4363  1.0902 -0.0031
   86SAPS   C34 8233   3.748   7.220  10.646  0.1936  0.3335  0.4128
   86SAPS   H4X 8234   3.837   7.286  10.651 -0.5307  1.2765  1.0968
   86SAPS   H4Y 8235   3.667   7.295  10.648 -0.5422 -0.4524  2.0696
   86SAPS   C35 8236   3.747   7.165  10.501  0.2734  0.1112 -0.3099
   86SAPS   H5X 8237   3.639   7.158  10.477 -0.7184  1.5977  3.0944
   86SAPS   H5Y 8238   3.797   7.065  10.495  0.7905  0.2695  0.9062
   86SAPS   C36 8239   3.820   7.258  10.403 -0.0296 -1.1459 -0.0721
   86SAPS   H6X 8240   3.925   7.270  10.436 -0.5057 -0.1405  1.1608
   86SAPS   H6Y 8241   3.772   7.355  10.428 -0.7828 -1.8970  1.5799
   86SAPS   C37 8242   3.814   7.212  10.256 -0.3114 -0.0321 -0.1024
   86SAPS   H7X 8243   3.713   7.176  10.229 -0.2897  0.7114 -1.2615
   86SAPS   H7Y 8244   3.874   7.119  10.249  0.6097  0.4466  1.0016
   86SAPS   C38 8245   3.859   7.320  10.156 -0.4025  0.6118  0.9638
   86SAPS   H8X 8246   3.963   7.334  10.193  0.9313 -1.7297 -1.5080
   86SAPS   H8Y 8247   3.800   7.410  10.184 -0.6228  0.8192 -0.1093
   86SAPS   C39 8248   3.835   7.283  10.011 -0.6316  0.2765  0.2449
   86SAPS   H9X 8249   3.880   7.358   9.943 -0.1959 -1.1690 -1.1174
   86SAPS   H9Y 8250   3.725   7.270  10.003 -0.4618 -0.9139 -0.3386
   86SAPS  C310 8251   3.895   7.149   9.967  0.0443  0.0789 -0.5157
   86SAPS  H10X 8252   3.907   7.071  10.046 -0.9782 -3.2911 -3.3889
   86SAPS  H10Y 8253   3.999   7.178   9.942 -0.2361  2.3675  0.7696
   86SAPS  C311 8254   3.815   7.091   9.854  0.5630 -0.3675  0.5815
   86SAPS  H11X 8255   3.711   7.063   9.880  0.2941  0.3747  0.3119
   86SAPS  H11Y 8256   3.876   7.002   9.823  0.6189  0.2113 -1.0821
   86SAPS  C312 8257   3.817   7.176   9.722  0.4659  0.2624 -0.2745
   86SAPS  H12X 8258   3.919   7.217   9.708  0.2545  0.3870 -1.5476
   86SAPS  H12Y 8259   3.744   7.260   9.727  1.3805  1.3077 -2.6833
   86SAPS  C313 8260   3.765   7.093   9.604 -0.1200  0.5755 -0.5858
   86SAPS  H13X 8261   3.657   7.080   9.625  0.1183  0.0158  0.4145
   86SAPS  H13Y 8262   3.818   6.995   9.597  0.5898  0.9673 -0.7823
   86SAPS  C314 8263   3.792   7.179   9.475 -0.5997 -0.0384  0.2812
   86SAPS  H14X 8264   3.900   7.204   9.473 -1.1791  2.8141  0.2989
   86SAPS  H14Y 8265   3.741   7.276   9.492  1.5372  1.1296  0.3841
   86SAPS  C315 8266   3.745   7.117   9.341  0.6911  0.0289  0.1601
   86SAPS  H15X 8267   3.648   7.064   9.354  0.4553  0.1161 -1.0578
   86SAPS  H15Y 8268   3.816   7.037   9.313  0.8567  0.1247  0.3050
   86SAPS  C316 8269   3.738   7.227   9.232  0.1513  0.2310  0.3072
   86SAPS  H16X 8270   3.840   7.257   9.199  1.2518 -3.4657 -0.0907
   86SAPS  H16Y 8271   3.688   7.315   9.278 -1.3575 -1.5765  2.2958
   86SAPS  C317 8272   3.660   7.187   9.109  0.0388 -0.3059 -0.5225
   86SAPS  H17X 8273   3.657   7.270   9.035 -1.3378  0.9296  0.8358
   86SAPS  H17Y 8274   3.552   7.167   9.130 -0.4441  3.3767  1.2192
   86SAPS  C318 8275   3.725   7.070   9.046 -0.0920  0.1052  0.0891
   86SAPS  H18X 8276   3.700   6.980   9.105  0.3813  0.7941  1.3906
   86SAPS  H18Y 8277   3.835   7.085   9.049 -0.2037  0.7410  2.8824
   86SAPS  H18Z 8278   3.696   7.055   8.939  0.1591 -0.5255  0.1086
   87SAPS     N 8279   3.473   2.693  11.253  0.1244  0.3287  0.5749
   87SAPS   HN1 8280   3.453   2.791  11.284 -0.8566 -0.4830  2.6917
   87SAPS   HN2 8281   3.449   2.631  11.333  1.2942  0.8286  1.3448
   87SAPS   HN3 8282   3.575   2.686  11.234  0.0573 -1.2418  0.7071
   87SAPS   C12 8283   3.399   2.658  11.128 -0.5332 -0.1960 -0.2121
   87SAPS  H12A 8284   3.385   2.551  11.132 -0.0358 -0.3403 -1.7408
   87SAPS   C13 8285   3.263   2.733  11.118 -0.1750  0.6803 -0.4386
   87SAPS  O13A 8286   3.229   2.801  11.218  0.2653 -0.4713 -0.3442
   87SAPS  O13B 8287   3.188   2.716  11.018  0.4568 -0.1141 -0.7603
   87SAPS   C11 8288   3.484   2.709  11.009  0.7506 -0.9468  0.0601
   87SAPS  H11A 8289   3.461   2.818  11.003 -0.8458 -1.3173 -1.1081
   87SAPS  H11B 8290   3.439   2.666  10.917 -4.5855  3.2878  0.1342
   87SAPS     P 8291   3.718   2.721  10.900  0.0863 -0.2161 -0.0361
   87SAPS   O13 8292   3.715   2.866  10.864 -0.7173 -0.3670  0.5967
   87SAPS   O14 8293   3.853   2.668  10.938 -0.1852  0.4870 -0.3059
   87SAPS   O12 8294   3.622   2.688  11.018  0.2193  0.4014 -0.6993
   87SAPS   O11 8295   3.656   2.627  10.796 -0.2084 -0.3422 -0.0304
   87SAPS    C1 8296   3.733   2.597  10.677 -0.0637  0.0064 -0.5310
   87SAPS    HA 8297   3.837   2.562  10.694 -0.8400 -2.2809 -0.1097
   87SAPS    HB 8298   3.687   2.506  10.633  1.1825 -0.3966 -1.0556
   87SAPS    C2 8299   3.727   2.714  10.575  0.1982  0.5192  0.5799
   87SAPS    HS 8300   3.784   2.803  10.608 -1.4864  3.2528 -3.1239
   87SAPS   O21 8301   3.590   2.750  10.554  0.2554  0.0770  0.7044
   87SAPS   C21 8302   3.566   2.881  10.531 -0.1482  0.0888 -0.1285
   87SAPS   O22 8303   3.649   2.973  10.550  0.2630  0.1371  0.7377
   87SAPS   C22 8304   3.426   2.895  10.474  0.1985 -0.6369  0.0834
   87SAPS   H2R 8305   3.347   2.895  10.552  1.5023  0.1401  1.4491
   87SAPS   H2S 8306   3.423   2.994  10.423  0.2931 -0.1929  0.9196
   87SAPS    C3 8307   3.788   2.680  10.430  0.2211 -0.4381  0.0530
   87SAPS    HX 8308   3.722   2.598  10.396 -1.3362  0.4913  0.7477
   87SAPS    HY 8309   3.891   2.645  10.452  1.2158  3.1518  1.8595
   87SAPS   O31 8310   3.789   2.798  10.342 -0.4594  0.1811  0.2045
   87SAPS   C31 8311   3.909   2.867  10.345 -0.0815  0.3528  0.7477
   87SAPS   O32 8312   4.011   2.823  10.404 -0.2968 -0.5577 -0.0075
   87SAPS   C32 8313   3.894   2.993  10.257  0.1962 -0.0805 -0.4713
   87SAPS   H2X 8314   3.897   3.076  10.331 -0.2201  1.8724 -2.5333
   87SAPS   H2Y 8315   3.795   2.988  10.206 -0.8323 -1.5119  1.5463
   87SAPS   C23 8316   3.374   2.794  10.373 -0.5173 -0.2039  0.2182
   87SAPS   H3R 8317   3.274   2.830  10.341 -1.1686  1.1377  3.3658
   87SAPS   H3S 8318   3.357   2.696  10.422  4.5299 -1.0526  0.7452
   87SAPS   C24 8319   3.458   2.792  10.247  0.5893  0.1820  0.2642
   87SAPS   H4R 8320   3.542   2.722  10.265  0.9510  0.3884 -0.5906
   87SAPS   H4S 8321   3.500   2.890  10.217  1.3831 -0.3971 -0.5751
   87SAPS   C25 8322   3.382   2.745  10.122 -0.1947  0.4427 -0.3066
   87SAPS   H5R 8323   3.273   2.733  10.135 -0.0455  1.3142  2.3002
   87SAPS   C26 8324   3.445   2.708  10.005 -0.0765  0.7113 -0.1380
   87SAPS   H6R 8325   3.391   2.647   9.932  1.2084 -0.1070 -0.4486
   87SAPS   C27 8326   3.597   2.702   9.984 -0.0667 -0.7208 -0.3664
   87SAPS   H7R 8327   3.620   2.594   9.974  0.3027 -0.9489  2.1528
   87SAPS   H7S 8328   3.654   2.735  10.074 -1.8563  0.2448  0.4761
   87SAPS   C28 8329   3.638   2.784   9.865 -0.2529 -0.4093 -0.2820
   87SAPS   H8R 8330   3.630   2.891   9.891  1.1054 -0.2482 -0.4657
   87SAPS   C29 8331   3.664   2.746   9.740  0.4521 -0.5102 -0.4497
   87SAPS   H9R 8332   3.686   2.823   9.664 -1.7861  1.3627  0.6667
   87SAPS  C210 8333   3.667   2.609   9.678 -0.0003 -0.2112  0.5848
   87SAPS  H10R 8334   3.571   2.554   9.674  1.7096 -3.3549 -1.6448
   87SAPS  H10S 8335   3.737   2.542   9.733  0.6353 -1.4215 -1.5890
   87SAPS  C211 8336   3.727   2.613   9.543 -0.8678  0.5333  0.4770
   87SAPS  H11R 8337   3.833   2.587   9.554 -1.1437 -0.4373  0.9289
   87SAPS  C212 8338   3.673   2.632   9.425 -0.2378  0.4625 -0.3315
   87SAPS  H12R 8339   3.727   2.634   9.330 -0.1401  1.9075 -0.2678
   87SAPS  C213 8340   3.522   2.653   9.395 -0.3435  0.2019 -0.0036
   87SAPS  H13R 8341   3.521   2.745   9.333 -1.2922  1.2665  1.5025
   87SAPS  H13S 8342   3.470   2.671   9.492 -0.8782 -1.5340  0.0633
   87SAPS  C214 8343   3.469   2.525   9.335 -0.4131 -1.1158 -0.2085
   87SAPS  H14R 8344   3.410   2.462   9.404 -0.4313  0.1480  0.9949
   87SAPS  C215 8345   3.467   2.506   9.201 -0.5038 -0.3014 -0.1227
   87SAPS  H15R 8346   3.431   2.407   9.168  1.9816 -2.1774  2.3201
   87SAPS  C216 8347   3.535   2.603   9.102 -0.4998 -0.0806  1.0148
   87SAPS  H16R 8348   3.593   2.540   9.031 -1.3131  0.4290 -0.1412
   87SAPS  H16S 8349   3.604   2.675   9.151 -0.6417  1.5154 -1.0091
   87SAPS  C217 8350   3.428   2.682   9.030  0.1397 -0.0248  0.1539
   87SAPS  H17R 8351   3.470   2.760   8.963 -0.4926  1.5731  1.5330
   87SAPS  H17S 8352   3.369   2.743   9.101 -0.8689 -0.9094  0.0923
   87SAPS  C218 8353   3.331   2.599   8.945  0.0964  0.4105 -0.1637
   87SAPS  H18R 8354   3.278   2.521   9.004 -1.6499 -0.2592 -2.4711
   87SAPS  H18S 8355   3.399   2.534   8.886 -0.5094  0.3131 -0.7678
   87SAPS  C219 8356   3.224   2.663   8.853  0.1690 -0.3432 -0.8072
   87SAPS  H19R 8357   3.274   2.747   8.800  0.6882 -1.7469 -2.6555
   87SAPS  H19S 8358   3.148   2.709   8.919  0.3543 -1.6069  0.3188
   87SAPS  C220 8359   3.165   2.567   8.747 -0.2790 -0.2203  0.0767
   87SAPS  H20R 8360   3.121   2.476   8.794 -2.0330  0.0119 -1.0366
   87SAPS  H20S 8361   3.240   2.537   8.671  0.0955 -0.2631  0.4552
   87SAPS  H20T 8362   3.078   2.601   8.688 -0.0619 -1.4404 -0.9875
   87SAPS   C33 8363   4.002   2.994  10.152  0.1383 -0.2279 -0.3992
   87SAPS   H3X 8364   4.001   2.899  10.095  2.6503 -1.6695  1.6964
   87SAPS   H3Y 8365   4.103   3.007  10.197 -1.4798  1.9337  3.0699
   87SAPS   C34 8366   3.987   3.110  10.043 -0.4916 -0.1820  0.8479
   87SAPS   H4X 8367   4.000   3.201  10.105  2.1402  0.5069 -0.5619
   87SAPS   H4Y 8368   3.884   3.103  10.004  0.0195 -0.2664 -0.5306
   87SAPS   C35 8369   4.082   3.113   9.930 -0.0596 -0.0327 -0.3773
   87SAPS   H5X 8370   4.184   3.110   9.974 -0.4585  0.2051  0.5841
   87SAPS   H5Y 8371   4.069   3.213   9.885 -2.7851  0.3329  1.0551
   87SAPS   C36 8372   4.067   2.984   9.845  0.0915 -0.0460  0.4102
   87SAPS   H6X 8373   3.979   2.920   9.865 -2.0925  2.4397 -0.6600
   87SAPS   H6Y 8374   4.161   2.927   9.861  0.9365  0.6252 -1.7916
   87SAPS   C37 8375   4.054   3.028   9.704  0.3227 -0.4107  0.2693
   87SAPS   H7X 8376   4.138   3.097   9.678  2.3695 -2.3703  1.3136
   87SAPS   H7Y 8377   3.953   3.074   9.699  0.0499 -1.0617 -0.3086
   87SAPS   C38 8378   4.042   2.913   9.602 -0.0292 -0.3429  0.0258
   87SAPS   H8X 8379   3.947   2.855   9.610 -1.3241  1.4793 -1.1489
   87SAPS   H8Y 8380   4.134   2.853   9.614  0.4791  0.3470 -0.3475
   87SAPS   C39 8381   4.045   2.956   9.456  0.1220  0.3108 -0.4711
   87SAPS   H9X 8382   4.136   3.018   9.437 -0.0365  1.5978  2.4375
   87SAPS   H9Y 8383   3.959   3.025   9.451 -0.6743 -0.4359  1.6672
   87SAPS  C310 8384   4.027   2.845   9.353 -0.7582 -0.4244  0.1565
   87SAPS  H10X 8385   3.968   2.757   9.388  1.7720 -1.1239  3.0942
   87SAPS  H10Y 8386   4.126   2.800   9.328 -0.3050  0.1070  0.9500
   87SAPS  C311 8387   3.965   2.900   9.231 -0.1621 -0.0245  0.4480
   87SAPS  H11X 8388   4.039   2.957   9.170  0.2040 -2.0934 -1.1488
   87SAPS  H11Y 8389   3.869   2.948   9.257 -1.2195 -0.8190 -1.7984
   87SAPS  C312 8390   3.917   2.785   9.136 -0.3706  0.4665 -0.4070
   87SAPS  H12X 8391   3.837   2.722   9.181  0.3856  0.8911  1.6448
   87SAPS  H12Y 8392   4.008   2.726   9.112 -0.1909  1.1149 -1.4023
   87SAPS  C313 8393   3.864   2.840   8.997  0.4374  0.4535  0.4443
   87SAPS  H13X 8394   3.934   2.910   8.947  0.4580  0.8040  0.9664
   87SAPS  H13Y 8395   3.768   2.889   9.023 -0.2294 -0.0680 -0.9280
   87SAPS  C314 8396   3.837   2.721   8.902 -0.4947 -0.2396  0.4024
   87SAPS  H14X 8397   3.778   2.647   8.960 -1.6150  0.7055  0.5049
   87SAPS  H14Y 8398   3.931   2.666   8.880 -0.5403 -0.3203  0.4100
   87SAPS  C315 8399   3.770   2.748   8.765 -0.3587 -0.7357 -0.3537
   87SAPS  H15X 8400   3.778   2.856   8.737  1.2181 -1.1959 -1.8402
   87SAPS  H15Y 8401   3.660   2.731   8.773 -0.5153  0.5775  0.8017
   87SAPS  C316 8402   3.837   2.669   8.657 -0.6461 -0.0738 -0.4578
   87SAPS  H16X 8403   3.829   2.563   8.688 -1.8731 -0.0829 -0.7724
   87SAPS  H16Y 8404   3.945   2.694   8.656 -0.3473 -1.2108 -2.1073
   87SAPS  C317 8405   3.772   2.697   8.523  0.3586  0.4709  0.2355
   87SAPS  H17X 8406   3.755   2.806   8.509  3.1056  1.1944  1.7740
   87SAPS  H17Y 8407   3.675   2.644   8.528  1.5702 -2.1164 -1.3919
   87SAPS  C318 8408   3.847   2.641   8.410 -0.4146  0.5054  0.2462
   87SAPS  H18X 8409   3.944   2.695   8.407 -0.7048  1.1043  1.1294
   87SAPS  H18Y 8410   3.790   2.653   8.316 -3.3947  1.1281  2.0118
   87SAPS  H18Z 8411   3.883   2.539   8.438 -0.7402 -0.1885 -1.7324
   88SAPS     N 8412   4.694   5.173  10.864  0.6188 -0.0719 -0.4741
   88SAPS   HN1 8413   4.772   5.105  10.853 -0.1297 -1.1566  0.7317
   88SAPS   HN2 8414   4.629   5.130  10.933 -1.7561  3.0102 -0.5648
   88SAPS   HN3 8415   4.657   5.183  10.767  2.9238  2.4164 -1.2351
   88SAPS   C12 8416   4.725   5.307  10.929  0.5506 -0.4417  0.8194
   88SAPS  H12A 8417   4.641   5.370  10.904  1.4092  0.4147  0.0111
   88SAPS   C13 8418   4.730   5.303  11.078 -0.2745  0.0329 -0.1115
   88SAPS  O13A 8419   4.732   5.196  11.143 -0.2973  0.1683 -0.2340
   88SAPS  O13B 8420   4.744   5.413  11.144  0.5718  0.1498 -0.6567
   88SAPS   C11 8421   4.845   5.384  10.857  0.8636 -0.2594  0.1036
   88SAPS  H11A 8422   4.839   5.486  10.898 -2.8704 -0.5085  0.5843
   88SAPS  H11B 8423   4.830   5.397  10.747 -0.0464  0.7821  0.3276
   88SAPS     P 8424   5.036   5.206  10.812 -0.1151 -0.0111 -0.3516
   88SAPS   O13 8425   5.183   5.209  10.828  0.0428  0.4204 -0.0633
   88SAPS   O14 8426   4.962   5.081  10.855 -0.6517 -0.6835  0.0881
   88SAPS   O12 8427   4.969   5.326  10.890 -0.3519  0.4982  0.0615
   88SAPS   O11 8428   5.011   5.236  10.653  0.3690 -0.3981  0.3082
   88SAPS    C1 8429   5.040   5.363  10.586 -0.2605  0.3772  0.4239
   88SAPS    HA 8430   4.943   5.401  10.546  0.1693  0.4019 -0.6146
   88SAPS    HB 8431   5.074   5.451  10.645 -0.9918 -0.1967  1.7268
   88SAPS    C2 8432   5.136   5.350  10.462  0.2313  0.1527 -0.6200
   88SAPS    HS 8433   5.118   5.448  10.412  0.3136  1.1221  1.1652
   88SAPS   O21 8434   5.095   5.234  10.379 -0.3548 -0.6188  0.0185
   88SAPS   C21 8435   5.063   5.260  10.256 -0.2298 -0.0811  0.0954
   88SAPS   O22 8436   5.053   5.370  10.203  0.3211 -0.1077  0.2329
   88SAPS   C22 8437   5.020   5.130  10.183 -0.1798 -0.0746  0.0312
   88SAPS   H2R 8438   5.111   5.066  10.177  0.4222  0.8136 -0.4016
   88SAPS   H2S 8439   4.940   5.074  10.237 -0.0621  0.7069  1.0296
   88SAPS    C3 8440   5.285   5.337  10.503 -0.2825  0.0675 -0.4298
   88SAPS    HX 8441   5.301   5.253  10.574  0.0125  0.6950  0.2470
   88SAPS    HY 8442   5.326   5.426  10.553 -1.4107  0.7520 -0.6878
   88SAPS   O31 8443   5.374   5.317  10.385 -0.4019 -0.4212  0.5703
   88SAPS   C31 8444   5.396   5.417  10.306  0.1237  0.8861  0.7373
   88SAPS   O32 8445   5.353   5.526  10.327 -0.2080  0.4043  0.0289
   88SAPS   C32 8446   5.485   5.381  10.184 -0.5222 -0.2003  0.4977
   88SAPS   H2X 8447   5.526   5.278  10.197  1.2552  0.4521  0.2638
   88SAPS   H2Y 8448   5.571   5.451  10.192 -1.6573  1.4306 -0.9682
   88SAPS   C23 8449   4.987   5.158  10.031  0.4547  0.5323  0.3638
   88SAPS   H3R 8450   5.050   5.233   9.979  1.3641 -2.1309 -2.6699
   88SAPS   H3S 8451   4.885   5.203  10.032  0.6663  1.0086  0.6334
   88SAPS   C24 8452   4.971   5.036   9.944  0.1387 -0.2784  0.0810
   88SAPS   H4R 8453   4.914   5.065   9.853  0.0506 -1.8010 -0.3907
   88SAPS   H4S 8454   4.917   4.957  10.001 -0.3966 -0.0309 -0.0805
   88SAPS   C25 8455   5.100   4.983   9.888 -0.3854 -0.9734  0.2264
   88SAPS   H5R 8456   5.186   4.986   9.956  0.6017 -0.4307 -1.0226
   88SAPS   C26 8457   5.137   4.956   9.760  0.6346  0.0976 -0.6700
   88SAPS   H6R 8458   5.240   4.924   9.736  1.0099  1.7563 -1.4232
   88SAPS   C27 8459   5.047   4.981   9.638  0.1692  0.7208 -0.6314
   88SAPS   H7R 8460   4.945   5.011   9.668 -0.1344 -1.6234  0.9089
   88SAPS   H7S 8461   5.031   4.905   9.559 -0.6628  0.0603  0.1525
   88SAPS   C28 8462   5.092   5.103   9.566  0.3687 -0.5898 -0.2108
   88SAPS   H8R 8463   5.125   5.185   9.631 -0.5473 -0.8968  0.6655
   88SAPS   C29 8464   5.092   5.116   9.431 -0.1145 -0.7027 -0.7636
   88SAPS   H9R 8465   5.138   5.211   9.399 -2.4525  0.9495  0.4908
   88SAPS  C210 8466   5.067   5.032   9.309 -0.5825  0.8931  0.1672
   88SAPS  H10R 8467   5.094   4.927   9.332  5.0043  1.9737 -0.1767
   88SAPS  H10S 8468   5.136   5.054   9.225  1.3941  1.4798  1.8652
   88SAPS  C211 8469   4.926   5.038   9.257  0.1478 -0.3962 -0.5743
   88SAPS  H11R 8470   4.853   4.964   9.293  1.0083 -0.5227  1.0222
   88SAPS  C212 8471   4.886   5.147   9.183 -0.0256  0.4396 -0.3500
   88SAPS  H12R 8472   4.779   5.159   9.162 -0.1224  1.0746  0.4297
   88SAPS  C213 8473   4.964   5.262   9.124 -0.6585 -0.3698 -0.3115
   88SAPS  H13R 8474   5.069   5.279   9.158 -0.2849 -1.3931 -0.9261
   88SAPS  H13S 8475   4.912   5.355   9.157 -1.7061 -1.5620  1.6110
   88SAPS  C214 8476   4.978   5.257   8.974 -1.0251  0.2653  0.3358
   88SAPS  H14R 8477   5.050   5.182   8.937 -1.8674 -1.2008  1.5217
   88SAPS  C215 8478   4.926   5.334   8.878 -0.5325 -0.6042  0.2007
   88SAPS  H15R 8479   4.945   5.322   8.771 -4.9028 -0.0013 -0.8386
   88SAPS  C216 8480   4.836   5.454   8.902 -0.1217  0.3353  0.2770
   88SAPS  H16R 8481   4.829   5.494   9.006 -1.1886  1.7249 -0.2908
   88SAPS  H16S 8482   4.730   5.435   8.874  0.1875 -2.7076  0.8406
   88SAPS  C217 8483   4.892   5.583   8.832 -0.5995  0.8209 -0.1559
   88SAPS  H17R 8484   4.905   5.564   8.723  0.4905 -2.6438  0.4686
   88SAPS  H17S 8485   4.992   5.612   8.872 -0.4230  0.9886 -0.7064
   88SAPS  C218 8486   4.805   5.711   8.851 -0.4569 -0.2005  0.2449
   88SAPS  H18R 8487   4.798   5.718   8.962  0.6541  1.8585  0.2173
   88SAPS  H18S 8488   4.701   5.704   8.811  0.6167  0.0939 -2.8550
   88SAPS  C219 8489   4.877   5.840   8.795 -0.3151  0.7213  0.5688
   88SAPS  H19R 8490   4.977   5.840   8.843 -0.2630  2.7165  0.5141
   88SAPS  H19S 8491   4.828   5.931   8.835  2.0179  2.1369  0.3843
   88SAPS  C220 8492   4.891   5.837   8.636 -0.6363 -0.2097 -0.0605
   88SAPS  H20R 8493   4.967   5.914   8.609 -0.6750 -0.5300 -1.1467
   88SAPS  H20S 8494   4.795   5.861   8.585  0.8703  1.1943 -2.4356
   88SAPS  H20T 8495   4.929   5.736   8.607 -1.3382 -0.0306 -1.7244
   88SAPS   C33 8496   5.407   5.394  10.052  0.1624 -0.0095  0.5063
   88SAPS   H3X 8497   5.370   5.497  10.033  0.9866  0.7149  2.6095
   88SAPS   H3Y 8498   5.324   5.320  10.049 -0.9023  1.1722 -0.0355
   88SAPS   C34 8499   5.498   5.346   9.940  0.5506  0.3386 -0.7187
   88SAPS   H4X 8500   5.510   5.237   9.959 -0.6609  0.1386 -1.0697
   88SAPS   H4Y 8501   5.599   5.393   9.949  0.3969  0.7137 -0.9517
   88SAPS   C35 8502   5.447   5.351   9.799 -0.0506  0.1209 -0.3236
   88SAPS   H5X 8503   5.448   5.456   9.763 -1.4943 -0.3544 -1.8672
   88SAPS   H5Y 8504   5.339   5.329   9.804  0.4101 -2.2095  0.4966
   88SAPS   C36 8505   5.514   5.264   9.697  0.0795  0.2057 -0.0215
   88SAPS   H6X 8506   5.504   5.159   9.734 -2.2321 -0.4509 -2.2036
   88SAPS   H6Y 8507   5.620   5.294   9.698 -0.1303  1.1059 -1.7526
   88SAPS   C37 8508   5.458   5.278   9.562 -0.2325  0.5526  0.5743
   88SAPS   H7X 8509   5.446   5.387   9.545 -1.4039  0.3605  0.0988
   88SAPS   H7Y 8510   5.366   5.217   9.563 -0.9573  1.6213  1.0360
   88SAPS   C38 8511   5.542   5.219   9.444  0.1102 -0.2436 -0.0106
   88SAPS   H8X 8512   5.557   5.111   9.465  1.4735 -0.1541 -0.4425
   88SAPS   H8Y 8513   5.637   5.276   9.440 -0.7832  1.3019 -0.4291
   88SAPS   C39 8514   5.479   5.215   9.307  0.2109 -0.1466  0.0029
   88SAPS   H9X 8515   5.502   5.314   9.263 -2.3614  0.6725  0.2981
   88SAPS   H9Y 8516   5.368   5.212   9.321  0.3666  2.0223  2.2071
   88SAPS  C310 8517   5.523   5.101   9.206  0.1349  0.1366  0.4300
   88SAPS  H10X 8518   5.459   5.114   9.117  0.3876 -1.0253  0.0588
   88SAPS  H10Y 8519   5.502   5.003   9.253 -0.3502 -0.4201 -0.9064
   88SAPS  C311 8520   5.666   5.091   9.153  0.2423  0.2045  0.3515
   88SAPS  H11X 8521   5.671   5.012   9.075  2.2021 -0.3774  1.0083
   88SAPS  H11Y 8522   5.733   5.068   9.239  0.4120 -0.5751  0.0188
   88SAPS  C312 8523   5.707   5.216   9.074  0.0513 -0.3004 -0.0901
   88SAPS  H12X 8524   5.812   5.203   9.041  0.3864 -1.7622  1.3900
   88SAPS  H12Y 8525   5.701   5.294   9.153 -0.5124 -1.4952  1.1068
   88SAPS  C313 8526   5.638   5.253   8.941 -0.0631 -0.4937 -0.3706
   88SAPS  H13X 8527   5.650   5.361   8.918  1.3002 -1.2414 -3.7203
   88SAPS  H13Y 8528   5.528   5.238   8.950 -0.1311  0.5528  0.8555
   88SAPS  C314 8529   5.680   5.171   8.815  0.3520  0.6443  0.1700
   88SAPS  H14X 8530   5.630   5.072   8.810 -1.0822  1.3912 -0.8775
   88SAPS  H14Y 8531   5.790   5.153   8.816 -0.1354 -3.2913  0.2613
   88SAPS  C315 8532   5.648   5.241   8.679  0.1407  0.4298  0.0113
   88SAPS  H15X 8533   5.736   5.225   8.614 -0.6723 -1.5243 -0.6848
   88SAPS  H15Y 8534   5.645   5.349   8.707  0.1930  0.3881  0.1774
   88SAPS  C316 8535   5.524   5.191   8.611  0.4278  0.0953  0.1862
   88SAPS  H16X 8536   5.442   5.220   8.681  1.1505  1.2739  0.5681
   88SAPS  H16Y 8537   5.533   5.081   8.606 -1.0131  0.0084 -1.8408
   88SAPS  C317 8538   5.504   5.242   8.474 -0.1250  0.3710  0.4347
   88SAPS  H17X 8539   5.568   5.187   8.402 -0.1474 -0.2169  0.8540
   88SAPS  H17Y 8540   5.520   5.351   8.463 -2.1961  0.7452  0.6292
   88SAPS  C318 8541   5.365   5.205   8.415  0.2174  1.1651 -0.2476
   88SAPS  H18X 8542   5.352   5.237   8.309 -1.5742 -0.9106 -0.7243
   88SAPS  H18Y 8543   5.279   5.257   8.462 -0.6247  0.8912 -1.4333
   88SAPS  H18Z 8544   5.347   5.096   8.418 -0.0152  1.2087 -0.0303
   89SAPS     N 8545   5.871   0.736  10.726 -0.2369 -0.4277 -0.5133
   89SAPS   HN1 8546   5.770   0.720  10.706 -0.7975 -1.3787  2.5699
   89SAPS   HN2 8547   5.870   0.815  10.793 -2.0234 -0.0561 -0.9327
   89SAPS   HN3 8548   5.919   0.763  10.638 -2.6492 -2.8757 -2.7922
   89SAPS   C12 8549   5.938   0.626  10.790  0.4621  0.5174  0.1843
   89SAPS  H12A 8550   6.040   0.658  10.804  1.1109 -1.0991 -0.5611
   89SAPS   C13 8551   5.879   0.595  10.932  0.9534 -0.0494  0.0699
   89SAPS  O13A 8552   5.818   0.683  10.999 -0.0546 -0.0377  0.5391
   89SAPS  O13B 8553   5.904   0.481  10.983  0.4744 -0.3009 -0.2665
   89SAPS   C11 8554   5.913   0.506  10.698 -0.0563  0.3742  0.0705
   89SAPS  H11A 8555   5.948   0.413  10.747 -0.8855 -0.8366 -1.5344
   89SAPS  H11B 8556   5.967   0.515  10.601  2.4665 -2.7720  1.0282
   89SAPS     P 8557   5.701   0.349  10.672  0.3526  0.0264  0.2609
   89SAPS   O13 8558   5.783   0.259  10.761 -0.3186  0.0605  0.6319
   89SAPS   O14 8559   5.557   0.352  10.708  0.1266 -0.5713  0.0424
   89SAPS   O12 8560   5.768   0.494  10.670  0.1795 -0.2933 -0.2363
   89SAPS   O11 8561   5.725   0.309  10.517 -0.2281  0.4593 -0.2054
   89SAPS    C1 8562   5.666   0.390  10.419  0.9262  0.4641  0.1669
   89SAPS    HA 8563   5.557   0.403  10.435  0.9139  0.8429 -0.2033
   89SAPS    HB 8564   5.704   0.493  10.434  1.8050 -0.0126  1.3172
   89SAPS    C2 8565   5.700   0.351  10.273 -0.3183  0.4386  0.2412
   89SAPS    HS 8566   5.674   0.438  10.209  1.7419 -0.6346 -2.2523
   89SAPS   O21 8567   5.642   0.224  10.242  0.3512 -0.3028 -0.4137
   89SAPS   C21 8568   5.532   0.233  10.177  0.1519  0.4493  0.3088
   89SAPS   O22 8569   5.480   0.330  10.128 -0.6747 -0.6367  0.3607
   89SAPS   C22 8570   5.479   0.090  10.158  0.1311  0.3145  0.3131
   89SAPS   H2R 8571   5.566   0.021  10.161  1.7987  2.3165  0.0853
   89SAPS   H2S 8572   5.420   0.082  10.252  0.2995  3.2742  0.7820
   89SAPS    C3 8573   5.851   0.349  10.249 -1.0917 -0.1313  0.8298
   89SAPS    HX 8574   5.891   0.267  10.312 -0.4383  0.2381  0.9029
   89SAPS    HY 8575   5.888   0.448  10.283 -2.8193 -0.0353  2.6342
   89SAPS   O31 8576   5.885   0.323  10.108  0.6395  0.6217 -0.0943
   89SAPS   C31 8577   5.867   0.421  10.023  0.6903  0.3209 -0.6527
   89SAPS   O32 8578   5.857   0.538  10.058  0.2608 -0.6095  0.1254
   89SAPS   C32 8579   5.857   0.369   9.881 -0.1286 -0.2672  0.1312
   89SAPS   H2X 8580   5.948   0.322   9.837 -0.8857  1.5282 -3.8022
   89SAPS   H2Y 8581   5.836   0.466   9.830 -0.9458  0.2019  1.3012
   89SAPS   C23 8582   5.392   0.081  10.022 -0.2176 -0.0968  0.4240
   89SAPS   H3R 8583   5.457   0.142   9.955  1.2188 -1.3643  0.6094
   89SAPS   H3S 8584   5.293   0.124  10.049  0.2117  0.0435  1.8326
   89SAPS   C24 8585   5.399  -0.059   9.968  0.0483  0.4633 -0.3045
   89SAPS   H4R 8586   5.391  -0.126  10.056  0.0925  1.5918  0.5928
   89SAPS   H4S 8587   5.496  -0.082   9.919  0.3297  2.0980 -0.5886
   89SAPS   C25 8588   5.279  -0.074   9.871  0.6718 -0.6109 -0.0059
   89SAPS   H5R 8589   5.188  -0.114   9.918  1.3553 -0.1328  1.8186
   89SAPS   C26 8590   5.287  -0.054   9.737 -0.3922  0.1082  0.2815
   89SAPS   H6R 8591   5.207  -0.081   9.667  1.3732  0.2178 -1.8685
   89SAPS   C27 8592   5.410  -0.019   9.661  0.5255  0.1670 -0.3251
   89SAPS   H7R 8593   5.493  -0.005   9.733  1.2823 -0.9510 -0.9500
   89SAPS   H7S 8594   5.399   0.079   9.609 -1.6310 -0.5619 -1.3743
   89SAPS   C28 8595   5.465  -0.118   9.562 -0.3712 -0.3466 -0.1724
   89SAPS   H8R 8596   5.527  -0.194   9.611 -1.0517 -0.3235  0.7617
   89SAPS   C29 8597   5.442  -0.133   9.427  0.2974 -0.0795 -0.0881
   89SAPS   H9R 8598   5.469  -0.229   9.381 -0.6113 -0.0223 -0.7630
   89SAPS  C210 8599   5.347  -0.066   9.335  0.0943 -0.1308  0.2758
   89SAPS  H10R 8600   5.333   0.042   9.356  0.8084  0.0276 -0.0212
   89SAPS  H10S 8601   5.250  -0.119   9.330  0.5608 -0.9126 -1.5256
   89SAPS  C211 8602   5.397  -0.081   9.192 -0.6069 -0.8101 -0.4846
   89SAPS  H11R 8603   5.504  -0.102   9.184 -0.6044 -2.7943  2.9151
   89SAPS  C212 8604   5.330  -0.047   9.080  0.3647  0.0887  0.4945
   89SAPS  H12R 8605   5.382  -0.079   8.989 -0.3981 -1.9648  0.7259
   89SAPS  C213 8606   5.184  -0.013   9.047 -0.0929 -0.1273  0.0819
   89SAPS  H13R 8607   5.107  -0.050   9.119 -0.8342 -1.0787 -1.1557
   89SAPS  H13S 8608   5.152  -0.066   8.955 -0.7171 -0.2982  0.3941
   89SAPS  C214 8609   5.166   0.137   9.038 -0.8986  0.1654  0.2119
   89SAPS  H14R 8610   5.179   0.201   9.126  1.2687  4.1485 -2.6898
   89SAPS  C215 8611   5.153   0.204   8.925 -0.2648  0.8392 -0.1944
   89SAPS  H15R 8612   5.141   0.313   8.930  0.6786  1.0824 -2.2142
   89SAPS  C216 8613   5.165   0.155   8.789 -0.3876 -0.5081  0.5540
   89SAPS  H16R 8614   5.152   0.253   8.738 -1.7886 -0.4924  0.9059
   89SAPS  H16S 8615   5.080   0.094   8.750 -0.2487 -0.7277  0.5934
   89SAPS  C217 8616   5.299   0.094   8.749  0.0784 -1.0685  0.0185
   89SAPS  H17R 8617   5.306  -0.014   8.773  0.7679 -1.1978 -0.6968
   89SAPS  H17S 8618   5.388   0.135   8.802 -0.4276 -0.3197  0.3018
   89SAPS  C218 8619   5.331   0.117   8.596  0.8516  0.1707 -0.2998
   89SAPS  H18R 8620   5.441   0.125   8.583  0.6249  3.0947 -1.2521
   89SAPS  H18S 8621   5.289   0.215   8.565  0.2133  0.4192  1.2992
   89SAPS  C219 8622   5.271   0.003   8.513 -0.4517  0.8855 -0.0765
   89SAPS  H19R 8623   5.165  -0.022   8.537 -0.4234  0.3082 -0.5234
   89SAPS  H19S 8624   5.315  -0.094   8.545 -1.3521  0.4906  0.0013
   89SAPS  C220 8625   5.297   0.012   8.363 -0.2532 -0.0640 -0.1986
   89SAPS  H20R 8626   5.402   0.047   8.350 -0.6689  1.1132 -0.5320
   89SAPS  H20S 8627   5.237   0.071   8.291  0.2205  1.3140  0.4989
   89SAPS  H20T 8628   5.305  -0.091   8.323  2.3974  0.7284 -1.9730
   89SAPS   C33 8629   5.729   0.281   9.860  0.1659 -0.8663 -0.0686
   89SAPS   H3X 8630   5.640   0.345   9.878  0.9910  0.6546 -1.1508
   89SAPS   H3Y 8631   5.739   0.195   9.930 -0.6251  0.0700  1.2303
   89SAPS   C34 8632   5.721   0.234   9.711  0.3302 -0.0001  0.2844
   89SAPS   H4X 8633   5.665   0.138   9.718 -2.9565  1.7890  0.6021
   89SAPS   H4Y 8634   5.819   0.212   9.664 -0.0990 -0.9414 -0.2006
   89SAPS   C35 8635   5.651   0.328   9.616  0.4050  0.1567  0.2252
   89SAPS   H5X 8636   5.717   0.417   9.612 -1.4193  1.5385 -0.0023
   89SAPS   H5Y 8637   5.559   0.358   9.669  0.0290 -0.0259 -0.3181
   89SAPS   C36 8638   5.623   0.281   9.474  0.1981 -0.4647 -0.2406
   89SAPS   H6X 8639   5.555   0.355   9.426  0.0965  0.0264  0.6397
   89SAPS   H6Y 8640   5.564   0.187   9.471 -0.0559 -0.2915 -0.7335
   89SAPS   C37 8641   5.749   0.263   9.387  0.0827  0.1531 -0.7532
   89SAPS   H7X 8642   5.819   0.205   9.451 -2.6957 -0.4959  1.9651
   89SAPS   H7Y 8643   5.780   0.368   9.371 -1.1156  0.5285 -0.6895
   89SAPS   C38 8644   5.739   0.177   9.256  0.4269 -0.0482  0.5029
   89SAPS   H8X 8645   5.694   0.076   9.269 -0.9463  0.4965  0.2313
   89SAPS   H8Y 8646   5.841   0.175   9.213 -0.0057 -0.5328 -0.5118
   89SAPS   C39 8647   5.651   0.242   9.148  0.4621 -0.1092 -0.3570
   89SAPS   H9X 8648   5.661   0.353   9.148 -1.1574  0.0787  0.7072
   89SAPS   H9Y 8649   5.546   0.233   9.185  0.3826 -0.8319 -0.7296
   89SAPS  C310 8650   5.659   0.183   9.012 -0.1369  0.6575  0.1846
   89SAPS  H10X 8651   5.562   0.202   8.961  0.5572  1.4082 -0.8818
   89SAPS  H10Y 8652   5.662   0.072   9.012  1.5580  0.6729 -0.7655
   89SAPS  C311 8653   5.769   0.230   8.916  0.5703 -0.1119  0.2188
   89SAPS  H11X 8654   5.862   0.242   8.974  0.8494  1.3997 -0.4978
   89SAPS  H11Y 8655   5.742   0.324   8.863 -0.2325 -1.0382 -1.0876
   89SAPS  C312 8656   5.802   0.129   8.800  0.0450 -0.6917 -0.8357
   89SAPS  H12X 8657   5.811   0.022   8.830  0.3379 -0.5185 -0.3081
   89SAPS  H12Y 8658   5.905   0.156   8.770  0.4898 -1.6359 -0.1860
   89SAPS  C313 8659   5.700   0.135   8.681 -0.2848 -0.0057  0.6902
   89SAPS  H13X 8660   5.600   0.105   8.719 -0.1043 -0.1364  1.0676
   89SAPS  H13Y 8661   5.725   0.053   8.610  0.5243  2.6373 -2.2741
   89SAPS  C314 8662   5.705   0.257   8.590 -0.0209  0.3848  0.1521
   89SAPS  H14X 8663   5.627   0.315   8.644  1.1983 -0.8981  3.5409
   89SAPS  H14Y 8664   5.656   0.249   8.490 -2.2201  1.9139  1.0224
   89SAPS  C315 8665   5.837   0.319   8.585 -0.5984 -0.4521  0.1059
   89SAPS  H15X 8666   5.929   0.257   8.577 -0.6831 -0.6324  0.5132
   89SAPS  H15Y 8667   5.870   0.364   8.681 -1.0478 -0.2057  0.1446
   89SAPS  C316 8668   5.846   0.455   8.501  0.4722  0.1859  0.3044
   89SAPS  H16X 8669   5.776   0.519   8.559 -1.0368  0.5536 -1.7815
   89SAPS  H16Y 8670   5.799   0.435   8.402  1.1962 -0.5800  0.1065
   89SAPS  C317 8671   5.988   0.501   8.483  0.0309 -0.7548  0.3801
   89SAPS  H17X 8672   6.033   0.442   8.401 -2.1764 -0.1693 -1.3581
   89SAPS  H17Y 8673   6.055   0.479   8.569  0.5873 -0.1713  0.1100
   89SAPS  C318 8674   5.995   0.648   8.433  0.2024 -0.8323  0.4625
   89SAPS  H18X 8675   5.933   0.661   8.342  2.2306 -0.2850 -0.9081
   89SAPS  H18Y 8676   6.098   0.687   8.418  0.2928 -0.9984  0.6579
   89SAPS  H18Z 8677   5.956   0.711   8.517  0.1135 -0.0520 -0.1497
   90SAPS     N 8678   0.160   5.133  10.948  0.9373 -0.7784 -0.0012
   90SAPS   HN1 8679   0.182   5.086  11.037 -1.2274 -2.0978 -0.0953
   90SAPS   HN2 8680   0.172   5.056  10.879 -1.1049 -0.6946 -0.5214
   90SAPS   HN3 8681   0.226   5.211  10.926 -0.8691  0.7170 -0.3874
   90SAPS   C12 8682   0.024   5.193  10.953  0.1398 -0.3237 -0.6109
   90SAPS  H12A 8683  -0.033   5.120  11.008  0.8869  0.2466  0.9673
   90SAPS   C13 8684   0.027   5.327  11.036 -0.1381 -0.1084  0.5183
   90SAPS  O13A 8685   0.134   5.364  11.092  0.2805  0.5980 -0.6038
   90SAPS  O13B 8686  -0.078   5.376  11.063 -0.2575 -0.1368  0.0414
   90SAPS   C11 8687  -0.048   5.201  10.815  0.1253 -0.8643 -0.0218
   90SAPS  H11A 8688  -0.140   5.263  10.815  1.9409  2.1144  1.6955
   90SAPS  H11B 8689  -0.067   5.097  10.783 -0.6504 -0.5618 -0.5858
   90SAPS     P 8690  -0.004   5.328  10.591 -0.2719 -0.1772  0.0117
   90SAPS   O13 8691  -0.100   5.435  10.614 -0.4661  0.0247 -0.3761
   90SAPS   O14 8692   0.122   5.364  10.520  0.5534 -0.1746  0.2743
   90SAPS   O12 8693   0.044   5.261  10.726 -0.3498 -0.2103  0.1153
   90SAPS   O11 8694  -0.076   5.214  10.513 -0.2944 -0.1731 -0.3941
   90SAPS    C1 8695  -0.074   5.199  10.373 -0.5484 -0.5678  0.2248
   90SAPS    HA 8696   0.023   5.216  10.323  0.8478 -1.4805  2.4837
   90SAPS    HB 8697  -0.106   5.098  10.341 -1.9185  0.0251 -0.4015
   90SAPS    C2 8698  -0.200   5.260  10.303 -0.4739 -0.6563 -0.0200
   90SAPS    HS 8699  -0.189   5.370  10.315  2.1844 -0.7496 -1.0283
   90SAPS   O21 8700  -0.315   5.216  10.380 -0.4076 -0.5326  0.4127
   90SAPS   C21 8701  -0.436   5.280  10.352  0.1805  0.6731  0.2809
   90SAPS   O22 8702  -0.447   5.378  10.283 -0.1059  0.3926 -0.1282
   90SAPS   C22 8703  -0.549   5.221  10.431  0.1758 -0.5240  0.7267
   90SAPS   H2R 8704  -0.521   5.126  10.482 -2.2768 -2.3204 -1.0662
   90SAPS   H2S 8705  -0.564   5.306  10.500 -0.1749  1.1230 -1.2915
   90SAPS    C3 8706  -0.212   5.231  10.151  0.6168  0.1761 -0.3479
   90SAPS    HX 8707  -0.298   5.290  10.112  0.1015  0.4183  1.1213
   90SAPS    HY 8708  -0.227   5.121  10.149  1.6875  0.0061  0.0118
   90SAPS   O31 8709  -0.086   5.256  10.087 -0.2128 -0.3747 -0.2107
   90SAPS   C31 8710  -0.082   5.374  10.022  0.4137  0.1116  0.3853
   90SAPS   O32 8711  -0.173   5.453  10.018  0.4112 -0.3566 -0.0199
   90SAPS   C32 8712   0.057   5.391   9.964 -0.3073  0.3643  0.0571
   90SAPS   H2X 8713   0.075   5.299   9.904 -0.8985 -0.2402  0.7887
   90SAPS   H2Y 8714   0.130   5.383  10.047 -0.3536 -2.4975 -0.0511
   90SAPS   C23 8715  -0.668   5.201  10.336  1.3284 -0.1475 -0.7060
   90SAPS   H3R 8716  -0.693   5.295  10.282 -1.3561 -0.4406 -0.0890
   90SAPS   H3S 8717  -0.759   5.173  10.393  2.6715  0.6779  2.0141
   90SAPS   C24 8718  -0.654   5.090  10.233  0.0587  0.0346 -0.6067
   90SAPS   H4R 8719  -0.555   5.100  10.184 -0.1291 -1.7709 -1.4229
   90SAPS   H4S 8720  -0.735   5.103  10.159 -0.0800 -1.5921 -0.7768
   90SAPS   C25 8721  -0.674   4.940  10.272 -0.5399 -0.5964  0.4323
   90SAPS   H5R 8722  -0.766   4.902  10.317 -0.3930 -1.0866  0.3290
   90SAPS   C26 8723  -0.580   4.846  10.254 -0.2878  0.3055  0.4522
   90SAPS   H6R 8724  -0.615   4.744  10.280  0.5657 -0.1415 -0.1034
   90SAPS   C27 8725  -0.439   4.854  10.197  0.0370  0.0312  0.2724
   90SAPS   H7R 8726  -0.407   4.910  10.107  2.1401 -1.9005 -0.2999
   90SAPS   H7S 8727  -0.422   4.748  10.166 -1.5906 -0.4818  1.0562
   90SAPS   C28 8728  -0.334   4.891  10.295 -0.5926 -0.1995  0.2171
   90SAPS   H8R 8729  -0.361   4.951  10.383 -1.0171  2.2048 -1.4558
   90SAPS   C29 8730  -0.202   4.860  10.273  0.4945 -0.1151  0.3475
   90SAPS   H9R 8731  -0.131   4.883  10.355  0.5057  0.7994  0.0944
   90SAPS  C210 8732  -0.133   4.791  10.156  0.5132  0.0356  0.1285
   90SAPS  H10R 8733  -0.217   4.742  10.103  0.7221  1.0944 -1.2232
   90SAPS  H10S 8734  -0.065   4.707  10.182  0.9024  0.1734 -0.4306
   90SAPS  C211 8735  -0.083   4.886  10.054 -0.6921  0.4027 -0.1535
   90SAPS  H11R 8736  -0.119   4.990  10.057 -0.3992  0.5705 -1.5604
   90SAPS  C212 8737   0.010   4.852   9.964  0.1091 -0.7821  0.3236
   90SAPS  H12R 8738   0.039   4.935   9.898  1.0434 -0.0744  1.5736
   90SAPS  C213 8739   0.080   4.721   9.947  0.9170  0.7636 -0.6973
   90SAPS  H13R 8740   0.097   4.698   9.840 -0.7564  0.2557 -0.8842
   90SAPS  H13S 8741   0.009   4.640   9.974 -0.2485  2.0953  0.4346
   90SAPS  C214 8742   0.187   4.696  10.047  0.0393 -0.6849 -0.2559
   90SAPS  H14R 8743   0.154   4.718  10.150 -0.3191 -0.8395 -0.3372
   90SAPS  C215 8744   0.314   4.660  10.013  0.6879 -0.0834  0.2834
   90SAPS  H15R 8745   0.390   4.660  10.093  1.0546 -0.8820 -0.0541
   90SAPS  C216 8746   0.365   4.646   9.875 -0.0395 -0.4591 -0.1614
   90SAPS  H16R 8747   0.308   4.720   9.814 -1.4301  0.0833  1.7080
   90SAPS  H16S 8748   0.343   4.542   9.840 -2.8401 -0.6374  1.7733
   90SAPS  C217 8749   0.516   4.679   9.857 -0.2463 -0.7206 -0.2875
   90SAPS  H17R 8750   0.570   4.618   9.933  1.0564  0.5072 -0.1991
   90SAPS  H17S 8751   0.536   4.781   9.896 -0.6470 -0.2729 -1.2316
   90SAPS  C218 8752   0.578   4.678   9.717 -0.2161  0.5740 -0.1314
   90SAPS  H18R 8753   0.514   4.733   9.645 -3.4968 -0.8264  1.4916
   90SAPS  H18S 8754   0.582   4.576   9.673 -2.2001 -0.0845  1.0475
   90SAPS  C219 8755   0.700   4.763   9.709  0.2368  0.9871 -0.1219
   90SAPS  H19R 8756   0.784   4.703   9.750  1.4625  0.9511 -2.5302
   90SAPS  H19S 8757   0.685   4.857   9.768 -0.1987 -0.7456  2.7142
   90SAPS  C220 8758   0.729   4.802   9.563  0.5391  0.0157  0.3257
   90SAPS  H20R 8759   0.726   4.705   9.509  2.0095  0.6412 -0.9454
   90SAPS  H20S 8760   0.821   4.860   9.544  1.1763 -1.0361  0.0999
   90SAPS  H20T 8761   0.648   4.868   9.525  1.6726  0.8912 -0.6307
   90SAPS   C33 8762   0.083   5.511   9.872  0.1787 -0.0070 -0.5734
   90SAPS   H3X 8763   0.192   5.511   9.849  0.1783  1.4292 -0.6480
   90SAPS   H3Y 8764   0.071   5.607   9.925  0.5963  0.5879 -1.5230
   90SAPS   C34 8765   0.020   5.509   9.730  0.0444  0.2109 -0.2251
   90SAPS   H4X 8766  -0.086   5.540   9.744 -0.0136 -1.0627  2.7191
   90SAPS   H4Y 8767   0.029   5.409   9.682 -0.1446  0.6497 -1.1984
   90SAPS   C35 8768   0.086   5.610   9.634 -0.6387 -0.0915 -0.6183
   90SAPS   H5X 8769   0.185   5.574   9.597  0.4050  1.9617 -0.0266
   90SAPS   H5Y 8770   0.104   5.705   9.689 -1.3583 -1.1336  1.5437
   90SAPS   C36 8771   0.006   5.647   9.517 -0.2828  0.2087  0.1627
   90SAPS   H6X 8772  -0.100   5.662   9.547 -1.0140 -1.2615 -1.5005
   90SAPS   H6Y 8773  -0.008   5.554   9.457 -1.7448 -1.4665  2.8791
   90SAPS   C37 8774   0.062   5.766   9.449 -0.1997  0.1557  0.1740
   90SAPS   H7X 8775   0.171   5.763   9.472 -0.0783  3.1484  0.4300
   90SAPS   H7Y 8776   0.022   5.859   9.495 -0.3319  1.5144 -2.4839
   90SAPS   C38 8777   0.040   5.765   9.299 -0.0062 -0.0770  0.7597
   90SAPS   H8X 8778  -0.065   5.734   9.276 -0.3302 -1.4924  3.7434
   90SAPS   H8Y 8779   0.110   5.689   9.258 -0.8332 -1.1019  1.1912
   90SAPS   C39 8780   0.068   5.909   9.241 -0.8081 -0.1162  0.2433
   90SAPS   H9X 8781   0.168   5.955   9.259 -0.6886 -0.0640 -0.4853
   90SAPS   H9Y 8782   0.007   5.983   9.295 -0.5078  0.3406 -0.0368
   90SAPS  C310 8783   0.039   5.918   9.090 -0.0111  0.1207 -0.4919
   90SAPS  H10X 8784  -0.067   5.890   9.071 -0.8471  1.7805  1.4254
   90SAPS  H10Y 8785   0.109   5.844   9.045 -0.8726 -0.8510 -0.2791
   90SAPS  C311 8786   0.055   6.059   9.028 -0.1518 -0.0543  0.3792
   90SAPS  H11X 8787   0.076   6.121   9.118  1.2622 -0.3465  0.2779
   90SAPS  H11Y 8788  -0.040   6.094   8.984  0.9549  1.9191 -0.5883
   90SAPS  C312 8789   0.172   6.082   8.934 -0.3054  0.0649 -0.1885
   90SAPS  H12X 8790   0.263   6.070   8.997  0.8260  0.5922 -1.6595
   90SAPS  H12Y 8791   0.162   6.191   8.918  2.2011  0.8536  2.6573
   90SAPS  C313 8792   0.172   6.003   8.806  0.1220  0.8447  0.5343
   90SAPS  H13X 8793   0.074   6.022   8.756  0.3224 -0.9465 -0.6416
   90SAPS  H13Y 8794   0.162   5.892   8.802 -0.8563  0.9450 -0.0016
   90SAPS  C314 8795   0.289   6.034   8.711  1.1616  0.2942  0.3448
   90SAPS  H14X 8796   0.373   5.962   8.713  1.0344  0.1506  1.1043
   90SAPS  H14Y 8797   0.335   6.128   8.747 -0.7000  1.2737  0.3173
   90SAPS  C315 8798   0.247   6.031   8.559  0.3800 -0.4067  0.5056
   90SAPS  H15X 8799   0.337   6.042   8.495 -0.9452 -0.4298 -1.4529
   90SAPS  H15Y 8800   0.182   6.118   8.535 -0.9583 -0.3931  3.6820
   90SAPS  C316 8801   0.176   5.913   8.498  0.0317  0.5367  0.3934
   90SAPS  H16X 8802   0.084   5.887   8.556 -0.5577 -1.4599 -1.2851
   90SAPS  H16Y 8803   0.237   5.820   8.505 -2.2480 -1.0528  0.5075
   90SAPS  C317 8804   0.145   5.932   8.347  0.7358  0.7486 -0.2551
   90SAPS  H17X 8805   0.238   5.961   8.293  0.4305  1.2752 -0.5072
   90SAPS  H17Y 8806   0.074   6.015   8.325  1.3446  1.4333  0.2995
   90SAPS  C318 8807   0.087   5.809   8.264 -0.4021  0.6964 -0.0735
   90SAPS  H18X 8808   0.073   5.833   8.156  0.7895 -0.8107 -0.5958
   90SAPS  H18Y 8809  -0.013   5.783   8.306 -0.2854 -1.3903 -0.9697
   90SAPS  H18Z 8810   0.147   5.717   8.275 -1.8050 -0.4905 -1.7565
   91SAPS     N 8811   5.343   0.282   6.212 -0.7020  0.0095 -0.6428
   91SAPS   HN1 8812   5.410   0.349   6.254  1.6644 -1.6998 -1.4446
   91SAPS   HN2 8813   5.244   0.291   6.242 -0.3471  0.5680  0.3938
   91SAPS   HN3 8814   5.380   0.189   6.243 -1.0274  0.5289  1.4479
   91SAPS   C12 8815   5.343   0.291   6.068  0.2060  0.5380  0.4319
   91SAPS  H12A 8816   5.293   0.381   6.037 -2.4430 -1.2094 -0.7628
   91SAPS   C13 8817   5.484   0.310   6.000  1.1080  0.0006 -0.1855
   91SAPS  O13A 8818   5.585   0.306   6.069  0.2986  0.4553 -0.7216
   91SAPS  O13B 8819   5.487   0.313   5.875 -0.7711 -0.5458  0.7713
   91SAPS   C11 8820   5.273   0.168   6.001 -0.3108 -0.7047 -0.7016
   91SAPS  H11A 8821   5.342   0.084   6.022  0.6310  0.4540  1.1124
   91SAPS  H11B 8822   5.264   0.192   5.893 -3.8453 -0.0383 -0.3944
   91SAPS     P 8823   5.054   0.030   5.997 -0.1449  0.1663 -0.3320
   91SAPS   O13 8824   4.912   0.075   5.981 -0.3783 -0.1189 -0.2655
   91SAPS   O14 8825   5.116  -0.026   5.877 -0.7543  0.0615  0.2492
   91SAPS   O12 8826   5.144   0.149   6.055  0.3707  0.2097 -0.2077
   91SAPS   O11 8827   5.048  -0.078   6.114 -0.3061 -0.3751  0.6402
   91SAPS    C1 8828   5.115  -0.058   6.239 -0.3067 -0.1309  0.4295
   91SAPS    HA 8829   5.225  -0.056   6.221 -0.4916  0.8431 -0.7439
   91SAPS    HB 8830   5.087   0.037   6.289 -2.1306  0.0107 -0.7773
   91SAPS    C2 8831   5.086  -0.172   6.338  0.1303  0.2416  0.1570
   91SAPS    HS 8832   5.143  -0.257   6.294 -0.9470 -0.0478 -0.7381
   91SAPS   O21 8833   4.942  -0.192   6.342  0.5436 -0.1443  0.3625
   91SAPS   C21 8834   4.906  -0.313   6.382 -0.3723  0.7801  0.2255
   91SAPS   O22 8835   4.978  -0.400   6.429  0.3546 -0.0299  0.3424
   91SAPS   C22 8836   4.753  -0.313   6.356  0.2693  0.5609 -0.1506
   91SAPS   H2R 8837   4.700  -0.262   6.439 -0.4827 -0.9683  0.3535
   91SAPS   H2S 8838   4.725  -0.268   6.259 -1.2944 -0.6115 -0.2855
   91SAPS    C3 8839   5.144  -0.143   6.475  0.3277 -0.3564  0.5356
   91SAPS    HX 8840   5.254  -0.126   6.471  0.5779 -2.0371 -2.9579
   91SAPS    HY 8841   5.120  -0.234   6.534 -0.7136 -0.0272  0.6512
   91SAPS   O31 8842   5.079  -0.028   6.537  0.6514 -0.1589  0.1837
   91SAPS   C31 8843   5.143   0.082   6.561 -0.3216  0.8656 -0.3954
   91SAPS   O32 8844   5.259   0.094   6.524  0.4068  0.3291 -0.2833
   91SAPS   C32 8845   5.054   0.178   6.635 -0.1260  0.4541 -0.6330
   91SAPS   H2X 8846   4.954   0.136   6.658 -0.4722  1.2197 -0.7067
   91SAPS   H2Y 8847   5.044   0.265   6.567  0.7708  1.0660 -0.0064
   91SAPS   C23 8848   4.699  -0.464   6.363  0.0494  0.2696  0.2647
   91SAPS   H3R 8849   4.770  -0.521   6.299 -1.1704 -1.5613  0.4854
   91SAPS   H3S 8850   4.602  -0.473   6.310  0.8599  0.7413 -1.3879
   91SAPS   C24 8851   4.701  -0.523   6.508 -0.4632  0.1850  1.0331
   91SAPS   H4R 8852   4.798  -0.512   6.561  0.5539  1.4692 -0.9609
   91SAPS   H4S 8853   4.693  -0.633   6.494 -0.4070  0.3468 -0.5077
   91SAPS   C25 8854   4.606  -0.453   6.600 -0.1232  0.8377 -0.3455
   91SAPS   H5R 8855   4.502  -0.472   6.571  0.0967 -2.1803  0.4166
   91SAPS   C26 8856   4.641  -0.396   6.717 -0.6092 -0.3183  0.3581
   91SAPS   H6R 8857   4.561  -0.337   6.763 -0.9646 -0.8801  0.4724
   91SAPS   C27 8858   4.772  -0.380   6.780 -0.4416 -0.5718  0.6497
   91SAPS   H7R 8859   4.846  -0.454   6.743  0.5249 -0.4114  2.1517
   91SAPS   H7S 8860   4.766  -0.394   6.890  2.1100 -1.6250  0.7498
   91SAPS   C28 8861   4.825  -0.241   6.759 -0.3474  0.1040  0.0182
   91SAPS   H8R 8862   4.816  -0.199   6.658  2.5577 -0.6891 -0.6622
   91SAPS   C29 8863   4.884  -0.162   6.845 -0.6478 -0.4460  0.2155
   91SAPS   H9R 8864   4.921  -0.068   6.804 -2.2580 -0.1537 -0.6391
   91SAPS  C210 8865   4.909  -0.189   6.994  0.1444  0.2723  0.5900
   91SAPS  H10R 8866   5.019  -0.191   7.007  0.0431  0.6609  1.6007
   91SAPS  H10S 8867   4.867  -0.290   7.013  1.2752 -0.4011 -0.3085
   91SAPS  C211 8868   4.839  -0.083   7.081  0.0571 -0.6398 -0.3876
   91SAPS  H11R 8869   4.817   0.013   7.033 -1.2364  0.7744  2.8010
   91SAPS  C212 8870   4.800  -0.104   7.207 -0.3407 -0.7007 -0.2878
   91SAPS  H12R 8871   4.748  -0.020   7.255  2.0264  1.9556 -2.0123
   91SAPS  C213 8872   4.819  -0.221   7.293 -0.0876 -0.2702  0.6977
   91SAPS  H13R 8873   4.818  -0.309   7.226  0.3428  0.0896  0.2189
   91SAPS  H13S 8874   4.723  -0.234   7.348 -0.0555  0.6546  0.9828
   91SAPS  C214 8875   4.942  -0.224   7.387  1.0789  0.2405  0.3535
   91SAPS  H14R 8876   5.008  -0.301   7.346  0.4071 -0.6183  0.8389
   91SAPS  C215 8877   4.961  -0.152   7.495  0.5038  0.4576  0.5561
   91SAPS  H15R 8878   5.047  -0.173   7.560  0.8501  1.1047  0.3229
   91SAPS  C216 8879   4.868  -0.047   7.543  0.5947  0.2002 -0.1018
   91SAPS  H16R 8880   4.773  -0.055   7.488 -0.1051 -1.3167  1.2515
   91SAPS  H16S 8881   4.908   0.053   7.516 -0.5769  0.8868  0.6056
   91SAPS  C217 8882   4.855  -0.042   7.696  0.2474  0.5861  0.2941
   91SAPS  H17R 8883   4.858  -0.146   7.735 -1.3295  0.2790 -0.3329
   91SAPS  H17S 8884   4.756  -0.003   7.727  0.1175  0.3959  0.1264
   91SAPS  C218 8885   4.970   0.029   7.769  0.2682 -0.0311  0.0851
   91SAPS  H18R 8886   4.965   0.139   7.757  0.0333 -0.1125 -0.6552
   91SAPS  H18S 8887   5.066  -0.011   7.730  0.8024  1.2948  0.0164
   91SAPS  C219 8888   4.974  -0.012   7.923  0.7688 -0.2359  0.6106
   91SAPS  H19R 8889   4.958  -0.122   7.927  1.5725 -0.5466 -2.5364
   91SAPS  H19S 8890   4.890   0.032   7.981 -1.3697 -0.3169 -2.2467
   91SAPS  C220 8891   5.109   0.029   7.980 -0.3044 -0.3824 -0.4212
   91SAPS  H20R 8892   5.098   0.036   8.091  0.4588  0.5140 -0.3882
   91SAPS  H20S 8893   5.143   0.131   7.953  0.2259  0.3078  2.4536
   91SAPS  H20T 8894   5.177  -0.050   7.942  0.8564 -0.6268  1.9766
   91SAPS   C33 8895   5.117   0.221   6.760  0.5244 -1.1431  0.0480
   91SAPS   H3X 8896   5.064   0.314   6.790  2.2185 -0.3038  0.5391
   91SAPS   H3Y 8897   5.225   0.246   6.754  0.2048  1.5909  3.2093
   91SAPS   C34 8898   5.099   0.128   6.875  0.2634  0.0445 -0.5693
   91SAPS   H4X 8899   5.156   0.033   6.861  1.0052  0.3264  0.3631
   91SAPS   H4Y 8900   4.991   0.105   6.886  0.0528  1.3335  0.2459
   91SAPS   C35 8901   5.159   0.194   6.999 -0.1802 -0.6363  0.3203
   91SAPS   H5X 8902   5.110   0.294   7.004  0.0099 -0.2275 -3.5046
   91SAPS   H5Y 8903   5.261   0.221   6.965 -0.8379 -0.7932 -1.8864
   91SAPS   C36 8904   5.146   0.122   7.129  0.2880  0.0086 -0.1914
   91SAPS   H6X 8905   5.157   0.011   7.124  2.4464  0.2013 -0.7922
   91SAPS   H6Y 8906   5.047   0.150   7.169  1.0655  0.5071  1.4732
   91SAPS   C37 8907   5.245   0.173   7.239  0.2794 -0.1634 -0.2319
   91SAPS   H7X 8908   5.243   0.282   7.260 -0.6147 -0.5201  1.8204
   91SAPS   H7Y 8909   5.349   0.149   7.212  0.9349  0.9710  1.1321
   91SAPS   C38 8910   5.211   0.093   7.373  0.2169  0.4692  0.2816
   91SAPS   H8X 8911   5.229  -0.015   7.356 -1.2618  0.0029  1.4341
   91SAPS   H8Y 8912   5.106   0.115   7.403 -0.0067  1.1013 -0.8770
   91SAPS   C39 8913   5.291   0.132   7.502 -0.3141 -0.2285  0.4417
   91SAPS   H9X 8914   5.395   0.097   7.485 -0.7798 -0.9680 -1.0754
   91SAPS   H9Y 8915   5.246   0.084   7.591 -0.9431 -2.0152 -0.7867
   91SAPS  C310 8916   5.298   0.285   7.522 -0.3568  0.2420  0.2629
   91SAPS  H10X 8917   5.198   0.318   7.489 -0.3053  1.8802  1.5925
   91SAPS  H10Y 8918   5.365   0.330   7.445 -2.4754  1.3017 -1.0590
   91SAPS  C311 8919   5.330   0.329   7.662  0.5505  0.0545  0.0551
   91SAPS  H11X 8920   5.431   0.292   7.691 -0.3378 -2.6256 -0.0331
   91SAPS  H11Y 8921   5.252   0.284   7.727  0.3359  1.3070  0.7189
   91SAPS  C312 8922   5.345   0.479   7.684  0.3434  0.3007 -0.1388
   91SAPS  H12X 8923   5.251   0.537   7.670 -0.2114 -0.1323  1.5522
   91SAPS  H12Y 8924   5.421   0.523   7.616 -1.8599  1.1962 -2.2103
   91SAPS  C313 8925   5.375   0.518   7.829 -0.0993  0.2761  0.2938
   91SAPS  H13X 8926   5.413   0.623   7.828 -0.3050  0.3760 -2.4655
   91SAPS  H13Y 8927   5.454   0.447   7.862 -0.2565 -1.3493 -2.5851
   91SAPS  C314 8928   5.255   0.509   7.923 -0.0064  0.0415  0.5375
   91SAPS  H14X 8929   5.175   0.487   7.849  1.6852 -2.4798 -0.6863
   91SAPS  H14Y 8930   5.226   0.604   7.973  1.3425  1.4199 -1.1965
   91SAPS  C315 8931   5.278   0.406   8.036 -0.3752 -0.7116 -0.5334
   91SAPS  H15X 8932   5.332   0.314   8.004 -1.2828 -1.5354  0.2340
   91SAPS  H15Y 8933   5.180   0.374   8.077 -0.1604 -2.1133 -1.0680
   91SAPS  C316 8934   5.353   0.461   8.165 -0.3113 -0.3772  0.3507
   91SAPS  H16X 8935   5.315   0.562   8.191 -0.9469 -0.7560  0.9272
   91SAPS  H16Y 8936   5.462   0.463   8.144  0.2013 -3.8882  2.0181
   91SAPS  C317 8937   5.339   0.369   8.291 -0.1204 -0.6668  0.4638
   91SAPS  H17X 8938   5.371   0.268   8.256  1.6343 -0.1547  0.5347
   91SAPS  H17Y 8939   5.234   0.370   8.329 -0.2208  0.6460  0.1761
   91SAPS  C318 8940   5.428   0.420   8.400  0.0280 -0.1877  0.7392
   91SAPS  H18X 8941   5.434   0.359   8.493  0.8148 -0.3788  0.5687
   91SAPS  H18Y 8942   5.407   0.527   8.421 -0.8018  0.2869 -2.0363
   91SAPS  H18Z 8943   5.532   0.429   8.363  0.1186  1.0711  1.2462
   92SAPS     N 8944   3.090   5.749   6.420 -0.2122  0.2336 -0.2365
   92SAPS   HN1 8945   3.025   5.810   6.474  0.1926 -0.4348  1.0474
   92SAPS   HN2 8946   3.148   5.679   6.471 -0.7454  0.0936  0.1840
   92SAPS   HN3 8947   3.162   5.809   6.374  0.7352 -0.3746  0.4138
   92SAPS   C12 8948   3.023   5.676   6.303  0.0067  0.2960 -0.2153
   92SAPS  H12A 8949   2.965   5.751   6.251 -0.7877  0.1441  0.4205
   92SAPS   C13 8950   3.115   5.609   6.199 -0.7825 -0.5595 -0.2872
   92SAPS  O13A 8951   3.235   5.650   6.191  0.1440  0.0962 -0.1183
   92SAPS  O13B 8952   3.064   5.543   6.107  0.2061  0.3158 -0.0484
   92SAPS   C11 8953   2.926   5.566   6.358 -0.2007 -0.4394  0.0320
   92SAPS  H11A 8954   2.889   5.521   6.264 -1.0498 -0.0486  0.1711
   92SAPS  H11B 8955   2.838   5.612   6.408  0.3671  0.9758 -0.2107
   92SAPS     P 8956   2.969   5.323   6.423 -0.0448  0.2798  0.2956
   92SAPS   O13 8957   2.828   5.306   6.371  0.4180 -0.6475 -0.3431
   92SAPS   O14 8958   3.076   5.272   6.327 -0.0738  0.2044 -0.5963
   92SAPS   O12 8959   2.989   5.475   6.451 -0.0048 -0.2105  0.2901
   92SAPS   O11 8960   2.989   5.261   6.572 -0.2371 -0.4199  0.0066
   92SAPS    C1 8961   2.872   5.248   6.653 -0.3727 -0.8520 -0.2810
   92SAPS    HA 8962   2.803   5.335   6.642 -0.0494 -0.3700  1.2214
   92SAPS    HB 8963   2.824   5.151   6.629  0.9132 -1.9073  1.2505
   92SAPS    C2 8964   2.906   5.247   6.806  0.7640 -0.1071  0.3578
   92SAPS    HS 8965   2.810   5.272   6.856  0.6170  1.8927 -0.8524
   92SAPS   O21 8966   3.009   5.341   6.837  0.8711 -0.8124 -0.5034
   92SAPS   C21 8967   2.984   5.465   6.798 -0.3859  0.5137 -0.5097
   92SAPS   O22 8968   2.875   5.511   6.760  0.7143 -0.4568 -0.6301
   92SAPS   C22 8969   3.108   5.556   6.825  0.4630 -0.5206  0.2674
   92SAPS   H2R 8970   3.122   5.557   6.935 -3.0759 -0.6283  0.8367
   92SAPS   H2S 8971   3.190   5.507   6.768  0.9625 -2.9887  2.8597
   92SAPS    C3 8972   2.960   5.107   6.832 -0.6053  0.2523 -0.7727
   92SAPS    HX 8973   3.071   5.099   6.830 -0.7249 -2.1677 -2.2756
   92SAPS    HY 8974   2.925   5.041   6.750  0.5725  1.3194 -2.1901
   92SAPS   O31 8975   2.912   5.069   6.958  0.0576  0.9474 -0.1040
   92SAPS   C31 8976   2.915   4.934   6.973  0.4518 -0.4590 -0.2937
   92SAPS   O32 8977   2.911   4.853   6.883 -0.1441  0.6486 -0.7072
   92SAPS   C32 8978   2.915   4.897   7.122  0.0780 -0.4333  0.4248
   92SAPS   H2X 8979   3.022   4.902   7.148  0.6890 -1.1277 -1.7787
   92SAPS   H2Y 8980   2.891   4.789   7.134  0.8318 -0.4898  1.5362
   92SAPS   C23 8981   3.070   5.702   6.788  0.4045  0.2628  1.3503
   92SAPS   H3R 8982   3.036   5.704   6.682 -0.1799 -0.9944  1.4989
   92SAPS   H3S 8983   3.172   5.745   6.783 -0.1342  1.4230 -0.7368
   92SAPS   C24 8984   2.985   5.782   6.886  0.0710 -0.1242  0.3409
   92SAPS   H4R 8985   2.891   5.726   6.907  0.6776 -1.3493 -0.0661
   92SAPS   H4S 8986   2.958   5.876   6.833  1.0236 -0.1929 -0.2999
   92SAPS   C25 8987   3.062   5.811   7.013  0.4796  0.0936 -0.9550
   92SAPS   H5R 8988   3.142   5.885   7.000 -0.4561  1.3306  0.0820
   92SAPS   C26 8989   3.032   5.764   7.136  0.5181  0.3469 -0.6217
   92SAPS   H6R 8990   3.104   5.777   7.218 -1.3750 -0.3496  1.2140
   92SAPS   C27 8991   2.915   5.668   7.162  0.5883 -0.2183  0.4076
   92SAPS   H7R 8992   2.911   5.587   7.086 -2.5677  0.5177 -0.3440
   92SAPS   H7S 8993   2.821   5.721   7.137  1.9476  0.8715 -2.8663
   92SAPS   C28 8994   2.887   5.608   7.294 -0.4153 -0.2753 -0.8261
   92SAPS   H8R 8995   2.897   5.680   7.376  1.1368  0.0873 -1.2937
   92SAPS   C29 8996   2.842   5.483   7.323  0.1065  0.0632 -0.9294
   92SAPS   H9R 8997   2.810   5.442   7.420  0.4231  4.2532  1.1861
   92SAPS  C210 8998   2.829   5.378   7.218  0.8846  0.2705 -0.1722
   92SAPS  H10R 8999   2.851   5.278   7.261  0.3703 -0.6478 -1.9876
   92SAPS  H10S 9000   2.903   5.392   7.137  0.2524 -0.7231 -0.9361
   92SAPS  C211 9001   2.694   5.371   7.152  0.2799  0.0910 -0.5460
   92SAPS  H11R 9002   2.692   5.441   7.067  0.6362  0.3636 -0.3361
   92SAPS  C212 9003   2.580   5.314   7.204 -0.3833  0.5753 -0.6705
   92SAPS  H12R 9004   2.483   5.317   7.151 -1.6464  0.8663  1.5134
   92SAPS  C213 9005   2.566   5.243   7.332  0.3678 -0.5100 -0.6618
   92SAPS  H13R 9006   2.669   5.230   7.372 -0.0969  1.1817  1.2507
   92SAPS  H13S 9007   2.528   5.139   7.323  1.2509 -0.7867 -1.3594
   92SAPS  C214 9008   2.494   5.329   7.435 -0.5580 -0.5830  0.1406
   92SAPS  H14R 9009   2.516   5.437   7.436 -0.3467 -0.6251  0.5577
   92SAPS  C215 9010   2.413   5.279   7.531 -0.0953  0.6203 -0.4882
   92SAPS  H15R 9011   2.374   5.352   7.603  0.5092  0.0973  0.3924
   92SAPS  C216 9012   2.373   5.129   7.558  0.5028  0.1224  0.4353
   92SAPS  H16R 9013   2.413   5.059   7.481  0.0843  0.2369  0.1162
   92SAPS  H16S 9014   2.263   5.119   7.549  0.4271  2.5463 -2.7367
   92SAPS  C217 9015   2.417   5.104   7.698  0.2367 -0.4411  0.2532
   92SAPS  H17R 9016   2.517   5.146   7.720 -0.5837  0.8063  1.7188
   92SAPS  H17S 9017   2.429   4.994   7.709  1.7699 -1.0576 -4.8688
   92SAPS  C218 9018   2.316   5.155   7.800  1.1319  0.0407  0.0747
   92SAPS  H18R 9019   2.232   5.082   7.799  1.7766 -0.7324 -1.5720
   92SAPS  H18S 9020   2.275   5.256   7.782  0.5484 -0.4376 -1.4470
   92SAPS  C219 9021   2.372   5.145   7.945  0.3023 -0.8664 -0.1881
   92SAPS  H19R 9022   2.289   5.166   8.016 -0.5532 -1.2823 -1.0444
   92SAPS  H19S 9023   2.443   5.230   7.954 -0.7795  0.4252 -2.6886
   92SAPS  C220 9024   2.439   5.019   7.993  0.3947 -0.6030  0.1134
   92SAPS  H20R 9025   2.364   4.940   7.971  0.4898 -0.4693 -0.7544
   92SAPS  H20S 9026   2.467   5.013   8.100  1.9081 -1.8495 -0.3058
   92SAPS  H20T 9027   2.521   4.996   7.921  1.6438 -1.4265  1.7203
   92SAPS   C33 9028   2.842   4.999   7.214  0.3538  0.1574 -0.4735
   92SAPS   H3X 9029   2.736   5.020   7.188 -1.4063  0.8649  5.5674
   92SAPS   H3Y 9030   2.889   5.100   7.208 -0.8072  0.8052  0.7409
   92SAPS   C34 9031   2.840   4.962   7.367 -0.1196  0.2855 -0.1892
   92SAPS   H4X 9032   2.791   4.865   7.391  0.8762 -0.4407 -0.9917
   92SAPS   H4Y 9033   2.775   5.028   7.427 -0.2776 -1.4718  1.6831
   92SAPS   C35 9034   2.976   4.945   7.440 -0.5333  0.0294  0.2930
   92SAPS   H5X 9035   3.040   5.036   7.444  0.4160 -0.6091 -0.1736
   92SAPS   H5Y 9036   3.028   4.857   7.398 -0.3187  0.6638 -0.8191
   92SAPS   C36 9037   2.957   4.917   7.593 -0.0933  0.0085  0.2454
   92SAPS   H6X 9038   3.057   4.883   7.627 -0.3729 -0.7000  0.3808
   92SAPS   H6Y 9039   2.891   4.828   7.600 -1.0848  0.7574  0.5756
   92SAPS   C37 9040   2.908   5.036   7.681  0.5287 -0.4903  0.8603
   92SAPS   H7X 9041   2.806   5.071   7.651  1.6418  1.2219 -1.1680
   92SAPS   H7Y 9042   2.971   5.120   7.647  0.4976 -0.0470  1.8647
   92SAPS   C38 9043   2.937   5.020   7.833  0.2257  0.6405  0.6080
   92SAPS   H8X 9044   3.033   4.966   7.846 -0.9152 -1.5669  0.4193
   92SAPS   H8Y 9045   2.864   4.948   7.873  0.3164 -0.1320 -0.5593
   92SAPS   C39 9046   2.948   5.154   7.912 -0.2501 -0.3480  0.1391
   92SAPS   H9X 9047   2.853   5.208   7.889 -0.6336 -1.2647 -0.4893
   92SAPS   H9Y 9048   3.021   5.223   7.865 -0.9272 -1.3169 -2.5057
   92SAPS  C310 9049   2.975   5.141   8.057 -0.1355 -0.7423 -0.2300
   92SAPS  H10X 9050   3.076   5.104   8.086  0.1500  0.6545  0.7167
   92SAPS  H10Y 9051   2.899   5.070   8.095  2.1450 -1.9463  2.4222
   92SAPS  C311 9052   2.972   5.274   8.134  0.7497 -0.2445 -0.1769
   92SAPS  H11X 9053   3.020   5.359   8.080 -1.1222 -0.0776 -1.6918
   92SAPS  H11Y 9054   3.021   5.259   8.233  3.2069  1.2431 -1.0742
   92SAPS  C312 9055   2.826   5.326   8.164 -0.4941 -0.7890 -0.2303
   92SAPS  H12X 9056   2.765   5.233   8.173 -0.5545 -0.8542 -1.1876
   92SAPS  H12Y 9057   2.793   5.373   8.069 -0.4908  0.0225  0.1636
   92SAPS  C313 9058   2.817   5.422   8.281 -0.1971 -0.0557  0.3631
   92SAPS  H13X 9059   2.890   5.505   8.275  2.0523 -1.8367  1.2942
   92SAPS  H13Y 9060   2.851   5.363   8.369  0.8561  1.1606  0.8007
   92SAPS  C314 9061   2.665   5.471   8.320 -0.9341 -0.1470  0.0659
   92SAPS  H14X 9062   2.600   5.383   8.297 -1.4082  0.2640 -0.1927
   92SAPS  H14Y 9063   2.641   5.551   8.247 -1.4511 -0.6298 -0.3016
   92SAPS  C315 9064   2.652   5.527   8.464  0.5099 -0.5165  0.1793
   92SAPS  H15X 9065   2.717   5.618   8.471 -0.0693  0.0430 -1.2804
   92SAPS  H15Y 9066   2.680   5.451   8.539 -2.0355 -0.8166  0.9042
   92SAPS  C316 9067   2.503   5.561   8.489  0.3783 -0.9594 -0.4109
   92SAPS  H16X 9068   2.442   5.470   8.471 -3.0024  1.1139 -0.1214
   92SAPS  H16Y 9069   2.472   5.637   8.415  1.1710 -1.3324 -1.1539
   92SAPS  C317 9070   2.482   5.612   8.632  0.3485 -0.4139 -0.0776
   92SAPS  H17X 9071   2.553   5.564   8.703 -0.0498  0.0248  0.6238
   92SAPS  H17Y 9072   2.380   5.586   8.667 -0.5965 -0.5419 -2.7015
   92SAPS  C318 9073   2.488   5.769   8.629  0.0263  0.7676 -0.5991
   92SAPS  H18X 9074   2.589   5.816   8.629 -0.5895  2.1394 -0.4445
   92SAPS  H18Y 9075   2.435   5.807   8.720 -0.6277  2.8130 -1.7758
   92SAPS  H18Z 9076   2.440   5.808   8.538 -0.4817  0.2749 -0.5489
   93SAPS     N 9077   4.143   4.974   6.436 -0.7396  0.4527  0.1424
   93SAPS   HN1 9078   4.087   4.937   6.515  1.1902 -2.1978  0.4357
   93SAPS   HN2 9079   4.243   4.951   6.459 -0.5961  0.8916 -0.0446
   93SAPS   HN3 9080   4.135   5.074   6.409 -0.3737  0.4264 -0.0748
   93SAPS   C12 9081   4.092   4.888   6.321  0.2555 -1.2111 -0.1729
   93SAPS  H12A 9082   3.985   4.902   6.322 -0.2132 -4.1573 -0.1470
   93SAPS   C13 9083   4.130   4.924   6.180 -0.5107 -0.2121 -0.0441
   93SAPS  O13A 9084   4.224   5.009   6.160  0.1851  0.2168  0.0008
   93SAPS  O13B 9085   4.072   4.878   6.079 -0.2220  0.4530  0.2238
   93SAPS   C11 9086   4.110   4.730   6.344  0.4393 -0.1406  0.1255
   93SAPS  H11A 9087   4.213   4.729   6.385  0.9240 -0.9336 -1.0804
   93SAPS  H11B 9088   4.111   4.682   6.244  1.4790  0.4695 -0.1689
   93SAPS     P 9089   4.034   4.659   6.581 -0.2392 -0.4377  0.2108
   93SAPS   O13 9090   3.917   4.587   6.641 -0.0589 -0.2462  0.5306
   93SAPS   O14 9091   4.170   4.602   6.604  0.1361  0.0476 -0.8149
   93SAPS   O12 9092   4.005   4.673   6.424  0.7630 -0.0948  0.1908
   93SAPS   O11 9093   4.040   4.808   6.626 -0.1215 -0.8202  0.0956
   93SAPS    C1 9094   4.133   4.856   6.722  0.7424  0.4850  0.2601
   93SAPS    HA 9095   4.234   4.875   6.681  0.9163 -1.1221 -0.1492
   93SAPS    HB 9096   4.110   4.961   6.748 -0.3850 -0.3070  2.8995
   93SAPS    C2 9097   4.116   4.783   6.853  0.5789  0.3463 -0.4642
   93SAPS    HS 9098   4.149   4.677   6.849  0.4246  0.1978  1.3924
   93SAPS   O21 9099   3.977   4.801   6.895  0.3080 -0.0595  0.3760
   93SAPS   C21 9100   3.919   4.689   6.942 -0.1337 -0.7777 -0.9213
   93SAPS   O22 9101   3.983   4.589   6.975  0.3544 -0.3717 -0.4808
   93SAPS   C22 9102   3.766   4.695   6.934 -0.0030 -0.0984 -0.2240
   93SAPS   H2R 9103   3.728   4.796   6.912 -1.0840 -0.7725 -1.5850
   93SAPS   H2S 9104   3.742   4.634   6.844 -0.4303 -0.8381  0.3721
   93SAPS    C3 9105   4.214   4.846   6.953 -0.4108 -0.3002 -0.3648
   93SAPS    HX 9106   4.208   4.956   6.935 -0.5196 -0.6574 -2.7998
   93SAPS    HY 9107   4.318   4.815   6.929  0.3041  0.3058  1.7159
   93SAPS   O31 9108   4.183   4.816   7.090 -0.3456 -0.1494 -0.2326
   93SAPS   C31 9109   4.261   4.883   7.174  0.0329 -0.2172  0.8645
   93SAPS   O32 9110   4.357   4.952   7.142 -0.0075 -0.3512  0.0965
   93SAPS   C32 9111   4.217   4.869   7.316  0.2888  0.2424 -0.0124
   93SAPS   H2X 9112   4.196   4.760   7.328  1.1154 -0.3015 -2.8314
   93SAPS   H2Y 9113   4.125   4.930   7.323  0.5094  0.8187 -1.6651
   93SAPS   C23 9114   3.687   4.624   7.051 -0.6422  0.5955 -0.0446
   93SAPS   H3R 9115   3.719   4.517   7.052  0.4591  0.7898 -3.3333
   93SAPS   H3S 9116   3.580   4.630   7.019 -0.3687  0.3729 -1.0080
   93SAPS   C24 9117   3.711   4.697   7.179 -0.2907  0.4905 -0.0589
   93SAPS   H4R 9118   3.697   4.807   7.166  1.5665  0.7919  0.1997
   93SAPS   H4S 9119   3.819   4.695   7.205 -0.4529  0.8294  0.6761
   93SAPS   C25 9120   3.619   4.651   7.293  0.0062  0.6886  0.2258
   93SAPS   H5R 9121   3.514   4.676   7.275  0.6540  3.0169 -0.5781
   93SAPS   C26 9122   3.660   4.600   7.413  0.1756 -0.2908 -0.2053
   93SAPS   H6R 9123   3.593   4.589   7.500 -0.6425  0.3436 -0.7396
   93SAPS   C27 9124   3.799   4.573   7.451 -0.6339  0.4732 -0.7286
   93SAPS   H7R 9125   3.844   4.522   7.364 -0.6940  1.3787 -1.3022
   93SAPS   H7S 9126   3.811   4.497   7.532 -0.6876 -0.1107 -1.2661
   93SAPS   C28 9127   3.881   4.690   7.483 -0.6170 -0.0116 -0.2536
   93SAPS   H8R 9128   3.919   4.738   7.392 -3.0491  0.2577 -1.1987
   93SAPS   C29 9129   3.925   4.730   7.609  0.4819  0.6102  0.4910
   93SAPS   H9R 9130   3.991   4.818   7.613  1.2229  0.4498 -3.7474
   93SAPS  C210 9131   3.898   4.662   7.741  0.1735  0.0626 -0.1667
   93SAPS  H10R 9132   3.885   4.554   7.718 -0.4635 -0.5887  2.8604
   93SAPS  H10S 9133   3.813   4.705   7.799  0.6737  0.9857 -0.0912
   93SAPS  C211 9134   4.022   4.675   7.836  0.1054  0.1086  0.8544
   93SAPS  H11R 9135   4.110   4.619   7.801 -1.7218 -1.4307 -1.5956
   93SAPS  C212 9136   4.038   4.733   7.955  0.4288  0.8887  0.3233
   93SAPS  H12R 9137   4.132   4.718   8.011  0.6320 -3.5701 -0.8086
   93SAPS  C213 9138   3.939   4.804   8.039 -0.1288 -0.0141 -0.7120
   93SAPS  H13R 9139   3.848   4.813   7.977  0.6625  2.5365 -1.6275
   93SAPS  H13S 9140   3.973   4.907   8.065 -0.8110 -0.2453  1.2847
   93SAPS  C214 9141   3.911   4.724   8.163 -0.3959  0.1295  0.3684
   93SAPS  H14R 9142   3.853   4.633   8.142  2.1066 -1.1381 -1.6073
   93SAPS  C215 9143   3.963   4.741   8.283 -0.5721 -0.0458 -0.3221
   93SAPS  H15R 9144   3.923   4.688   8.370 -1.8152  1.0332 -0.2080
   93SAPS  C216 9145   4.057   4.850   8.333 -0.5606  0.2921 -0.2834
   93SAPS  H16R 9146   3.999   4.940   8.361 -0.4919  0.2274  0.0753
   93SAPS  H16S 9147   4.127   4.888   8.256 -0.4830  0.8910  0.0737
   93SAPS  C217 9148   4.153   4.803   8.450  0.3686 -0.0629 -0.6979
   93SAPS  H17R 9149   4.229   4.883   8.458 -0.7840  0.9316  0.5968
   93SAPS  H17S 9150   4.209   4.710   8.422  0.7883  0.1195 -0.4827
   93SAPS  C218 9151   4.088   4.795   8.588  0.0445  0.2737 -0.4495
   93SAPS  H18R 9152   4.003   4.725   8.571  0.2880  0.4812 -2.8993
   93SAPS  H18S 9153   4.054   4.895   8.622 -0.3461 -0.0010 -0.0189
   93SAPS  C219 9154   4.192   4.742   8.694  0.2022 -0.7280  0.5344
   93SAPS  H19R 9155   4.228   4.642   8.661  0.4436 -0.0782 -1.2584
   93SAPS  H19S 9156   4.139   4.727   8.790  0.1755 -3.7455  0.1437
   93SAPS  C220 9157   4.307   4.841   8.723 -0.1001 -0.2254  0.2240
   93SAPS  H20R 9158   4.368   4.814   8.812 -0.2552  2.7720  1.3823
   93SAPS  H20S 9159   4.276   4.946   8.746 -0.8166 -0.8706  2.5161
   93SAPS  H20T 9160   4.387   4.845   8.646  0.7754 -2.2896  0.9648
   93SAPS   C33 9161   4.311   4.924   7.417  0.3790 -0.2321 -0.0516
   93SAPS   H3X 9162   4.312   5.032   7.393  1.0656  0.1331  1.5042
   93SAPS   H3Y 9163   4.409   4.882   7.387  0.0102 -1.1798  0.0222
   93SAPS   C34 9164   4.269   4.908   7.567  0.2272 -0.1678  0.7587
   93SAPS   H4X 9165   4.228   4.808   7.591  0.6861 -0.2432  1.2352
   93SAPS   H4Y 9166   4.194   4.990   7.574  0.5303  0.0953  0.9192
   93SAPS   C35 9167   4.388   4.925   7.668  0.2875 -0.4710  0.0650
   93SAPS   H5X 9168   4.437   5.024   7.652  1.5410 -0.9500  0.7679
   93SAPS   H5Y 9169   4.470   4.855   7.640  0.1381 -0.7071  0.2141
   93SAPS   C36 9170   4.342   4.905   7.813  0.3689 -0.4220  0.4714
   93SAPS   H6X 9171   4.336   4.796   7.835 -1.4142 -0.2768  0.8232
   93SAPS   H6Y 9172   4.242   4.951   7.822  0.9487  0.8386  0.6939
   93SAPS   C37 9173   4.437   4.971   7.914 -0.1704 -0.7103 -0.2699
   93SAPS   H7X 9174   4.432   5.079   7.891 -0.0540  0.3119  3.9108
   93SAPS   H7Y 9175   4.536   4.925   7.894 -0.9424 -2.0593 -1.2328
   93SAPS   C38 9176   4.400   4.950   8.060 -0.0886  0.3475 -0.5898
   93SAPS   H8X 9177   4.421   4.845   8.089  1.3623  0.3960 -1.3704
   93SAPS   H8Y 9178   4.295   4.970   8.093 -0.4399 -1.0043 -0.8031
   93SAPS   C39 9179   4.501   5.026   8.151  0.2951  0.2316 -0.2176
   93SAPS   H9X 9180   4.491   5.136   8.143 -1.7770  0.0348 -0.9381
   93SAPS   H9Y 9181   4.598   4.994   8.106 -0.4456  0.3033 -1.9569
   93SAPS  C310 9182   4.497   4.986   8.301 -0.4208 -0.3399  0.0318
   93SAPS  H10X 9183   4.509   4.875   8.310  0.1468 -0.4308 -1.5552
   93SAPS  H10Y 9184   4.406   5.025   8.352  1.0295  5.1479 -1.0280
   93SAPS  C311 9185   4.618   5.041   8.373 -1.1480  0.3955  0.1784
   93SAPS  H11X 9186   4.660   5.136   8.334 -0.4571  0.8079  1.8709
   93SAPS  H11Y 9187   4.697   4.977   8.328 -1.2477 -0.2188  0.8537
   93SAPS  C312 9188   4.603   5.032   8.521 -0.2064  0.7103 -0.5271
   93SAPS  H12X 9189   4.592   4.927   8.556  0.9955  1.6587  3.1177
   93SAPS  H12Y 9190   4.507   5.081   8.547  0.2624  1.8082 -0.7973
   93SAPS  C313 9191   4.722   5.096   8.600  0.0986  0.1168 -0.7771
   93SAPS  H13X 9192   4.703   5.086   8.709  1.3211 -1.4947 -0.6800
   93SAPS  H13Y 9193   4.738   5.204   8.578 -2.9721  0.4714 -1.8275
   93SAPS  C314 9194   4.848   5.007   8.571  0.6457  0.0861 -0.2644
   93SAPS  H14X 9195   4.879   5.029   8.467  0.1004 -0.8319 -0.6366
   93SAPS  H14Y 9196   4.820   4.901   8.586 -0.0817  0.4804  1.4935
   93SAPS  C315 9197   4.981   5.041   8.643  0.7690 -0.3548  0.6512
   93SAPS  H15X 9198   4.967   5.064   8.751  2.1405  0.2502  0.7172
   93SAPS  H15Y 9199   5.026   5.130   8.594 -1.3835  0.2336 -0.3713
   93SAPS  C316 9200   5.071   4.927   8.628  1.0194 -0.1547  0.4785
   93SAPS  H16X 9201   5.106   4.926   8.523  1.6887  0.0007  0.6933
   93SAPS  H16Y 9202   5.027   4.829   8.659  0.5235  0.1050  0.6084
   93SAPS  C317 9203   5.201   4.947   8.715  0.1076 -0.9456 -0.2226
   93SAPS  H17X 9204   5.181   4.938   8.824  2.0728 -0.0779  0.2350
   93SAPS  H17Y 9205   5.250   5.044   8.694  3.6035 -2.6289 -0.5494
   93SAPS  C318 9206   5.322   4.849   8.673 -0.3641 -0.3449 -0.5507
   93SAPS  H18X 9207   5.299   4.741   8.667 -0.2718 -0.7261  3.3281
   93SAPS  H18Y 9208   5.406   4.863   8.745 -0.7211 -1.5164  0.1215
   93SAPS  H18Z 9209   5.360   4.886   8.575  3.5039 -0.4473  0.7322
   94SAPS     N 9210   3.189   1.940   5.810 -0.1533  0.2464 -0.0498
   94SAPS   HN1 9211   3.282   1.988   5.808  0.6936 -1.1856  2.1690
   94SAPS   HN2 9212   3.116   1.966   5.741 -1.9711 -2.0222  0.8854
   94SAPS   HN3 9213   3.154   1.960   5.906  0.9283 -0.6121  0.5374
   94SAPS   C12 9214   3.214   1.797   5.792 -0.3515  0.1125  0.0252
   94SAPS  H12A 9215   3.275   1.770   5.877 -1.3702  1.0822  1.1135
   94SAPS   C13 9216   3.086   1.713   5.777 -0.3345 -0.5822 -0.4553
   94SAPS  O13A 9217   2.976   1.774   5.755  0.5823  0.0750  0.1125
   94SAPS  O13B 9218   3.098   1.590   5.794 -0.0542  0.4065 -0.7992
   94SAPS   C11 9219   3.298   1.777   5.663 -0.5126  0.0603  0.0743
   94SAPS  H11A 9220   3.238   1.806   5.574  0.7434  1.2756 -0.4078
   94SAPS  H11B 9221   3.303   1.666   5.659 -0.8116 -0.0437  1.8756
   94SAPS     P 9222   3.552   1.778   5.701 -0.1406 -0.3886  0.1652
   94SAPS   O13 9223   3.559   1.660   5.613 -0.2741 -0.3351 -0.5774
   94SAPS   O14 9224   3.664   1.876   5.691 -0.0796  0.0651 -0.6440
   94SAPS   O12 9225   3.422   1.854   5.666  0.1959 -0.2331  0.0249
   94SAPS   O11 9226   3.535   1.719   5.848 -0.0329  0.3976 -0.0398
   94SAPS    C1 9227   3.583   1.800   5.966  0.0313 -0.1504  0.3599
   94SAPS    HA 9228   3.579   1.910   5.956 -0.8388  0.1785  3.3361
   94SAPS    HB 9229   3.523   1.767   6.054  2.5867 -0.9546  1.9162
   94SAPS    C2 9230   3.728   1.770   6.006  0.1906 -0.9723  0.1933
   94SAPS    HS 9231   3.785   1.817   5.923  1.0638 -1.1673  0.6729
   94SAPS   O21 9232   3.751   1.630   6.019 -0.3992  0.1015 -0.2701
   94SAPS   C21 9233   3.880   1.589   5.999  0.3793 -0.3213 -0.0956
   94SAPS   O22 9234   3.972   1.662   5.976 -0.8608 -0.3238  0.4445
   94SAPS   C22 9235   3.884   1.428   6.001 -0.9512  0.7098  0.0853
   94SAPS   H2R 9236   3.793   1.382   6.045 -1.2726 -1.2709 -2.4391
   94SAPS   H2S 9237   3.880   1.403   5.893 -0.5527  1.4341 -0.1064
   94SAPS    C3 9238   3.770   1.840   6.142 -0.5096  0.3738 -0.1109
   94SAPS    HX 9239   3.766   1.951   6.136 -2.7647  0.3190 -0.6701
   94SAPS    HY 9240   3.875   1.809   6.154 -0.1444  1.0966 -1.2961
   94SAPS   O31 9241   3.685   1.785   6.245  0.2428  0.5747 -0.3172
   94SAPS   C31 9242   3.592   1.863   6.302  0.3416 -0.0058  0.3274
   94SAPS   O32 9243   3.555   1.972   6.254  0.0884 -0.1686 -0.1143
   94SAPS   C32 9244   3.514   1.795   6.416  0.4191  0.5378 -0.2548
   94SAPS   H2X 9245   3.565   1.714   6.473 -1.1966 -1.8758 -2.0327
   94SAPS   H2Y 9246   3.422   1.748   6.375 -0.7550  2.6370 -0.1479
   94SAPS   C23 9247   4.014   1.374   6.064  0.1062 -0.9883 -0.2954
   94SAPS   H3R 9248   4.102   1.426   6.021 -1.6804  0.6015 -2.2528
   94SAPS   H3S 9249   4.016   1.266   6.039 -0.8571 -1.0132 -0.2935
   94SAPS   C24 9250   4.027   1.391   6.206  0.0483  0.3867 -0.4045
   94SAPS   H4R 9251   3.989   1.488   6.244 -0.2896 -0.3366  1.1748
   94SAPS   H4S 9252   4.134   1.389   6.235  0.1299 -0.8520 -0.7290
   94SAPS   C25 9253   3.965   1.270   6.286 -0.7931  0.0682  0.1739
   94SAPS   H5R 9254   4.031   1.182   6.279  0.1399  0.7548  0.3018
   94SAPS   C26 9255   3.862   1.259   6.368 -0.4891 -0.1530 -0.9036
   94SAPS   H6R 9256   3.838   1.155   6.393 -0.7938  0.0231 -0.4362
   94SAPS   C27 9257   3.767   1.368   6.404  0.3890 -0.4628 -0.2950
   94SAPS   H7R 9258   3.664   1.327   6.407  0.5118 -0.7017  1.6751
   94SAPS   H7S 9259   3.773   1.450   6.328 -2.2263 -1.5915 -1.8466
   94SAPS   C28 9260   3.811   1.421   6.541 -1.2288 -0.3418  0.4108
   94SAPS   H8R 9261   3.915   1.455   6.551 -1.3447  0.6335 -1.3534
   94SAPS   C29 9262   3.725   1.438   6.638 -0.1422  0.1932 -0.0433
   94SAPS   H9R 9263   3.770   1.484   6.728  1.7999  2.9250 -2.1996
   94SAPS  C210 9264   3.578   1.404   6.635  0.0079 -0.1373  0.5698
   94SAPS  H10R 9265   3.550   1.319   6.570 -0.0636  1.7721 -2.0514
   94SAPS  H10S 9266   3.519   1.486   6.589 -0.4530 -0.9211 -0.2481
   94SAPS  C211 9267   3.532   1.399   6.779 -0.2475  0.2143 -0.7268
   94SAPS  H11R 9268   3.527   1.495   6.833 -0.2110 -0.6375  0.8492
   94SAPS  C212 9269   3.527   1.289   6.857  0.4382  0.6013  0.0944
   94SAPS  H12R 9270   3.484   1.297   6.958  2.6468  1.3275  1.0533
   94SAPS  C213 9271   3.551   1.155   6.798  0.4629  1.0074  0.3118
   94SAPS  H13R 9272   3.590   1.144   6.695 -2.2884 -1.0809 -0.6252
   94SAPS  H13S 9273   3.456   1.101   6.780  2.6498 -2.6250 -1.3798
   94SAPS  C214 9274   3.636   1.074   6.894 -0.2868 -0.7255 -0.4554
   94SAPS  H14R 9275   3.742   1.057   6.867 -0.2321 -0.5275 -0.3635
   94SAPS  C215 9276   3.597   1.012   7.008 -0.4766 -0.1958 -0.0071
   94SAPS  H15R 9277   3.671   0.959   7.069 -1.8158 -1.3340  0.7036
   94SAPS  C216 9278   3.461   1.006   7.070 -0.1540  0.1117 -0.0324
   94SAPS  H16R 9279   3.432   0.899   7.084 -0.5292  0.4266  1.9719
   94SAPS  H16S 9280   3.384   1.057   7.008 -0.3859 -0.6390 -0.3800
   94SAPS  C217 9281   3.449   1.089   7.194  0.0036  0.4623  0.5429
   94SAPS  H17R 9282   3.346   1.076   7.233 -0.4236 -0.7163 -0.8764
   94SAPS  H17S 9283   3.454   1.199   7.185  0.4586  0.4039  0.0639
   94SAPS  C218 9284   3.552   1.049   7.303 -0.0487 -0.5650 -0.5615
   94SAPS  H18R 9285   3.655   1.074   7.271  0.4947 -0.5619  1.1180
   94SAPS  H18S 9286   3.553   0.941   7.326  2.6339 -0.4766  0.0373
   94SAPS  C219 9287   3.514   1.120   7.437  1.1065 -0.5223 -0.3716
   94SAPS  H19R 9288   3.408   1.100   7.461  1.0815 -0.1115 -0.1174
   94SAPS  H19S 9289   3.518   1.231   7.423  0.7840 -0.0713  2.5714
   94SAPS  C220 9290   3.592   1.076   7.561  0.1055  0.2706  0.7196
   94SAPS  H20R 9291   3.699   1.083   7.535  0.5137 -0.7523  1.9995
   94SAPS  H20S 9292   3.567   0.974   7.599 -1.8509  1.3415  2.4965
   94SAPS  H20T 9293   3.578   1.141   7.649 -0.5237 -0.4373  1.1602
   94SAPS   C33 9294   3.459   1.893   6.518 -0.1789 -0.5549 -0.4545
   94SAPS   H3X 9295   3.377   1.947   6.467  0.3711 -0.2396 -1.0203
   94SAPS   H3Y 9296   3.530   1.975   6.541 -0.2345 -0.5366 -0.3472
   94SAPS   C34 9297   3.417   1.833   6.654  0.1621  0.2857  0.2868
   94SAPS   H4X 9298   3.496   1.765   6.696 -0.1335 -0.2334  0.0074
   94SAPS   H4Y 9299   3.327   1.771   6.636  0.1730 -0.5527  2.7101
   94SAPS   C35 9300   3.382   1.938   6.758 -0.0183 -0.4760  0.2676
   94SAPS   H5X 9301   3.321   2.022   6.719  2.5618  2.4535  2.0536
   94SAPS   H5Y 9302   3.477   1.988   6.789 -0.3533  0.4031 -0.1236
   94SAPS   C36 9303   3.312   1.872   6.881 -0.6821 -0.2044  0.2818
   94SAPS   H6X 9304   3.225   1.819   6.838 -1.5222  1.3522  0.0240
   94SAPS   H6Y 9305   3.284   1.950   6.955  0.0777  0.4326 -0.0956
   94SAPS   C37 9306   3.386   1.758   6.953 -0.3770 -0.6172  0.2060
   94SAPS   H7X 9307   3.481   1.799   6.992 -0.6966  1.3611 -0.9445
   94SAPS   H7Y 9308   3.405   1.685   6.872  3.8553  0.2392  0.2086
   94SAPS   C38 9309   3.314   1.706   7.075 -0.0586 -0.4739  0.2435
   94SAPS   H8X 9310   3.215   1.662   7.050 -0.0654  0.1145 -0.8419
   94SAPS   H8Y 9311   3.293   1.790   7.144  0.3599  1.4190 -1.8363
   94SAPS   C39 9312   3.385   1.589   7.141  0.0819  0.2958 -0.2270
   94SAPS   H9X 9313   3.481   1.610   7.194 -0.7601  3.2641  0.3289
   94SAPS   H9Y 9314   3.404   1.522   7.055 -0.8954  0.5264 -0.6328
   94SAPS  C310 9315   3.292   1.511   7.234 -0.6141  0.8108 -0.2299
   94SAPS  H10X 9316   3.311   1.404   7.208 -1.0913  0.7278 -0.2575
   94SAPS  H10Y 9317   3.186   1.542   7.218 -1.3530 -1.5947 -0.4715
   94SAPS  C311 9318   3.339   1.529   7.383 -0.0398  0.0076  0.5164
   94SAPS  H11X 9319   3.333   1.634   7.420  1.5411  0.4191 -0.3355
   94SAPS  H11Y 9320   3.445   1.496   7.384 -0.5867 -2.0789 -1.8869
   94SAPS  C312 9321   3.252   1.435   7.468  0.2429  0.5083 -0.1698
   94SAPS  H12X 9322   3.272   1.330   7.438 -1.5616  0.0853 -0.0294
   94SAPS  H12Y 9323   3.146   1.437   7.435  0.3287 -1.7529 -0.7536
   94SAPS  C313 9324   3.262   1.448   7.619 -0.0876 -0.2081 -0.2287
   94SAPS  H13X 9325   3.210   1.362   7.667 -1.1393  0.5935  0.1070
   94SAPS  H13Y 9326   3.221   1.547   7.648 -0.1583  0.5689 -2.7859
   94SAPS  C314 9327   3.415   1.464   7.659 -0.1999  0.5778  0.3187
   94SAPS  H14X 9328   3.474   1.542   7.605 -0.7735 -0.5639 -2.0837
   94SAPS  H14Y 9329   3.464   1.365   7.645  0.4901  1.0101 -0.4495
   94SAPS  C315 9330   3.439   1.495   7.812  0.1114 -0.7107 -0.1977
   94SAPS  H15X 9331   3.435   1.605   7.827 -2.1144 -0.8245  0.3771
   94SAPS  H15Y 9332   3.539   1.456   7.840  0.6982 -1.6912 -3.2732
   94SAPS  C316 9333   3.325   1.435   7.904  0.1496  1.0314 -0.1675
   94SAPS  H16X 9334   3.301   1.332   7.871  2.7554 -0.1897  1.4007
   94SAPS  H16Y 9335   3.225   1.482   7.901 -0.8226 -1.0030 -1.2973
   94SAPS  C317 9336   3.377   1.423   8.045 -0.1117 -0.0318  0.3540
   94SAPS  H17X 9337   3.428   1.514   8.082  0.6331 -0.4560  0.3965
   94SAPS  H17Y 9338   3.462   1.351   8.051  1.4387  1.6408 -0.7901
   94SAPS  C318 9339   3.274   1.367   8.146  0.0327  0.1034 -0.1616
   94SAPS  H18X 9340   3.310   1.377   8.250 -0.0428 -0.7863 -0.0433
   94SAPS  H18Y 9341   3.244   1.263   8.123  1.0452 -0.1115 -0.5542
   94SAPS  H18Z 9342   3.191   1.440   8.138  0.5065  0.7155  0.4332
   95SAPS     N 9343   5.962   5.044   6.202  0.5180 -0.5098 -0.3852
   95SAPS   HN1 9344   5.974   5.013   6.104  0.9366  3.1220 -1.6596
   95SAPS   HN2 9345   5.912   5.135   6.213  2.1095  0.2654  1.2493
   95SAPS   HN3 9346   6.060   5.047   6.237  0.0234 -1.0362  1.1246
   95SAPS   C12 9347   5.897   4.941   6.280  0.7277  0.9320  0.1762
   95SAPS  H12A 9348   5.876   4.987   6.375  2.9757  0.4465  0.9603
   95SAPS   C13 9349   5.764   4.885   6.222 -0.7227  0.3275  0.3905
   95SAPS  O13A 9350   5.705   4.943   6.127  0.1241 -0.5054 -0.1472
   95SAPS  O13B 9351   5.710   4.791   6.286 -0.1925 -0.0158 -0.2592
   95SAPS   C11 9352   5.991   4.823   6.285 -0.1694  0.0748 -0.1554
   95SAPS  H11A 9353   5.934   4.737   6.327 -3.0520  2.5870  1.3749
   95SAPS  H11B 9354   6.069   4.832   6.364  1.8354 -0.9208 -1.8907
   95SAPS     P 9355   6.126   4.649   6.136 -0.1885  0.3289 -0.5940
   95SAPS   O13 9356   6.033   4.577   6.049 -0.1435 -0.4062  0.5965
   95SAPS   O14 9357   6.265   4.670   6.087 -0.4201 -0.5215 -0.4974
   95SAPS   O12 9358   6.059   4.791   6.168 -0.0464 -0.4404  0.7106
   95SAPS   O11 9359   6.129   4.585   6.274 -0.2056  0.1089  0.3923
   95SAPS    C1 9360   6.138   4.452   6.315  0.6592 -0.1972 -0.2107
   95SAPS    HA 9361   6.155   4.390   6.224  0.7424  1.1515 -1.1312
   95SAPS    HB 9362   6.234   4.438   6.370  1.2030  0.6915 -0.9049
   95SAPS    C2 9363   6.013   4.409   6.395 -0.1063  0.1724  1.0265
   95SAPS    HS 9364   5.939   4.431   6.315 -0.3625 -0.9365  0.9461
   95SAPS   O21 9365   5.998   4.516   6.493 -0.0633 -0.3191  0.2447
   95SAPS   C21 9366   5.883   4.517   6.558  0.0821 -0.3172 -0.2412
   95SAPS   O22 9367   5.788   4.442   6.540 -0.2866 -0.3141 -0.0509
   95SAPS   C22 9368   5.887   4.627   6.661  0.4700 -0.1587  0.4746
   95SAPS   H2R 9369   5.912   4.723   6.611 -0.6094  0.4382  1.0311
   95SAPS   H2S 9370   5.787   4.629   6.710  1.4185  0.8294  2.4939
   95SAPS    C3 9371   6.014   4.268   6.448  0.1127  0.0396  1.3405
   95SAPS    HX 9372   6.023   4.201   6.359 -1.5193  0.1311  1.0852
   95SAPS    HY 9373   5.914   4.246   6.489 -0.0303  1.0404  1.5361
   95SAPS   O31 9374   6.110   4.240   6.539  0.6180  0.8772  0.4917
   95SAPS   C31 9375   6.083   4.263   6.667 -0.3458 -0.3237 -0.3213
   95SAPS   O32 9376   5.973   4.287   6.713  0.2585 -0.3543 -0.6438
   95SAPS   C32 9377   6.213   4.272   6.734 -0.3464 -0.2991  0.2947
   95SAPS   H2X 9378   6.253   4.376   6.736 -1.7372  0.3498 -2.0820
   95SAPS   H2Y 9379   6.291   4.224   6.671 -0.2772 -0.2361  0.3321
   95SAPS   C23 9380   5.969   4.594   6.780  0.1468  0.7912 -1.0168
   95SAPS   H3R 9381   6.075   4.590   6.747 -0.1708  0.8220 -2.0969
   95SAPS   H3S 9382   5.933   4.499   6.826  0.4728  1.5401  0.8801
   95SAPS   C24 9383   5.961   4.709   6.882 -0.9838  0.0600  0.2234
   95SAPS   H4R 9384   5.857   4.739   6.907 -0.4761  2.0033  0.1769
   95SAPS   H4S 9385   6.004   4.791   6.821 -1.5173 -0.5441 -0.9801
   95SAPS   C25 9386   6.047   4.681   7.005  0.1968  0.3270  0.2766
   95SAPS   H5R 9387   6.152   4.711   7.011  0.1374  0.4030  1.0281
   95SAPS   C26 9388   5.989   4.646   7.124 -0.0336 -0.5268 -0.4230
   95SAPS   H6R 9389   6.060   4.628   7.207  0.0738  1.1143 -0.1218
   95SAPS   C27 9390   5.844   4.608   7.147 -0.1272 -0.0626 -0.4105
   95SAPS   H7R 9391   5.826   4.500   7.164  2.4838 -0.5659 -0.3304
   95SAPS   H7S 9392   5.775   4.632   7.064  0.2102  0.0144 -0.6741
   95SAPS   C28 9393   5.800   4.691   7.264 -0.1310  0.1962  0.0410
   95SAPS   H8R 9394   5.777   4.797   7.244  1.9396  0.5874 -0.4846
   95SAPS   C29 9395   5.798   4.645   7.395  0.2240  0.2647  0.2389
   95SAPS   H9R 9396   5.759   4.713   7.472 -1.6468  0.2837 -0.6803
   95SAPS  C210 9397   5.833   4.515   7.457  0.1390 -0.3003  0.7418
   95SAPS  H10R 9398   5.828   4.439   7.376  1.1960  0.2283  0.1643
   95SAPS  H10S 9399   5.753   4.489   7.530 -0.8953  2.4595  0.7317
   95SAPS  C211 9400   5.969   4.531   7.524  0.5043 -0.1405 -0.7798
   95SAPS  H11R 9401   6.039   4.588   7.462 -0.9034  2.7410  0.0931
   95SAPS  C212 9402   6.006   4.501   7.651  0.0452  0.3247  0.4079
   95SAPS  H12R 9403   6.099   4.547   7.687 -0.3130  1.0276  0.4705
   95SAPS  C213 9404   5.925   4.430   7.759 -0.0933  0.1446  0.1658
   95SAPS  H13R 9405   5.989   4.346   7.793  1.4792  0.4018 -2.0104
   95SAPS  H13S 9406   5.821   4.401   7.732 -0.1734 -0.4987  1.0938
   95SAPS  C214 9407   5.921   4.511   7.884 -0.6145 -0.3101  0.0638
   95SAPS  H14R 9408   5.898   4.617   7.862  1.9730 -0.1221 -2.3998
   95SAPS  C215 9409   5.954   4.474   8.010  0.5261  0.5615  0.4109
   95SAPS  H15R 9410   5.944   4.543   8.095  1.1482 -1.1676  1.9695
   95SAPS  C216 9411   5.986   4.338   8.059 -0.5058 -0.0831 -0.1284
   95SAPS  H16R 9412   6.096   4.328   8.074 -0.8401 -0.4445  2.4873
   95SAPS  H16S 9413   5.961   4.259   7.985 -0.5511  0.6113 -0.8749
   95SAPS  C217 9414   5.909   4.297   8.186 -0.6440  0.2836 -0.0544
   95SAPS  H17R 9415   5.896   4.187   8.184  0.5143  0.1112 -2.6139
   95SAPS  H17S 9416   5.805   4.333   8.202 -1.1765 -0.3738 -1.7240
   95SAPS  C218 9417   5.977   4.341   8.316 -0.3414 -0.5740 -0.7345
   95SAPS  H18R 9418   5.899   4.343   8.395  0.1440 -0.9286 -0.2393
   95SAPS  H18S 9419   6.017   4.442   8.295 -0.6771 -0.7433 -2.3374
   95SAPS  C219 9420   6.083   4.248   8.368 -0.4475  0.1618 -0.1302
   95SAPS  H19R 9421   6.171   4.231   8.302 -0.0528  0.6533  0.2615
   95SAPS  H19S 9422   6.031   4.154   8.395 -0.7142  0.8464  1.9306
   95SAPS  C220 9423   6.156   4.289   8.499  0.2891 -0.9551 -0.2042
   95SAPS  H20R 9424   6.081   4.321   8.575  1.1365  0.3658  0.1253
   95SAPS  H20S 9425   6.221   4.377   8.477 -2.1419  0.6496 -1.5530
   95SAPS  H20T 9426   6.217   4.205   8.538  0.4051 -0.0771  1.5939
   95SAPS   C33 9427   6.216   4.205   6.876 -0.8788 -0.9279 -0.3595
   95SAPS   H3X 9428   6.325   4.187   6.894 -1.2757 -1.2553  2.1816
   95SAPS   H3Y 9429   6.159   4.110   6.870 -0.3644 -1.2040 -0.9831
   95SAPS   C34 9430   6.176   4.304   6.984  0.0685  0.6484 -0.2633
   95SAPS   H4X 9431   6.066   4.285   6.986  0.3782 -1.7065 -1.8599
   95SAPS   H4Y 9432   6.207   4.410   6.977  2.4071  0.0792  0.5853
   95SAPS   C35 9433   6.219   4.253   7.121 -0.0172  0.3735 -0.6863
   95SAPS   H5X 9434   6.329   4.264   7.111 -0.0462 -0.7236 -2.6609
   95SAPS   H5Y 9435   6.186   4.147   7.118  0.5536  0.1890 -3.6404
   95SAPS   C36 9436   6.140   4.325   7.231  0.3513  0.6047  0.0318
   95SAPS   H6X 9437   6.036   4.337   7.193  0.2039 -1.1331 -0.2178
   95SAPS   H6Y 9438   6.167   4.433   7.235 -1.1270  0.9500  2.6269
   95SAPS   C37 9439   6.139   4.249   7.365 -0.1514  0.5214 -0.3908
   95SAPS   H7X 9440   6.111   4.142   7.350 -0.6875  0.4033  1.1807
   95SAPS   H7Y 9441   6.066   4.303   7.430 -1.8448 -0.8847 -1.0276
   95SAPS   C38 9442   6.266   4.254   7.457  0.1129  0.5188  0.2502
   95SAPS   H8X 9443   6.297   4.360   7.470  1.7536  0.0199  0.6406
   95SAPS   H8Y 9444   6.349   4.204   7.403  0.0034  1.5085 -0.8724
   95SAPS   C39 9445   6.234   4.187   7.595 -0.2742 -0.8385  0.6766
   95SAPS   H9X 9446   6.186   4.090   7.569 -1.4761 -0.0886  0.0490
   95SAPS   H9Y 9447   6.143   4.239   7.632 -0.7350 -0.5028 -0.8791
   95SAPS  C310 9448   6.347   4.178   7.701  0.0505  0.8680 -0.7318
   95SAPS  H10X 9449   6.418   4.261   7.682  0.3409  1.2908  1.7941
   95SAPS  H10Y 9450   6.400   4.081   7.689  1.4227  1.6329 -1.1703
   95SAPS  C311 9451   6.300   4.195   7.847  0.3441  0.9779 -0.3411
   95SAPS  H11X 9452   6.232   4.114   7.882 -0.0206  1.6327  0.5017
   95SAPS  H11Y 9453   6.242   4.289   7.863 -3.0702 -1.0269  0.0616
   95SAPS  C312 9454   6.426   4.186   7.944  0.6368  0.1847 -0.1193
   95SAPS  H12X 9455   6.507   4.256   7.911 -0.4587  1.3917 -0.3210
   95SAPS  H12Y 9456   6.460   4.080   7.944 -2.3255 -0.8558 -0.8220
   95SAPS  C313 9457   6.408   4.229   8.090 -0.3963 -0.4165 -0.2453
   95SAPS  H13X 9458   6.309   4.199   8.130  0.2383  2.4856  4.2710
   95SAPS  H13Y 9459   6.407   4.340   8.097  0.0909 -0.4860  1.3441
   95SAPS  C314 9460   6.523   4.181   8.172  0.0903 -0.0482 -0.2905
   95SAPS  H14X 9461   6.617   4.175   8.112 -0.6434 -3.2506 -1.3425
   95SAPS  H14Y 9462   6.497   4.075   8.196 -0.7796 -0.4389 -2.6960
   95SAPS  C315 9463   6.542   4.275   8.300 -0.4229  0.3912  0.1344
   95SAPS  H15X 9464   6.454   4.252   8.364  0.4042  0.9054  1.5084
   95SAPS  H15Y 9465   6.536   4.384   8.282 -0.8134 -0.0314 -2.6795
   95SAPS  C316 9466   6.660   4.235   8.392 -0.4754 -0.2346  0.4252
   95SAPS  H16X 9467   6.753   4.249   8.332 -0.0177 -0.6944  1.0084
   95SAPS  H16Y 9468   6.646   4.126   8.413 -1.0457 -0.3208 -0.3628
   95SAPS  C317 9469   6.680   4.327   8.514  0.0236 -0.7068  0.5682
   95SAPS  H17X 9470   6.583   4.332   8.568  0.3800  1.4084  1.0974
   95SAPS  H17Y 9471   6.692   4.432   8.481 -2.5374 -0.1765  1.0858
   95SAPS  C318 9472   6.806   4.297   8.606  0.0317  0.0440 -0.3716
   95SAPS  H18X 9473   6.774   4.217   8.675  0.8313  0.3704  0.3936
   95SAPS  H18Y 9474   6.840   4.391   8.654  2.5859 -1.1019  0.2380
   95SAPS  H18Z 9475   6.889   4.265   8.539 -0.0100  1.0907 -0.9510
   96SAPS     N 9476   0.636   5.278   6.518  0.3252  0.4290 -0.0945
   96SAPS   HN1 9477   0.611   5.300   6.616 -1.2673 -0.6871 -0.2157
   96SAPS   HN2 9478   0.571   5.340   6.465  0.7300  0.8949 -0.0528
   96SAPS   HN3 9479   0.624   5.176   6.503 -0.6473  0.2955  1.4524
   96SAPS   C12 9480   0.781   5.302   6.470  0.3671  1.0231  1.1568
   96SAPS  H12A 9481   0.777   5.303   6.362 -0.2597  1.1702  1.1737
   96SAPS   C13 9482   0.848   5.428   6.504  0.2421  0.1291  0.0285
   96SAPS  O13A 9483   0.785   5.515   6.573  0.1357 -0.5590 -0.0883
   96SAPS  O13B 9484   0.961   5.447   6.469  0.3712  0.1352  0.0422
   96SAPS   C11 9485   0.873   5.182   6.519  0.7066  0.0805 -0.0230
   96SAPS  H11A 9486   0.870   5.163   6.629 -1.8506  0.9047  0.1199
   96SAPS  H11B 9487   0.979   5.207   6.496  0.4128 -0.4949 -2.1960
   96SAPS     P 9488   0.769   4.932   6.512  0.1770 -0.1260 -0.1018
   96SAPS   O13 9489   0.626   4.970   6.506 -0.4766  0.5833  0.1344
   96SAPS   O14 9490   0.809   4.807   6.443 -0.3429 -0.0917  0.4516
   96SAPS   O12 9491   0.847   5.058   6.451 -0.1443 -0.3687  0.2427
   96SAPS   O11 9492   0.819   4.931   6.664 -0.0854  0.4393  0.6548
   96SAPS    C1 9493   0.962   4.904   6.682  0.4365  0.0818  0.4188
   96SAPS    HA 9494   0.995   4.822   6.615 -0.0983  0.5609 -0.4446
   96SAPS    HB 9495   1.020   4.992   6.648 -1.3050  1.5930  1.1607
   96SAPS    C2 9496   1.001   4.889   6.840  0.4122 -1.1038 -0.1828
   96SAPS    HS 9497   0.982   4.788   6.880 -1.3213 -0.2419  1.3466
   96SAPS   O21 9498   0.936   4.994   6.913  0.1372 -0.1743  0.1837
   96SAPS   C21 9499   0.832   4.957   6.990 -0.3357 -0.0698 -0.6815
   96SAPS   O22 9500   0.802   4.841   7.015 -0.0173  0.0156 -0.2845
   96SAPS   C22 9501   0.759   5.081   7.054  0.6773  0.1505  0.2636
   96SAPS   H2R 9502   0.828   5.168   7.043  1.4732 -0.7287 -2.8976
   96SAPS   H2S 9503   0.668   5.103   6.995 -1.4851 -2.3571  2.4001
   96SAPS    C3 9504   1.151   4.912   6.851  0.0270  0.4453  0.3341
   96SAPS    HX 9505   1.161   5.020   6.832  0.1806  0.5861  1.1479
   96SAPS    HY 9506   1.198   4.842   6.779  0.4774 -0.1986  1.2215
   96SAPS   O31 9507   1.196   4.878   6.985 -0.0046 -0.4881  0.8679
   96SAPS   C31 9508   1.294   4.958   7.026 -0.2758  0.6213 -0.0309
   96SAPS   O32 9509   1.345   5.048   6.963 -0.5593  0.9278 -0.3868
   96SAPS   C32 9510   1.349   4.897   7.159 -0.2689 -0.1928 -0.3041
   96SAPS   H2X 9511   1.455   4.870   7.138  0.1484  2.4781 -2.1746
   96SAPS   H2Y 9512   1.303   4.798   7.181 -0.0632 -0.3033 -0.3630
   96SAPS   C23 9513   0.703   5.061   7.195 -0.1979  0.2205 -0.2073
   96SAPS   H3R 9514   0.613   4.995   7.187 -1.6059  2.1856 -1.8669
   96SAPS   H3S 9515   0.663   5.156   7.237  0.2798 -0.8551  2.9524
   96SAPS   C24 9516   0.808   5.001   7.293 -0.7731 -0.6532  0.6455
   96SAPS   H4R 9517   0.847   4.905   7.255  1.0000 -0.0877  0.9567
   96SAPS   H4S 9518   0.767   4.989   7.395 -2.9842 -1.8425 -0.3114
   96SAPS   C25 9519   0.935   5.092   7.301  0.3718 -0.4665 -0.1023
   96SAPS   H5R 9520   0.967   5.136   7.205 -0.0898  0.1411  0.0124
   96SAPS   C26 9521   0.999   5.135   7.411 -0.3536 -0.3725 -0.0810
   96SAPS   H6R 9522   1.091   5.191   7.387 -1.7685  1.4254 -1.5903
   96SAPS   C27 9523   0.966   5.097   7.555  0.0236 -0.3234  0.1728
   96SAPS   H7R 9524   1.042   5.037   7.610 -0.1086  0.8643  1.7262
   96SAPS   H7S 9525   0.880   5.026   7.554  0.5965 -1.0372 -0.5112
   96SAPS   C28 9526   0.937   5.228   7.628  0.6941 -0.3269  0.3107
   96SAPS   H8R 9527   0.902   5.312   7.567  0.6387 -1.2153 -0.9116
   96SAPS   C29 9528   0.964   5.245   7.759  0.1192 -0.8016 -0.4851
   96SAPS   H9R 9529   0.945   5.343   7.804 -0.9442 -0.8815 -0.7384
   96SAPS  C210 9530   1.021   5.153   7.860 -0.6866 -0.0978  0.0908
   96SAPS  H10R 9531   1.096   5.097   7.800 -1.9541 -1.0372 -0.6682
   96SAPS  H10S 9532   0.936   5.089   7.891  0.1768 -1.0192  0.6040
   96SAPS  C211 9533   1.101   5.204   7.983  0.6741 -0.0314 -0.4745
   96SAPS  H11R 9534   1.210   5.196   7.974  0.5219 -0.8074 -2.2035
   96SAPS  C212 9535   1.048   5.252   8.096 -0.6772 -0.2161 -0.7667
   96SAPS  H12R 9536   1.116   5.293   8.173 -1.4283  0.7205 -0.5763
   96SAPS  C213 9537   0.895   5.273   8.128  0.1689  0.7243 -0.8209
   96SAPS  H13R 9538   0.833   5.243   8.041 -0.5380  0.3352 -0.1946
   96SAPS  H13S 9539   0.871   5.381   8.135 -2.7552  0.0645  0.9200
   96SAPS  C214 9540   0.877   5.194   8.260  0.2102 -0.7081  0.4565
   96SAPS  H14R 9541   0.881   5.085   8.249  2.0140 -0.5462 -0.9141
   96SAPS  C215 9542   0.857   5.250   8.380  0.2058 -0.1356 -0.1102
   96SAPS  H15R 9543   0.841   5.188   8.469  0.8808 -0.9347 -0.5322
   96SAPS  C216 9544   0.845   5.395   8.415 -0.4370 -0.5787  0.3011
   96SAPS  H16R 9545   0.741   5.425   8.389  0.7700  3.3427 -0.6141
   96SAPS  H16S 9546   0.906   5.461   8.350 -0.5905  0.3894  1.1077
   96SAPS  C217 9547   0.873   5.442   8.557 -0.0871  0.0132 -0.6571
   96SAPS  H17R 9548   0.972   5.400   8.585 -1.2628 -1.8372  0.9876
   96SAPS  H17S 9549   0.803   5.384   8.621  0.7558 -1.5278 -1.0707
   96SAPS  C218 9550   0.884   5.595   8.581 -0.0534  0.5457  0.1892
   96SAPS  H18R 9551   0.887   5.615   8.690  0.0186  0.7705  0.1459
   96SAPS  H18S 9552   0.797   5.648   8.537  0.2518 -1.2814 -2.9147
   96SAPS  C219 9553   1.019   5.658   8.520  0.2847  0.4534 -0.0611
   96SAPS  H19R 9554   1.005   5.654   8.410 -0.9340  0.4746  0.0751
   96SAPS  H19S 9555   1.097   5.588   8.556 -1.2498 -0.4930  1.6451
   96SAPS  C220 9556   1.054   5.805   8.560 -0.0247 -0.4743 -0.4254
   96SAPS  H20R 9557   1.163   5.820   8.543  0.3778  1.5162  3.0951
   96SAPS  H20S 9558   1.033   5.836   8.664  0.5522  2.9374 -1.1928
   96SAPS  H20T 9559   1.015   5.880   8.488  2.7818 -0.1300 -1.7253
   96SAPS   C33 9560   1.340   4.987   7.286  0.5479  0.4157 -0.4398
   96SAPS   H3X 9561   1.236   5.025   7.300  0.8776  0.7033  1.5540
   96SAPS   H3Y 9562   1.409   5.072   7.267 -0.5558  0.9544 -2.2590
   96SAPS   C34 9563   1.391   4.914   7.413  0.4961  0.4301  0.4653
   96SAPS   H4X 9564   1.498   4.902   7.386  0.3106  1.2079 -0.7113
   96SAPS   H4Y 9565   1.350   4.812   7.431  2.0303 -0.8143 -2.3157
   96SAPS   C35 9566   1.384   5.005   7.536 -0.0420  0.0137 -0.4354
   96SAPS   H5X 9567   1.281   5.033   7.567  0.6638  2.0415  0.2971
   96SAPS   H5Y 9568   1.415   5.107   7.503 -0.9451 -0.0794 -1.6638
   96SAPS   C36 9569   1.470   4.972   7.660 -0.5723  0.2127 -0.3378
   96SAPS   H6X 9570   1.571   5.016   7.645 -0.5215 -0.4323 -2.2538
   96SAPS   H6Y 9571   1.479   4.861   7.662  0.0082  0.2150 -1.6991
   96SAPS   C37 9572   1.405   5.010   7.793 -0.0691  0.0682  0.1449
   96SAPS   H7X 9573   1.310   4.954   7.782 -0.1585  0.0343  1.0548
   96SAPS   H7Y 9574   1.385   5.119   7.791 -3.1216 -0.4260  0.0282
   96SAPS   C38 9575   1.491   4.969   7.911 -0.2991 -0.5344 -0.2357
   96SAPS   H8X 9576   1.596   5.006   7.918 -0.3938 -0.1049 -1.0048
   96SAPS   H8Y 9577   1.523   4.863   7.902  1.6510  0.1375 -1.8165
   96SAPS   C39 9578   1.429   4.996   8.054 -0.0589  0.0654  0.0942
   96SAPS   H9X 9579   1.328   4.950   8.062 -0.7287  1.1118 -1.8348
   96SAPS   H9Y 9580   1.407   5.103   8.073  1.3598  0.3844  0.0143
   96SAPS  C310 9581   1.520   4.941   8.156 -0.0410 -0.1396  0.0585
   96SAPS  H10X 9582   1.492   4.983   8.255 -1.2238 -2.1201  0.6168
   96SAPS  H10Y 9583   1.621   4.984   8.136 -0.1772 -0.0440 -0.4403
   96SAPS  C311 9584   1.520   4.785   8.180  0.5493 -0.5193 -0.3611
   96SAPS  H11X 9585   1.619   4.753   8.218 -0.6188 -1.2588  2.2581
   96SAPS  H11Y 9586   1.498   4.730   8.085  1.4248 -1.9135  0.2150
   96SAPS  C312 9587   1.413   4.731   8.282  0.0178  0.1102  0.6402
   96SAPS  H12X 9588   1.314   4.741   8.232  0.7224 -1.6227 -1.2210
   96SAPS  H12Y 9589   1.413   4.795   8.372 -0.2294 -0.3457  0.9735
   96SAPS  C313 9590   1.426   4.578   8.307  0.4182  0.5780 -0.0164
   96SAPS  H13X 9591   1.532   4.549   8.321 -0.5230 -1.7514  3.7134
   96SAPS  H13Y 9592   1.387   4.534   8.213 -0.0613  1.9905 -0.5005
   96SAPS  C314 9593   1.345   4.518   8.424  0.1833  0.1110  0.0752
   96SAPS  H14X 9594   1.236   4.534   8.417 -0.2234 -0.7290  2.9094
   96SAPS  H14Y 9595   1.371   4.554   8.526  0.5127 -1.6315  0.6393
   96SAPS  C315 9596   1.363   4.362   8.430 -0.6163  0.1589 -0.1555
   96SAPS  H15X 9597   1.459   4.339   8.481 -0.4638  2.1407  0.5453
   96SAPS  H15Y 9598   1.373   4.317   8.330  0.1169  2.4806 -1.2032
   96SAPS  C316 9599   1.250   4.288   8.496 -0.1001  0.5354  0.9588
   96SAPS  H16X 9600   1.167   4.306   8.424  2.1167  0.6531 -1.7516
   96SAPS  H16Y 9601   1.214   4.317   8.597  1.0720 -0.2213  1.6189
   96SAPS  C317 9602   1.275   4.140   8.495  0.7211  1.0603  0.7022
   96SAPS  H17X 9603   1.385   4.126   8.493  0.3962 -2.0724 -0.2312
   96SAPS  H17Y 9604   1.259   4.094   8.395  0.4362 -1.7950  1.9476
   96SAPS  C318 9605   1.215   4.043   8.604  0.6080  0.7833  0.2964
   96SAPS  H18X 9606   1.246   4.077   8.705  0.4478  0.5452  0.4231
   96SAPS  H18Y 9607   1.246   3.938   8.588  0.5156  0.2997  2.9620
   96SAPS  H18Z 9608   1.105   4.045   8.595  0.6111  1.7951  0.2749
   97SAPS     N 9609   1.430   3.958   6.365  0.5857  0.4168 -0.0293
   97SAPS   HN1 9610   1.377   3.895   6.301  0.7695  0.2188  0.0144
   97SAPS   HN2 9611   1.429   3.922   6.462 -0.4768  0.4758 -0.0065
   97SAPS   HN3 9612   1.371   4.044   6.363 -0.6163 -0.3907 -1.9873
   97SAPS   C12 9613   1.560   3.966   6.294 -0.4683  0.5142 -0.0427
   97SAPS  H12A 9614   1.581   3.868   6.255  1.0341  1.1483 -0.8861
   97SAPS   C13 9615   1.559   4.083   6.181 -0.0627  0.4410 -0.9020
   97SAPS  O13A 9616   1.443   4.125   6.143 -0.0820 -0.0705 -0.7642
   97SAPS  O13B 9617   1.649   4.086   6.104  0.5832  0.0714 -0.5764
   97SAPS   C11 9618   1.689   3.991   6.383  0.4045  0.1734 -0.2120
   97SAPS  H11A 9619   1.766   3.988   6.303 -0.7076  1.3458 -1.3813
   97SAPS  H11B 9620   1.696   3.922   6.470 -4.0460 -0.0324  0.2243
   97SAPS     P 9621   1.804   4.212   6.468 -0.0677 -0.0402  0.3047
   97SAPS   O13 9622   1.917   4.173   6.383 -0.0772 -0.2176 -0.9709
   97SAPS   O14 9623   1.768   4.354   6.456 -0.0533  0.0617 -0.9303
   97SAPS   O12 9624   1.671   4.119   6.442 -0.3138  0.0601 -0.5882
   97SAPS   O11 9625   1.846   4.182   6.615 -0.2239  0.2007  0.2007
   97SAPS    C1 9626   1.752   4.122   6.706 -0.1331 -0.0284 -0.2737
   97SAPS    HA 9627   1.689   4.047   6.653  3.0926 -0.9656 -3.0684
   97SAPS    HB 9628   1.805   4.068   6.787  0.8968  1.8957  0.3929
   97SAPS    C2 9629   1.660   4.212   6.792 -0.3337  0.0695  0.3966
   97SAPS    HS 9630   1.591   4.263   6.721  0.0308  0.2586  0.1764
   97SAPS   O21 9631   1.739   4.310   6.860  0.2906  0.2220 -0.1172
   97SAPS   C21 9632   1.680   4.419   6.905  0.8094 -0.3203  0.2329
   97SAPS   O22 9633   1.561   4.440   6.893 -0.6181 -0.3157  0.8297
   97SAPS   C22 9634   1.770   4.528   6.950 -0.2533  0.1695  0.0607
   97SAPS   H2R 9635   1.862   4.485   6.997  0.8684  2.3252 -0.0494
   97SAPS   H2S 9636   1.802   4.578   6.856  0.0792  0.2513  0.2137
   97SAPS    C3 9637   1.583   4.122   6.894  0.6005 -0.0100 -0.2465
   97SAPS    HX 9638   1.543   4.030   6.848 -0.2669  1.5930 -2.9484
   97SAPS    HY 9639   1.498   4.185   6.930  1.7483  1.6321 -0.2939
   97SAPS   O31 9640   1.671   4.083   7.003 -0.0139 -0.7470 -0.8647
   97SAPS   C31 9641   1.603   4.053   7.105  0.8420 -0.3717 -0.2055
   97SAPS   O32 9642   1.482   4.067   7.114  0.6720 -0.2617  0.4736
   97SAPS   C32 9643   1.682   3.956   7.193 -0.3925  0.6853 -0.0326
   97SAPS   H2X 9644   1.786   3.991   7.181 -0.7837  1.5647 -1.0306
   97SAPS   H2Y 9645   1.657   3.856   7.150 -0.8296  0.5348  0.5509
   97SAPS   C23 9646   1.700   4.631   7.045 -0.4694 -0.1208 -0.0376
   97SAPS   H3R 9647   1.661   4.569   7.128  1.0671 -1.7655 -0.4731
   97SAPS   H3S 9648   1.602   4.670   7.010 -0.1275  2.2566  1.4434
   97SAPS   C24 9649   1.794   4.751   7.078 -0.2445  0.0775 -0.2256
   97SAPS   H4R 9650   1.742   4.835   7.129  1.0939  2.5455 -2.7056
   97SAPS   H4S 9651   1.829   4.792   6.981 -1.3886  0.7840 -0.3661
   97SAPS   C25 9652   1.914   4.710   7.157  0.6150 -1.3359 -0.2035
   97SAPS   H5R 9653   2.006   4.726   7.100  0.3595  1.8798  0.1492
   97SAPS   C26 9654   1.919   4.680   7.291 -0.3908  0.9656 -0.0936
   97SAPS   H6R 9655   2.017   4.654   7.334 -0.9942 -2.6869 -0.6422
   97SAPS   C27 9656   1.796   4.676   7.381  0.0761 -0.3567 -0.2522
   97SAPS   H7R 9657   1.701   4.687   7.324  0.2212 -1.7158 -0.7937
   97SAPS   H7S 9658   1.797   4.759   7.456 -2.1943 -0.7415  0.2949
   97SAPS   C28 9659   1.784   4.539   7.458  0.2923 -0.0895  0.4641
   97SAPS   H8R 9660   1.829   4.460   7.395 -1.4873 -0.7165 -0.1045
   97SAPS   C29 9661   1.722   4.507   7.567  0.9894  0.2786  0.4111
   97SAPS   H9R 9662   1.724   4.403   7.602 -1.4627 -0.1807 -0.6225
   97SAPS  C210 9663   1.644   4.604   7.654  0.0382 -0.2401  0.7038
   97SAPS  H10R 9664   1.544   4.560   7.675  0.4653  0.2001  4.3948
   97SAPS  H10S 9665   1.624   4.691   7.587 -1.1188 -0.1147  1.1805
   97SAPS  C211 9666   1.727   4.655   7.770  0.6395 -0.0223  0.2645
   97SAPS  H11R 9667   1.775   4.752   7.755 -0.2519  0.0150 -3.1601
   97SAPS  C212 9668   1.733   4.593   7.886  0.4407  0.6233 -0.6611
   97SAPS  H12R 9669   1.789   4.645   7.966 -1.1447  0.4311  0.6371
   97SAPS  C213 9670   1.658   4.471   7.927  0.4982  0.1498  0.5093
   97SAPS  H13R 9671   1.594   4.435   7.843  2.9129 -0.6795 -1.0856
   97SAPS  H13S 9672   1.588   4.494   8.011 -2.9841  1.4585 -2.4502
   97SAPS  C214 9673   1.760   4.359   7.952  0.3320 -0.2174  0.2756
   97SAPS  H14R 9674   1.846   4.354   7.884  0.8468 -1.7833  1.0085
   97SAPS  C215 9675   1.753   4.262   8.049 -0.4811  0.1005 -0.0453
   97SAPS  H15R 9676   1.822   4.177   8.044  1.7113  1.7933  0.0825
   97SAPS  C216 9677   1.643   4.240   8.146 -0.3385 -1.0109 -0.3942
   97SAPS  H16R 9678   1.566   4.178   8.095 -3.1971  0.7132  1.4886
   97SAPS  H16S 9679   1.586   4.332   8.174  0.6824 -1.3559  3.4041
   97SAPS  C217 9680   1.687   4.165   8.278 -0.6155 -0.6921 -0.4602
   97SAPS  H17R 9681   1.717   4.060   8.259 -1.5318 -1.2803  1.1825
   97SAPS  H17S 9682   1.596   4.152   8.340 -0.1453  1.4767  0.7826
   97SAPS  C218 9683   1.791   4.235   8.369 -0.7335  0.4602 -0.0278
   97SAPS  H18R 9684   1.744   4.317   8.426 -1.3613  1.3756 -1.7878
   97SAPS  H18S 9685   1.871   4.292   8.318  0.1208 -1.3858 -0.8420
   97SAPS  C219 9686   1.843   4.124   8.468 -0.2591  0.2469  0.5871
   97SAPS  H19R 9687   1.900   4.058   8.400 -1.3437 -1.1497  0.9956
   97SAPS  H19S 9688   1.757   4.066   8.509  0.5224 -1.1019  0.3640
   97SAPS  C220 9689   1.924   4.169   8.583 -0.2079 -0.1147 -0.2965
   97SAPS  H20R 9690   1.998   4.247   8.555  0.0381  0.5033  1.8659
   97SAPS  H20S 9691   1.973   4.078   8.625 -0.8463  0.8408  2.8002
   97SAPS  H20T 9692   1.854   4.201   8.663  0.8846 -1.6076  1.3295
   97SAPS   C33 9693   1.635   3.953   7.339 -0.6570 -0.0955  0.6379
   97SAPS   H3X 9694   1.655   3.853   7.383  0.2419 -0.4071 -0.4460
   97SAPS   H3Y 9695   1.525   3.967   7.333 -0.8816 -1.3296  1.4766
   97SAPS   C34 9696   1.692   4.059   7.433  0.2946  0.5877 -0.3650
   97SAPS   H4X 9697   1.682   4.160   7.390 -0.0583  0.1888 -1.2358
   97SAPS   H4Y 9698   1.800   4.033   7.433  0.1132 -0.2750 -1.6936
   97SAPS   C35 9699   1.624   4.063   7.570 -0.0094 -0.6529 -0.5712
   97SAPS   H5X 9700   1.515   4.085   7.568 -0.2225 -1.6818 -1.1126
   97SAPS   H5Y 9701   1.672   4.139   7.636 -0.5546  0.6192 -1.6072
   97SAPS   C36 9702   1.634   3.926   7.643  0.8687  0.2045  0.9032
   97SAPS   H6X 9703   1.741   3.897   7.648  0.5353 -1.5179 -0.9309
   97SAPS   H6Y 9704   1.576   3.850   7.586 -0.1319  1.6041 -0.0096
   97SAPS   C37 9705   1.581   3.929   7.784  0.7534 -0.3848  0.1267
   97SAPS   H7X 9706   1.481   3.978   7.791  0.7072 -0.3337 -0.7926
   97SAPS   H7Y 9707   1.651   3.991   7.844  0.0828  0.8478 -0.3352
   97SAPS   C38 9708   1.573   3.790   7.863 -0.1040  1.0135 -0.1882
   97SAPS   H8X 9709   1.643   3.725   7.805  0.1604  0.7158  0.4574
   97SAPS   H8Y 9710   1.471   3.748   7.862  0.0059  0.7460 -0.4355
   97SAPS   C39 9711   1.622   3.794   8.009  0.5967 -0.6845  0.0452
   97SAPS   H9X 9712   1.716   3.852   8.000  0.6202 -0.2021  2.7172
   97SAPS   H9Y 9713   1.633   3.692   8.051 -0.9291 -0.7800  0.2676
   97SAPS  C310 9714   1.518   3.868   8.096 -0.0631  0.0463 -0.3652
   97SAPS  H10X 9715   1.483   3.970   8.069 -1.7754 -0.8761 -1.9166
   97SAPS  H10Y 9716   1.566   3.871   8.196 -2.7872  2.3713  1.0247
   97SAPS  C311 9717   1.390   3.779   8.119 -0.4539  0.1963  0.5385
   97SAPS  H11X 9718   1.412   3.671   8.107  2.3126  0.4471  2.3043
   97SAPS  H11Y 9719   1.323   3.819   8.040  1.2499  0.7346 -0.6971
   97SAPS  C312 9720   1.331   3.799   8.249 -0.1801  0.1772 -0.1341
   97SAPS  H12X 9721   1.310   3.908   8.258  1.2488  0.6022 -1.4531
   97SAPS  H12Y 9722   1.411   3.776   8.323  1.7523  0.4553 -2.0405
   97SAPS  C313 9723   1.213   3.699   8.272 -0.2087 -0.3777 -0.1662
   97SAPS  H13X 9724   1.178   3.707   8.377  0.1549 -0.9971  0.0077
   97SAPS  H13Y 9725   1.249   3.598   8.247  1.8843  0.4625 -0.7592
   97SAPS  C314 9726   1.089   3.740   8.195 -0.3382  0.6391  0.1891
   97SAPS  H14X 9727   1.125   3.724   8.091  0.9694 -0.8624  0.8319
   97SAPS  H14Y 9728   1.065   3.848   8.204  1.5087  1.0509  0.6156
   97SAPS  C315 9729   0.961   3.667   8.220  0.6588  0.0495 -0.4172
   97SAPS  H15X 9730   0.942   3.685   8.328 -1.8327  0.9818 -0.9427
   97SAPS  H15Y 9731   0.969   3.557   8.202 -0.3179  0.2531 -2.2985
   97SAPS  C316 9732   0.836   3.710   8.137  0.1148  0.1614  0.4336
   97SAPS  H16X 9733   0.848   3.667   8.035 -2.2812 -1.8961  0.9116
   97SAPS  H16Y 9734   0.818   3.819   8.126 -2.2456 -0.2129 -0.0144
   97SAPS  C317 9735   0.701   3.648   8.185  1.0770  0.1436  0.3812
   97SAPS  H17X 9736   0.696   3.676   8.293 -0.2440  1.8842 -0.0799
   97SAPS  H17Y 9737   0.711   3.538   8.180 -0.7162  0.0071 -2.6052
   97SAPS  C318 9738   0.566   3.678   8.113 -0.0308 -0.3773 -0.0835
   97SAPS  H18X 9739   0.570   3.634   8.011 -1.4208  1.1203 -0.8392
   97SAPS  H18Y 9740   0.563   3.787   8.088 -3.4685 -0.2363  0.5123
   97SAPS  H18Z 9741   0.473   3.653   8.168  0.3469  0.1201  0.8065
   98SAPS     N 9742   5.483   4.991   6.246  0.3281 -0.1293  0.4089
   98SAPS   HN1 9743   5.413   5.023   6.177  0.7230 -0.0835  0.0229
   98SAPS   HN2 9744   5.570   4.997   6.189 -0.8455 -1.2081 -1.6063
   98SAPS   HN3 9745   5.450   4.897   6.277 -2.0171 -0.0145 -1.4899
   98SAPS   C12 9746   5.476   5.088   6.363 -0.2090  0.0143  0.1189
   98SAPS  H12A 9747   5.548   5.046   6.431  0.3795 -1.2285 -1.2037
   98SAPS   C13 9748   5.520   5.230   6.325 -0.1983 -0.8224  0.2176
   98SAPS  O13A 9749   5.551   5.262   6.200 -0.0509  0.2754  0.6557
   98SAPS  O13B 9750   5.551   5.309   6.417  0.0961 -0.0416  0.8819
   98SAPS   C11 9751   5.337   5.087   6.431  1.0209  0.2245 -0.0274
   98SAPS  H11A 9752   5.334   5.170   6.504  0.9258  1.9896 -1.9364
   98SAPS  H11B 9753   5.330   4.987   6.478  1.2168 -0.3548 -1.1884
   98SAPS     P 9754   5.092   5.029   6.352  0.2879  0.0208 -0.1801
   98SAPS   O13 9755   5.004   5.085   6.247 -0.2475  0.2698 -0.6429
   98SAPS   O14 9756   5.120   4.882   6.347 -0.2858 -0.6385 -0.2806
   98SAPS   O12 9757   5.231   5.107   6.332 -0.4669 -0.0616 -0.0076
   98SAPS   O11 9758   5.044   5.077   6.489 -0.1488  0.0510 -0.3765
   98SAPS    C1 9759   5.039   5.210   6.534  0.1149  0.1321 -0.4647
   98SAPS    HA 9760   5.139   5.260   6.541 -0.1340  0.4204  1.9981
   98SAPS    HB 9761   4.986   5.280   6.466 -0.1419 -0.1094 -0.5123
   98SAPS    C2 9762   4.996   5.216   6.682 -0.4884 -0.0157 -0.3941
   98SAPS    HS 9763   4.992   5.322   6.714  2.4017 -0.4612  1.9115
   98SAPS   O21 9764   5.091   5.138   6.763  0.7605  0.0120  1.4119
   98SAPS   C21 9765   5.210   5.184   6.775  0.2784  0.1782 -0.3033
   98SAPS   O22 9766   5.253   5.293   6.731 -0.4136 -0.1258 -0.0840
   98SAPS   C22 9767   5.277   5.089   6.875  0.2076 -0.0091 -0.3931
   98SAPS   H2R 9768   5.340   5.157   6.935  0.3851 -2.4067  2.3697
   98SAPS   H2S 9769   5.195   5.048   6.938  0.8390  0.5131  0.8045
   98SAPS    C3 9770   4.849   5.163   6.701  0.1567 -0.8999  0.0088
   98SAPS    HX 9771   4.823   5.061   6.665  0.1822 -0.4645 -1.2967
   98SAPS    HY 9772   4.779   5.229   6.646  1.7172  2.5271  1.8198
   98SAPS   O31 9773   4.813   5.177   6.839 -0.4565 -0.1502 -0.2450
   98SAPS   C31 9774   4.846   5.078   6.920 -0.3675 -0.6749 -0.1971
   98SAPS   O32 9775   4.874   4.959   6.894  0.2249  0.2235  1.0323
   98SAPS   C32 9776   4.844   5.134   7.064 -0.2819  0.4387  0.8688
   98SAPS   H2X 9777   4.869   5.242   7.072 -3.5286  1.2443  2.0784
   98SAPS   H2Y 9778   4.907   5.069   7.128 -0.2452 -0.9634 -0.5282
   98SAPS   C23 9779   5.361   4.984   6.809  0.4242  0.8598  0.2832
   98SAPS   H3R 9780   5.424   5.035   6.733  2.9729  0.7019  2.1449
   98SAPS   H3S 9781   5.297   4.909   6.758 -0.4758 -0.0284  2.5870
   98SAPS   C24 9782   5.448   4.921   6.920 -0.3665  0.6164 -0.0760
   98SAPS   H4R 9783   5.378   4.868   6.988 -1.1898 -0.7680 -1.9079
   98SAPS   H4S 9784   5.490   4.995   6.992  1.8169 -1.1793  0.6145
   98SAPS   C25 9785   5.552   4.826   6.876  0.0488  0.1306 -0.1778
   98SAPS   H5R 9786   5.611   4.861   6.790  0.7265 -1.6686 -0.5057
   98SAPS   C26 9787   5.559   4.696   6.914  0.0191 -0.5840 -0.1698
   98SAPS   H6R 9788   5.641   4.631   6.879  0.5674  0.3068 -0.5828
   98SAPS   C27 9789   5.476   4.625   7.014 -0.5811  0.6739 -0.5215
   98SAPS   H7R 9790   5.369   4.638   6.986 -1.4277 -1.2323  1.4685
   98SAPS   H7S 9791   5.498   4.669   7.114 -0.5203 -1.5322  0.5004
   98SAPS   C28 9792   5.497   4.477   7.029 -0.6455 -0.2789 -0.3528
   98SAPS   H8R 9793   5.576   4.448   6.957 -0.5310 -0.6537 -0.0799
   98SAPS   C29 9794   5.422   4.394   7.099 -0.2133  0.1996  0.4222
   98SAPS   H9R 9795   5.452   4.288   7.100  0.9526  0.4578 -1.6021
   98SAPS  C210 9796   5.310   4.439   7.185 -1.2737  0.3076  0.9846
   98SAPS  H10R 9797   5.211   4.411   7.142 -0.6701  2.3170 -2.0384
   98SAPS  H10S 9798   5.306   4.549   7.200 -0.2017  0.6347 -0.8136
   98SAPS  C211 9799   5.301   4.372   7.320 -0.2376 -0.2059  0.5443
   98SAPS  H11R 9800   5.274   4.266   7.310 -0.7435 -0.0380  0.0816
   98SAPS  C212 9801   5.331   4.424   7.440 -0.6805  0.7525  0.1545
   98SAPS  H12R 9802   5.334   4.354   7.526  0.3777  0.5370 -0.0350
   98SAPS  C213 9803   5.388   4.555   7.477 -0.0289  0.8823 -0.3372
   98SAPS  H13R 9804   5.305   4.629   7.482 -0.0865  0.9259 -1.5570
   98SAPS  H13S 9805   5.457   4.593   7.398  1.1891 -0.0001  0.2668
   98SAPS  C214 9806   5.436   4.555   7.620 -0.7035  0.0489 -0.0570
   98SAPS  H14R 9807   5.535   4.507   7.630 -1.5720 -1.9395 -0.5837
   98SAPS  C215 9808   5.367   4.609   7.722  0.0025  0.4870  0.1224
   98SAPS  H15R 9809   5.406   4.601   7.825  1.9164 -2.2617 -0.6995
   98SAPS  C216 9810   5.231   4.670   7.717  0.2636 -0.7676 -0.3569
   98SAPS  H16R 9811   5.183   4.649   7.815  0.9068  1.4788  0.5065
   98SAPS  H16S 9812   5.173   4.620   7.636  1.4115 -1.9430 -0.4862
   98SAPS  C217 9813   5.227   4.824   7.706 -0.1706  0.3592  0.8874
   98SAPS  H17R 9814   5.124   4.863   7.691  0.2879  0.9837 -1.0007
   98SAPS  H17S 9815   5.272   4.852   7.608 -2.3859  0.4455 -0.1604
   98SAPS  C218 9816   5.293   4.893   7.832  0.0221  0.2037  0.4669
   98SAPS  H18R 9817   5.393   4.859   7.868 -0.5702 -0.9452  1.0928
   98SAPS  H18S 9818   5.225   4.875   7.918  3.1955  0.9255  3.3463
   98SAPS  C219 9819   5.296   5.044   7.834  0.1604 -0.0420  0.4245
   98SAPS  H19R 9820   5.191   5.082   7.841 -0.2259 -1.1337  0.7295
   98SAPS  H19S 9821   5.358   5.083   7.751  1.1205 -1.9745  0.1879
   98SAPS  C220 9822   5.364   5.106   7.960 -0.3292 -0.1509  0.0873
   98SAPS  H20R 9823   5.473   5.108   7.943 -0.5220  2.1847 -1.2588
   98SAPS  H20S 9824   5.353   5.060   8.061  3.9960  0.3857  0.9855
   98SAPS  H20T 9825   5.343   5.215   7.966  1.5865  0.2010  1.4346
   98SAPS   C33 9826   4.700   5.124   7.110  0.2513 -0.6331 -0.6391
   98SAPS   H3X 9827   4.670   5.019   7.128 -0.8089  0.1070  2.5234
   98SAPS   H3Y 9828   4.623   5.163   7.041  0.1536  0.6616  0.1734
   98SAPS   C34 9829   4.676   5.195   7.246  0.3943 -0.0041 -0.3118
   98SAPS   H4X 9830   4.569   5.226   7.242  0.6361  0.9076 -0.1505
   98SAPS   H4Y 9831   4.737   5.288   7.247  2.7821 -1.4375  2.4616
   98SAPS   C35 9832   4.706   5.113   7.373  0.0686 -0.1879  0.5100
   98SAPS   H5X 9833   4.815   5.094   7.376  0.1677  0.4195  0.9295
   98SAPS   H5Y 9834   4.663   5.012   7.356  0.2693 -0.1725 -0.0980
   98SAPS   C36 9835   4.652   5.186   7.491  0.0225 -0.4803  0.0920
   98SAPS   H6X 9836   4.544   5.197   7.469 -0.2706  1.6227  2.2464
   98SAPS   H6Y 9837   4.683   5.291   7.509  1.4472 -0.5826 -1.5474
   98SAPS   C37 9838   4.682   5.116   7.624  0.0848 -0.4806 -0.6694
   98SAPS   H7X 9839   4.644   5.013   7.609 -0.0616 -0.2590 -1.9810
   98SAPS   H7Y 9840   4.620   5.161   7.704  1.6305 -1.0269  0.8939
   98SAPS   C38 9841   4.833   5.106   7.662  0.0331  0.3885  0.4260
   98SAPS   H8X 9842   4.886   5.203   7.654  1.6855 -0.5692 -0.8835
   98SAPS   H8Y 9843   4.883   5.044   7.584 -1.6474 -1.4477  0.7340
   98SAPS   C39 9844   4.867   5.059   7.803  0.1834  0.1973  0.0191
   98SAPS   H9X 9845   4.813   5.115   7.881  0.2784 -0.4533  0.5635
   98SAPS   H9Y 9846   4.977   5.065   7.819  0.5132 -1.5645 -1.2589
   98SAPS  C310 9847   4.828   4.909   7.810  0.6432 -0.0070  0.2444
   98SAPS  H10X 9848   4.874   4.858   7.722  1.3910  1.2906 -0.1527
   98SAPS  H10Y 9849   4.720   4.884   7.815  0.8275 -0.6587  1.2454
   98SAPS  C311 9850   4.895   4.848   7.933 -1.0078  0.0025  0.0215
   98SAPS  H11X 9851   5.002   4.880   7.924  0.1581 -3.1191  1.3903
   98SAPS  H11Y 9852   4.893   4.738   7.920 -0.0743  0.2208 -2.6567
   98SAPS  C312 9853   4.836   4.874   8.073  0.0513 -0.1404  0.5596
   98SAPS  H12X 9854   4.729   4.844   8.065  0.1712 -0.2093 -1.2453
   98SAPS  H12Y 9855   4.848   4.980   8.105  0.8874 -0.7782  2.5298
   98SAPS  C313 9856   4.903   4.794   8.186  0.0869 -0.0358 -0.7760
   98SAPS  H13X 9857   4.888   4.686   8.162  0.5441 -0.4450  0.6638
   98SAPS  H13Y 9858   4.849   4.817   8.280  0.1903  0.2507 -0.7870
   98SAPS  C314 9859   5.058   4.825   8.195 -1.5571 -0.3925  0.1092
   98SAPS  H14X 9860   5.074   4.920   8.250  1.6235 -1.2256  0.8789
   98SAPS  H14Y 9861   5.108   4.838   8.097 -0.3836 -1.7131  0.4872
   98SAPS  C315 9862   5.146   4.727   8.269 -0.2105  0.4066 -0.1903
   98SAPS  H15X 9863   5.146   4.629   8.218 -0.1467  0.6825 -0.7190
   98SAPS  H15Y 9864   5.108   4.718   8.374  1.2503 -0.7354  0.2635
   98SAPS  C316 9865   5.284   4.790   8.279 -0.6262 -0.6096  0.5519
   98SAPS  H16X 9866   5.282   4.889   8.329  1.4465 -0.1111 -0.2388
   98SAPS  H16Y 9867   5.321   4.803   8.175 -0.5172  0.2104  0.6887
   98SAPS  C317 9868   5.377   4.702   8.354  0.3339  0.3371 -0.6075
   98SAPS  H17X 9869   5.384   4.609   8.293 -0.8756  0.0012 -0.2614
   98SAPS  H17Y 9870   5.331   4.691   8.454 -0.9612 -1.3613 -1.3239
   98SAPS  C318 9871   5.523   4.752   8.383 -0.0211 -0.1129  0.7526
   98SAPS  H18X 9872   5.516   4.852   8.430 -0.3495  0.3094 -0.1851
   98SAPS  H18Y 9873   5.578   4.752   8.287  0.8432 -1.0726  1.2231
   98SAPS  H18Z 9874   5.582   4.686   8.451  0.8349 -1.0947 -0.8884
   99SAPS     N 9875   0.049   2.513   6.342 -0.3293 -0.0584 -0.5877
   99SAPS   HN1 9876   0.056   2.428   6.400 -1.0324  1.2687  1.5864
   99SAPS   HN2 9877   0.132   2.521   6.281  1.2401  0.1550  1.4713
   99SAPS   HN3 9878   0.038   2.603   6.393 -1.8819 -0.3021 -0.4267
   99SAPS   C12 9879  -0.073   2.502   6.253  0.2452 -0.1852  0.0438
   99SAPS  H12A 9880  -0.159   2.503   6.318  0.2961 -0.9874  0.1336
   99SAPS   C13 9881  -0.097   2.609   6.137 -0.4567  0.2605 -0.1408
   99SAPS  O13A 9882  -0.011   2.700   6.117  0.2900  0.0071 -0.0486
   99SAPS  O13B 9883  -0.182   2.578   6.053 -0.1735  0.2974  0.5987
   99SAPS   C11 9884  -0.073   2.355   6.197 -0.0187 -0.4883  0.8649
   99SAPS  H11A 9885   0.008   2.340   6.122 -0.5263  0.6793  0.0628
   99SAPS  H11B 9886  -0.171   2.341   6.148  0.2505 -2.5362  0.8125
   99SAPS     P 9887  -0.075   2.107   6.254 -0.1444  0.3355  0.0662
   99SAPS   O13 9888  -0.083   2.102   6.109 -0.1267 -0.0257 -0.0893
   99SAPS   O14 9889   0.029   2.026   6.327  0.3681 -0.4707  0.0135
   99SAPS   O12 9890  -0.059   2.257   6.300 -0.1946 -0.0577  0.7389
   99SAPS   O11 9891  -0.221   2.061   6.310 -0.0778  0.8058  0.5069
   99SAPS    C1 9892  -0.335   2.148   6.310 -0.5710  0.1885  0.3539
   99SAPS    HA 9893  -0.336   2.213   6.220  3.0617 -0.2741 -0.1497
   99SAPS    HB 9894  -0.424   2.082   6.301  0.9933 -1.9944 -0.1527
   99SAPS    C2 9895  -0.335   2.234   6.437 -0.0331 -0.4973 -0.1156
   99SAPS    HS 9896  -0.250   2.303   6.451 -1.1219  0.4278  2.6374
   99SAPS   O21 9897  -0.342   2.146   6.554  0.0939 -0.0898  0.3033
   99SAPS   C21 9898  -0.248   2.152   6.640 -0.7579  0.0010 -0.9459
   99SAPS   O22 9899  -0.158   2.240   6.649  0.6383  0.3336  0.0969
   99SAPS   C22 9900  -0.263   2.051   6.755 -0.1141  0.1852  0.3689
   99SAPS   H2R 9901  -0.372   2.049   6.777  0.3074  0.7176  2.7906
   99SAPS   H2S 9902  -0.240   1.950   6.715  1.5121  0.2295  1.1127
   99SAPS    C3 9903  -0.460   2.330   6.438 -0.2909  0.1876 -0.1993
   99SAPS    HX 9904  -0.550   2.265   6.434 -0.9893  1.0752  0.8718
   99SAPS    HY 9905  -0.459   2.388   6.343  4.7322  1.2430  0.2372
   99SAPS   O31 9906  -0.456   2.429   6.546  0.2414  0.3440 -0.2519
   99SAPS   C31 9907  -0.544   2.415   6.645  0.2061 -0.5652 -0.2035
   99SAPS   O32 9908  -0.627   2.325   6.655  0.0244 -0.1710  0.5484
   99SAPS   C32 9909  -0.525   2.534   6.735 -0.2992  0.7922  0.2806
   99SAPS   H2X 9910  -0.567   2.625   6.687 -0.5489  0.7133  0.3479
   99SAPS   H2Y 9911  -0.418   2.562   6.746 -0.3597  0.9389  0.5096
   99SAPS   C23 9912  -0.180   2.077   6.883  0.3925  0.9110  0.0754
   99SAPS   H3R 9913  -0.226   2.172   6.918 -0.6488  0.5507 -0.2704
   99SAPS   H3S 9914  -0.077   2.089   6.846 -0.1048  2.1090 -0.9955
   99SAPS   C24 9915  -0.204   1.957   6.980  0.3186  0.1718 -0.0036
   99SAPS   H4R 9916  -0.177   1.857   6.941  1.3167 -0.2094  1.5813
   99SAPS   H4S 9917  -0.314   1.949   6.991  0.3501 -1.0680 -0.3836
   99SAPS   C25 9918  -0.124   1.966   7.107 -0.6833 -0.4324 -0.2095
   99SAPS   H5R 9919  -0.031   2.025   7.094  0.7468 -2.4450  0.4253
   99SAPS   C26 9920  -0.153   1.916   7.223 -0.5825 -0.0602 -0.0866
   99SAPS   H6R 9921  -0.091   1.930   7.313 -0.0583 -2.1114 -0.0723
   99SAPS   C27 9922  -0.281   1.831   7.232 -0.7231 -0.4003  0.3032
   99SAPS   H7R 9923  -0.312   1.778   7.140  0.7524 -1.0568  0.1547
   99SAPS   H7S 9924  -0.365   1.900   7.255 -0.5668 -0.6722  1.8103
   99SAPS   C28 9925  -0.263   1.710   7.323  0.0708 -0.3868 -0.9469
   99SAPS   H8R 9926  -0.234   1.615   7.276  1.5299 -1.1851  1.3594
   99SAPS   C29 9927  -0.273   1.710   7.458 -0.5656  0.3919  0.5178
   99SAPS   H9R 9928  -0.259   1.623   7.523 -1.0561 -0.4528 -0.4802
   99SAPS  C210 9929  -0.298   1.837   7.533 -0.0452  0.0679 -0.4585
   99SAPS  H10R 9930  -0.401   1.842   7.574 -1.0980  1.8394 -3.0739
   99SAPS  H10S 9931  -0.283   1.931   7.476 -0.0707  1.8358  2.2811
   99SAPS  C211 9932  -0.203   1.850   7.650 -0.0995  0.2592  0.3231
   99SAPS  H11R 9933  -0.099   1.874   7.622 -0.6310  1.9766 -0.2854
   99SAPS  C212 9934  -0.227   1.827   7.784 -0.0925  0.6303  0.4267
   99SAPS  H12R 9935  -0.137   1.826   7.847  0.0640  0.8582  0.2106
   99SAPS  C213 9936  -0.363   1.775   7.836 -0.5428 -0.0941 -0.7371
   99SAPS  H13R 9937  -0.376   1.688   7.768 -1.1712  0.9544 -2.0118
   99SAPS  H13S 9938  -0.440   1.851   7.812 -0.0279  0.2252 -1.4030
   99SAPS  C214 9939  -0.370   1.735   7.981  0.2266 -0.0080  0.5551
   99SAPS  H14R 9940  -0.358   1.627   7.994  0.2130  0.0468  1.0219
   99SAPS  C215 9941  -0.360   1.802   8.098  0.7089  0.0083 -0.1107
   99SAPS  H15R 9942  -0.388   1.744   8.187  2.3438  0.2282  0.5708
   99SAPS  C216 9943  -0.353   1.949   8.107 -0.3022  0.2160 -0.2423
   99SAPS  H16R 9944  -0.458   1.978   8.132  0.0188 -0.8566  2.7680
   99SAPS  H16S 9945  -0.325   2.000   8.012  0.0403  3.0868  1.2854
   99SAPS  C217 9946  -0.269   2.003   8.216 -0.4219 -0.7279 -1.4476
   99SAPS  H17R 9947  -0.288   2.112   8.223  2.9211 -0.1405  1.0862
   99SAPS  H17S 9948  -0.162   1.992   8.187 -0.0061 -1.4393  0.2004
   99SAPS  C218 9949  -0.282   1.942   8.352 -0.3572  0.3743 -0.2287
   99SAPS  H18R 9950  -0.239   1.840   8.350  2.1566  1.3477 -0.8353
   99SAPS  H18S 9951  -0.386   1.941   8.390 -0.4922 -0.1476 -0.5973
   99SAPS  C219 9952  -0.222   2.040   8.448 -0.3427 -0.4727  0.3585
   99SAPS  H19R 9953  -0.298   2.121   8.446  0.9774  0.8154 -2.3135
   99SAPS  H19S 9954  -0.124   2.085   8.422 -0.6879  0.3623  0.4661
   99SAPS  C220 9955  -0.221   1.985   8.594  0.2788  0.0209  0.1184
   99SAPS  H20R 9956  -0.188   2.061   8.668 -0.5215  1.7351 -1.2269
   99SAPS  H20S 9957  -0.157   1.894   8.601  1.6773  1.0098  0.6461
   99SAPS  H20T 9958  -0.323   1.953   8.625  0.5162  0.3143  1.2511
   99SAPS   C33 9959  -0.597   2.532   6.867  0.1323 -0.1862 -0.8076
   99SAPS   H3X 9960  -0.701   2.496   6.849 -0.1766  1.4719 -2.8470
   99SAPS   H3Y 9961  -0.602   2.635   6.910 -2.8083  0.3722 -2.1984
   99SAPS   C34 9962  -0.521   2.449   6.967 -0.5992  0.7750 -0.5197
   99SAPS   H4X 9963  -0.415   2.477   6.953 -0.6553  1.5966  0.6108
   99SAPS   H4Y 9964  -0.543   2.340   6.957 -3.5990  0.7354  3.8997
   99SAPS   C35 9965  -0.548   2.470   7.114  0.0009 -1.1826  0.9469
   99SAPS   H5X 9966  -0.650   2.429   7.132  0.0955 -2.0031 -0.2940
   99SAPS   H5Y 9967  -0.546   2.579   7.137  0.5225 -1.2890  1.4149
   99SAPS   C36 9968  -0.454   2.396   7.203 -0.4749  0.2881  0.2386
   99SAPS   H6X 9969  -0.349   2.429   7.189 -0.4889  0.0422 -0.4912
   99SAPS   H6Y 9970  -0.469   2.291   7.170 -0.9831  0.2684  0.5217
   99SAPS   C37 9971  -0.496   2.412   7.345  0.8605  0.0034 -0.2740
   99SAPS   H7X 9972  -0.595   2.361   7.343  2.0750 -2.6597  1.4472
   99SAPS   H7Y 9973  -0.523   2.515   7.378 -0.4114 -0.0255 -1.1517
   99SAPS   C38 9974  -0.418   2.331   7.455  0.4974  0.1814 -0.1338
   99SAPS   H8X 9975  -0.316   2.370   7.473  2.1839 -1.9411 -4.1225
   99SAPS   H8Y 9976  -0.407   2.226   7.420 -0.8874 -0.2016  0.4992
   99SAPS   C39 9977  -0.491   2.322   7.593  0.1206  0.3092 -0.4396
   99SAPS   H9X 9978  -0.598   2.301   7.570 -0.4971  0.7586  1.8610
   99SAPS   H9Y 9979  -0.487   2.423   7.637 -0.8045  0.1321  0.0841
   99SAPS  C310 9980  -0.423   2.207   7.675 -0.2801 -0.0575 -0.3724
   99SAPS  H10X 9981  -0.312   2.213   7.682 -0.2650  0.3100 -0.8943
   99SAPS  H10Y 9982  -0.442   2.107   7.631  1.4249 -1.0174  0.8987
   99SAPS  C311 9983  -0.487   2.199   7.818  0.0332 -0.0342  0.6268
   99SAPS  H11X 9984  -0.426   2.128   7.879 -1.6278  0.3488  2.8725
   99SAPS  H11Y 9985  -0.589   2.156   7.809  0.1804 -0.3045  0.2544
   99SAPS  C312 9986  -0.492   2.342   7.877  0.2589  0.1191 -1.0754
   99SAPS  H12X 9987  -0.577   2.399   7.833 -2.5685 -1.5351  1.8309
   99SAPS  H12Y 9988  -0.390   2.386   7.872  2.2170 -3.2329  3.2247
   99SAPS  C313 9989  -0.529   2.321   8.024 -0.0039  0.0739  0.6996
   99SAPS  H13X 9990  -0.435   2.293   8.077  1.7921  3.2350 -0.5534
   99SAPS  H13Y 9991  -0.609   2.246   8.043 -0.4287  0.7300  1.5430
   99SAPS  C314 9992  -0.568   2.460   8.093  0.2945 -0.3154 -0.2046
   99SAPS  H14X 9993  -0.649   2.507   8.034  0.9267  0.7557 -0.2522
   99SAPS  H14Y 9994  -0.468   2.507   8.079  1.7259 -2.5117  1.6872
   99SAPS  C315 9995  -0.602   2.450   8.242 -0.0069 -0.1505  0.6762
   99SAPS  H15X 9996  -0.584   2.545   8.298  2.9092 -1.0125  1.3700
   99SAPS  H15Y 9997  -0.516   2.390   8.277  0.8452  0.9488  0.5113
   99SAPS  C316 9998  -0.744   2.383   8.273 -0.5151  0.2224 -0.5869
   99SAPS  H16X 9999  -0.736   2.287   8.217  1.6793  0.2868 -0.4711
   99SAPS  H16Y10000  -0.816   2.440   8.211  2.2160  1.0222 -3.2821
   99SAPS  C31710001  -0.765   2.358   8.418  1.1108  0.1316  0.2330
   99SAPS  H17X10002  -0.802   2.453   8.461 -0.6253 -0.3903 -0.0197
   99SAPS  H17Y10003  -0.665   2.340   8.461  1.4622  0.1651 -0.5500
   99SAPS  C31810004  -0.859   2.238   8.449 -0.2209 -0.0647  0.2216
   99SAPS  H18X10005  -0.886   2.245   8.556  0.3687 -1.6786  0.5013
   99SAPS  H18Y10006  -0.811   2.142   8.420 -0.4630  0.2109 -1.2075
   99SAPS  H18Z10007  -0.954   2.254   8.394 -0.4967  0.4761  0.8425
  100SAPS     N10008   1.359   2.435   6.301  0.0670 -0.5520 -0.0163
  100SAPS   HN110009   1.458   2.431   6.333 -0.3796  0.2894  1.5853
  100SAPS   HN210010   1.339   2.515   6.238 -1.1636  1.4463  2.7016
  100SAPS   HN310011   1.291   2.446   6.380  2.1876  0.5838  1.7572
  100SAPS   C1210012   1.321   2.303   6.245  0.4608 -0.1188 -0.7968
  100SAPS  H12A10013   1.315   2.234   6.328 -0.9514  1.1997  0.2583
  100SAPS   C1310014   1.180   2.289   6.181 -0.3683  0.3302  0.2766
  100SAPS  O13A10015   1.103   2.386   6.184  0.2877 -0.1307  0.3706
  100SAPS  O13B10016   1.150   2.189   6.113 -0.3955 -0.1955 -0.2285
  100SAPS   C1110017   1.428   2.262   6.147 -0.1857 -0.4846  0.2938
  100SAPS  H11A10018   1.441   2.334   6.063  0.2190 -0.3007  0.5103
  100SAPS  H11B10019   1.403   2.172   6.088  2.8407  1.6686 -5.0553
  100SAPS     P10020   1.607   2.097   6.246 -0.2635 -0.2154 -0.4842
  100SAPS   O1310021   1.534   1.979   6.183 -0.1196  0.2970  0.1983
  100SAPS   O1410022   1.757   2.093   6.230  0.3339  0.0964  0.4439
  100SAPS   O1210023   1.558   2.237   6.205 -0.2490  0.1264 -0.2705
  100SAPS   O1110024   1.570   2.087   6.401  0.0465 -0.0839  0.2656
  100SAPS    C110025   1.582   2.198   6.487 -0.6633  0.3443 -0.1266
  100SAPS    HA10026   1.670   2.257   6.454  0.1905 -1.2127 -0.7629
  100SAPS    HB10027   1.493   2.263   6.494 -1.2247 -0.1416 -2.0413
  100SAPS    C210028   1.612   2.145   6.627 -0.3667 -0.6287 -0.4939
  100SAPS    HS10029   1.699   2.076   6.621 -0.7486 -1.1620  0.0667
  100SAPS   O2110030   1.494   2.079   6.684  0.4845  0.5740  0.2800
  100SAPS   C2110031   1.520   1.988   6.784 -0.0876 -0.7759 -0.5067
  100SAPS   O2210032   1.629   1.952   6.817 -0.7494 -0.0649  0.1742
  100SAPS   C2210033   1.388   1.960   6.852  0.2356 -0.2273  0.0471
  100SAPS   H2R10034   1.333   2.053   6.877  0.9585  0.7268 -1.7758
  100SAPS   H2S10035   1.317   1.896   6.796 -2.4047  2.1332  0.4526
  100SAPS    C310036   1.658   2.267   6.720  0.0302 -0.1280  0.0251
  100SAPS    HX10037   1.571   2.336   6.717 -1.0319 -1.3821  1.0202
  100SAPS    HY10038   1.744   2.325   6.680  0.3663 -1.1685 -0.7987
  100SAPS   O3110039   1.670   2.233   6.859  0.1387  0.2708 -0.0818
  100SAPS   C3110040   1.791   2.184   6.882  0.3670  0.6699  0.6696
  100SAPS   O3210041   1.884   2.179   6.800  1.1060  0.5131 -0.4995
  100SAPS   C3210042   1.805   2.140   7.037  0.7684  0.3082 -0.6998
  100SAPS   H2X10043   1.702   2.143   7.079  1.5998  1.4491  1.3850
  100SAPS   H2Y10044   1.870   2.213   7.089 -0.4788  2.2664 -1.7579
  100SAPS   C2310045   1.411   1.875   6.980  0.8138  1.0312 -0.2686
  100SAPS   H3R10046   1.496   1.925   7.031  1.8736 -0.2406 -0.7301
  100SAPS   H3S10047   1.425   1.765   6.966 -1.6459  0.7670 -1.1351
  100SAPS   C2410048   1.288   1.886   7.076 -0.2420 -0.4040 -0.4609
  100SAPS   H4R10049   1.301   1.801   7.146  1.0150 -0.8492 -1.2093
  100SAPS   H4S10050   1.199   1.872   7.011  0.8729  1.4078 -2.5143
  100SAPS   C2510051   1.261   2.014   7.147  0.5080  0.0679  0.2196
  100SAPS   H5R10052   1.235   2.105   7.091  1.1890  0.5920  0.7383
  100SAPS   C2610053   1.256   2.042   7.283  0.2324  0.2053  0.4340
  100SAPS   H6R10054   1.238   2.142   7.323  2.3016  1.4834 -1.5908
  100SAPS   C2710055   1.282   1.941   7.395 -0.5356 -0.8376 -0.4790
  100SAPS   H7R10056   1.374   1.981   7.444 -1.3653  0.5433  0.0226
  100SAPS   H7S10057   1.286   1.832   7.375  0.7232 -0.9234  0.1288
  100SAPS   C2810058   1.180   1.956   7.503  0.3199 -0.2572 -0.3518
  100SAPS   H8R10059   1.073   1.946   7.478  0.2048  0.5982 -0.2437
  100SAPS   C2910060   1.200   1.977   7.632  0.1872  1.2034  0.5451
  100SAPS   H9R10061   1.112   1.989   7.697 -0.1737 -0.2430  0.3579
  100SAPS  C21010062   1.339   1.987   7.696 -0.1856  0.0044 -0.2831
  100SAPS  H10R10063   1.361   2.087   7.737 -2.1695  1.1220 -1.7774
  100SAPS  H10S10064   1.429   1.966   7.633 -0.7496  0.0123 -1.1046
  100SAPS  C21110065   1.333   1.892   7.811 -0.4876  0.1612  0.2430
  100SAPS  H11R10066   1.235   1.851   7.841 -0.2704  0.9959  2.2618
  100SAPS  C21210067   1.431   1.854   7.895 -0.3366  0.0354 -0.0257
  100SAPS  H12R10068   1.393   1.808   7.987 -1.5315 -0.0933 -0.5673
  100SAPS  C21310069   1.573   1.899   7.890 -0.4220 -0.1149  0.5311
  100SAPS  H13R10070   1.571   2.010   7.897 -1.0184  0.0262 -1.4320
  100SAPS  H13S10071   1.613   1.885   7.788  0.8391  1.1069  0.8252
  100SAPS  C21410072   1.654   1.821   7.985  0.0677 -0.1775  0.5204
  100SAPS  H14R10073   1.645   1.713   7.963  0.6253 -0.3122  0.9071
  100SAPS  C21510074   1.736   1.866   8.082 -0.4027  0.5098  0.0103
  100SAPS  H15R10075   1.775   1.783   8.143 -3.4156 -1.6040 -0.7297
  100SAPS  C21610076   1.766   2.010   8.112  0.3224 -0.0179 -0.4810
  100SAPS  H16R10077   1.720   2.076   8.036  1.6368  1.6123  0.0723
  100SAPS  H16S10078   1.876   2.020   8.094  0.3978 -0.1863 -0.1308
  100SAPS  C21710079   1.715   2.043   8.252 -0.7073 -0.0867  0.3300
  100SAPS  H17R10080   1.769   1.975   8.322 -1.1081  0.6213  1.3513
  100SAPS  H17S10081   1.605   2.041   8.266 -0.6478  0.5994  0.9930
  100SAPS  C21810082   1.748   2.191   8.291 -0.0685 -0.9845 -0.6770
  100SAPS  H18R10083   1.686   2.261   8.231  0.3680 -0.9598 -1.1049
  100SAPS  H18S10084   1.848   2.234   8.270 -0.3116  0.1142  0.3501
  100SAPS  C21910085   1.720   2.232   8.444 -0.4933 -0.0011 -0.0323
  100SAPS  H19R10086   1.778   2.156   8.501 -0.2185 -1.5207 -2.2039
  100SAPS  H19S10087   1.614   2.212   8.471  0.0485 -1.0997  1.4628
  100SAPS  C22010088   1.766   2.374   8.459  0.0471 -0.5890  0.4295
  100SAPS  H20R10089   1.711   2.441   8.390 -1.8723  1.1124  3.3881
  100SAPS  H20S10090   1.873   2.397   8.441 -0.4401  1.3716 -0.2409
  100SAPS  H20T10091   1.738   2.402   8.563  0.9677 -0.8638  0.7546
  100SAPS   C3310092   1.850   1.997   7.061 -0.2396 -0.2600  0.0094
  100SAPS   H3X10093   1.961   1.992   7.056 -0.3292 -1.5427 -1.9971
  100SAPS   H3Y10094   1.803   1.939   6.978  1.9226 -0.4982 -1.1493
  100SAPS   C3410095   1.779   1.932   7.177  0.0259  0.8978 -0.3786
  100SAPS   H4X10096   1.791   1.822   7.175  0.9825  0.9454  1.0184
  100SAPS   H4Y10097   1.670   1.945   7.163  0.0411  0.3113 -1.0962
  100SAPS   C3510098   1.819   1.993   7.310  0.1309 -0.3468 -0.6567
  100SAPS   H5X10099   1.790   1.915   7.384  1.9417  0.1483  0.6285
  100SAPS   H5Y10100   1.762   2.088   7.316 -0.4687 -0.5854 -2.1800
  100SAPS   C3610101   1.966   2.015   7.339  0.7531  0.0922  0.4175
  100SAPS   H6X10102   1.994   2.109   7.288 -1.0977 -0.6130 -2.0631
  100SAPS   H6Y10103   2.024   1.938   7.284 -0.5999  0.4734 -1.6286
  100SAPS   C3710104   2.000   2.033   7.493  0.8112  0.6519 -0.2636
  100SAPS   H7X10105   1.944   2.118   7.537 -0.3508  0.2868 -0.9841
  100SAPS   H7Y10106   2.110   2.045   7.498  1.0776 -0.5172 -2.2179
  100SAPS   C3810107   1.976   1.909   7.580 -0.8306 -0.0161 -0.7168
  100SAPS   H8X10108   2.047   1.829   7.550 -1.8987 -0.8350 -1.1328
  100SAPS   H8Y10109   1.877   1.860   7.562 -1.7178  0.8134  1.5400
  100SAPS   C3910110   1.992   1.925   7.738 -0.2904  0.3143  0.6515
  100SAPS   H9X10111   1.985   1.821   7.778 -1.9788 -1.9830 -4.7142
  100SAPS   H9Y10112   1.914   1.991   7.780  0.3494  0.0463  2.3779
  100SAPS  C31010113   2.119   2.003   7.770 -0.2249  0.5454  0.0270
  100SAPS  H10X10114   2.134   2.086   7.697 -0.1053 -0.1432 -0.7461
  100SAPS  H10Y10115   2.207   1.942   7.741  0.0309  1.0930 -0.3825
  100SAPS  C31110116   2.141   2.043   7.905 -0.1048 -0.4373 -0.1501
  100SAPS  H11X10117   2.055   2.110   7.929  0.2494  0.0166 -0.1302
  100SAPS  H11Y10118   2.234   2.102   7.914  1.4000 -2.4910 -1.3724
  100SAPS  C31210119   2.143   1.923   8.000  0.0067 -0.6132 -0.2237
  100SAPS  H12X10120   2.233   1.861   7.985  0.4384 -0.3175  1.0310
  100SAPS  H12Y10121   2.055   1.859   7.979 -0.2279  0.5432 -3.4057
  100SAPS  C31310122   2.147   1.969   8.148  0.1955  0.3043  0.5588
  100SAPS  H13X10123   2.074   2.053   8.146 -0.2653 -0.1004  0.3640
  100SAPS  H13Y10124   2.246   2.012   8.174 -0.6701  1.4751  2.1303
  100SAPS  C31410125   2.094   1.859   8.245 -0.1870  0.0180  0.1974
  100SAPS  H14X10126   2.150   1.764   8.262 -3.8906 -2.1585  1.4787
  100SAPS  H14Y10127   1.994   1.831   8.205  0.0993 -0.0139 -0.5209
  100SAPS  C31510128   2.088   1.905   8.388  0.2031  0.1473  0.2656
  100SAPS  H15X10129   2.034   2.002   8.398  2.1025  1.3462 -0.6436
  100SAPS  H15Y10130   2.194   1.921   8.417  0.9371 -3.5559  0.0699
  100SAPS  C31610131   2.019   1.797   8.481  0.4912 -0.0406  0.2313
  100SAPS  H16X10132   2.085   1.707   8.486 -0.6436 -1.2876 -3.4866
  100SAPS  H16Y10133   1.922   1.769   8.436  0.2295  0.3584  0.5438
  100SAPS  C31710134   1.980   1.849   8.619  0.0867 -0.1026  0.6540
  100SAPS  H17X10135   1.917   1.937   8.594 -1.3513 -1.3734 -0.3503
  100SAPS  H17Y10136   2.067   1.882   8.680 -1.0952  1.4750  1.5255
  100SAPS  C31810137   1.897   1.755   8.702 -0.0545  0.6021 -0.0383
  100SAPS  H18X10138   1.889   1.785   8.809  0.3451 -0.0667  0.1895
  100SAPS  H18Y10139   1.944   1.654   8.710 -0.5119  0.4007  0.1468
  100SAPS  H18Z10140   1.792   1.742   8.668 -0.7228  2.1921  1.2610
  101OSM      N10141   2.847   2.141  11.294  0.6250  0.4441  0.6110
  101OSM    C1510142   2.816   2.018  11.365  0.2785 -0.0830  0.3433
  101OSM   H15A10143   2.710   2.006  11.349 -0.1318  1.9505  1.1830
  101OSM   H15B10144   2.822   2.021  11.472 -0.0310  0.9756  0.3422
  101OSM   H15C10145   2.855   1.926  11.326 -3.1309 -0.8193 -1.7431
  101OSM    C1410146   2.798   2.123  11.156  0.4901  0.0518  0.6041
  101OSM   H14A10147   2.859   2.052  11.101  2.1691  1.8544 -0.0162
  101OSM   H14B10148   2.805   2.209  11.090  0.2691 -0.7629 -0.5235
  101OSM   H14C10149   2.695   2.094  11.153  0.6199 -0.3416 -0.5291
  101OSM    C1310150   2.763   2.247  11.355 -0.2098 -0.2387 -0.3853
  101OSM   H13A10151   2.765   2.336  11.294 -0.5000 -0.8623 -1.3278
  101OSM   H13B10152   2.795   2.272  11.455 -1.7709 -1.1161  0.3934
  101OSM   H13C10153   2.658   2.219  11.351  0.0301 -1.0531 -2.8272
  101OSM    C1210154   2.996   2.170  11.294  0.1276 -0.6365  0.5378
  101OSM   H12A10155   3.052   2.084  11.260  2.5386  1.6118 -1.6704
  101OSM   H12B10156   3.025   2.179  11.398 -1.0092 -1.0223  0.9022
  101OSM    C1110157   3.047   2.292  11.220  0.2417  0.3569  0.9306
  101OSM   H11A10158   3.148   2.318  11.257 -0.8899  2.0485  3.1224
  101OSM   H11B10159   2.996   2.385  11.254  1.5991  1.4559  0.0405
  101OSM      P10160   3.113   2.198  10.978 -0.5488 -0.0352  0.0086
  101OSM    O1310161   3.260   2.197  11.004  0.0806 -0.8299 -0.3101
  101OSM    O1410162   3.054   2.064  10.976 -0.4592  0.4676  0.3343
  101OSM    O1110163   3.092   2.261  10.835 -0.5652 -0.4133 -0.2615
  101OSM    O1210164   3.037   2.295  11.075  0.0343 -0.1238 -0.2366
  101OSM    C1S10165   3.028   2.195  10.731 -0.2296 -0.2195  0.1973
  101OSM    H1S10166   2.924   2.204  10.768  0.0308 -0.9826  1.1334
  101OSM    H1T10167   3.063   2.090  10.719  0.4929  0.0243  0.0893
  101OSM     NF10168   2.953   2.226  10.497 -0.6774 -0.2364  0.4792
  101OSM    HNF10169   2.973   2.155  10.430 -2.5425 -0.3157 -0.0598
  101OSM    C2S10170   3.049   2.277  10.596 -0.5217  0.1852  0.4019
  101OSM    H2S10171   3.015   2.378  10.628 -1.1823  0.3832 -0.8584
  101OSM    C3S10172   3.195   2.281  10.554  0.1709 -0.5861 -0.1044
  101OSM    H3S10173   3.224   2.184  10.509 -0.4909  0.4844 -3.0990
  101OSM     O310174   3.290   2.311  10.663 -0.1281 -0.1471  1.0112
  101OSM    HO310175   3.241   2.297  10.744  1.8813 -0.9698  2.1832
  101OSM    C4S10176   3.204   2.390  10.445  0.0690 -0.0971 -0.1070
  101OSM    H4S10177   3.165   2.491  10.465 -1.0173  0.2280 -3.3179
  101OSM    C5S10178   3.216   2.362  10.310  0.0803  0.0952  0.5252
  101OSM    H5S10179   3.241   2.259  10.282 -0.1578  0.1983 -0.0770
  101OSM    C6S10180   3.185   2.470  10.204 -0.4339  0.1969  0.5863
  101OSM    H6S10181   3.271   2.499  10.141  0.6303 -3.8523 -0.1489
  101OSM    H6T10182   3.145   2.564  10.246  0.3318  0.5552  0.5329
  101OSM    C7S10183   3.091   2.397  10.106 -0.4728  0.1559  0.0750
  101OSM    H7S10184   3.001   2.349  10.149 -1.0362  1.0474 -0.0914
  101OSM    H7T10185   3.150   2.319  10.053 -0.0796  1.2454 -1.1607
  101OSM    C8S10186   3.021   2.490  10.001 -0.4332 -0.3414 -0.2064
  101OSM    H8S10187   3.022   2.594  10.041  0.1512  0.3591 -1.9709
  101OSM    H8T10188   2.917   2.463   9.973 -1.5185  2.0868  1.1464
  101OSM    C9S10189   3.107   2.501   9.877  0.4833 -0.8571 -0.0849
  101OSM    H9S10190   3.119   2.398   9.838 -0.8191 -1.1943  0.3470
  101OSM    H9T10191   3.196   2.560   9.906 -2.3374  3.5757  0.5517
  101OSM   C10S10192   3.035   2.575   9.763  0.1865  0.6559 -0.3338
  101OSM   H10S10193   2.991   2.676   9.778  2.7071  1.7343  0.4521
  101OSM   H10T10194   2.949   2.508   9.743 -0.1922  0.7576  0.8881
  101OSM   C11S10195   3.122   2.581   9.635  0.6105 -0.5946  0.5325
  101OSM   H11S10196   3.195   2.498   9.629  0.5038 -0.7664  1.4810
  101OSM   H11T10197   3.184   2.673   9.644  1.3019 -1.0569  0.5255
  101OSM   C12S10198   3.037   2.594   9.505 -0.3851  0.1821  0.3908
  101OSM   H12S10199   2.971   2.683   9.506  0.2052  0.6474 -0.4093
  101OSM   H12T10200   2.972   2.507   9.481  0.9815 -0.2234 -2.2758
  101OSM   C13S10201   3.124   2.628   9.386  0.5102  0.1918 -0.7440
  101OSM   H13S10202   3.229   2.596   9.406 -0.0489 -0.3714  1.6656
  101OSM   H13T10203   3.131   2.738   9.375 -0.5758  0.4750  1.0022
  101OSM   C14S10204   3.078   2.566   9.264  0.0880  0.2667  0.2179
  101OSM   H14S10205   3.073   2.458   9.290 -0.7101  0.5598  1.4123
  101OSM   H14T10206   3.149   2.573   9.180  1.8802 -0.3461  1.6118
  101OSM   C15S10207   2.945   2.628   9.211  0.5832  0.4757 -0.1719
  101OSM   H15S10208   2.958   2.738   9.207 -0.9396  0.7836  1.8980
  101OSM   H15T10209   2.867   2.607   9.287  0.5045  2.4103  0.3230
  101OSM   C16S10210   2.896   2.574   9.070  0.0565 -0.2638  0.0416
  101OSM   H16S10211   2.869   2.467   9.070  0.4089 -0.3554 -0.0057
  101OSM   H16T10212   2.978   2.586   8.996 -0.6230 -0.0095 -0.6744
  101OSM   C17S10213   2.769   2.655   9.021  0.1811 -0.2438  0.2425
  101OSM   H17S10214   2.799   2.762   9.028  1.9719 -0.7356  0.7692
  101OSM   H17T10215   2.707   2.643   9.113  3.0274 -3.9005  1.9484
  101OSM   C18S10216   2.711   2.633   8.881  0.4004  0.4833 -0.9868
  101OSM   H18S10217   2.611   2.679   8.868  1.0716  1.8031 -1.7021
  101OSM   H18T10218   2.686   2.526   8.865  1.8025 -0.2023  1.0762
  101OSM   H18U10219   2.782   2.671   8.804 -0.9226  0.3252 -2.3338
  101OSM    C1F10220   2.819   2.239  10.497  0.1784  0.1536 -0.1656
  101OSM     OF10221   2.776   2.315  10.579  0.0711  0.6613  0.1742
  101OSM    C2F10222   2.739   2.150  10.404 -0.6102 -0.4859  0.2808
  101OSM    H2F10223   2.641   2.128  10.451 -1.2115 -0.0698 -0.7644
  101OSM    H2G10224   2.787   2.051  10.386  2.2574  1.0507 -1.1140
  101OSM    C3F10225   2.717   2.222  10.269 -0.1430  0.3464  0.0269
  101OSM    H3F10226   2.816   2.240  10.223  0.2887  0.9314  1.1401
  101OSM    H3G10227   2.657   2.316  10.274  0.0675  0.4359  0.9798
  101OSM    C4F10228   2.650   2.128  10.161 -0.0328  0.1503  0.7843
  101OSM    H4F10229   2.550   2.099  10.201  0.7018 -2.1030  1.1412
  101OSM    H4G10230   2.705   2.033  10.150 -1.8328 -0.8753  0.2225
  101OSM    C5F10231   2.647   2.183  10.018  0.6515  0.0221 -0.0703
  101OSM    H5F10232   2.599   2.118   9.943  2.1648 -0.7676 -0.3826
  101OSM    H5G10233   2.756   2.182   9.995  0.9144 -4.2323  0.5578
  101OSM    C6F10234   2.581   2.325  10.004  0.3233 -0.3957 -0.7171
  101OSM    H6F10235   2.625   2.400  10.073 -0.9132 -0.1523 -0.1739
  101OSM    H6G10236   2.475   2.314  10.033  0.9533 -0.7542  1.6671
  101OSM    C7F10237   2.598   2.377   9.859  0.3545  0.0469  1.1045
  101OSM    H7F10238   2.707   2.381   9.839 -0.2009  1.4962 -2.2991
  101OSM    H7G10239   2.563   2.481   9.843  1.7160  0.4676  0.7285
  101OSM    C8F10240   2.540   2.288   9.748  1.1430  0.3984  0.4705
  101OSM    H8F10241   2.435   2.275   9.781  1.2918 -0.7374  0.5298
  101OSM    H8G10242   2.582   2.186   9.751 -1.2182 -0.6067  1.4799
  101OSM    C9F10243   2.573   2.359   9.616  0.0792 -0.3985 -0.1497
  101OSM    H9F10244   2.672   2.406   9.615 -0.2332  0.3275 -2.0743
  101OSM   C10F10245   2.511   2.361   9.498 -0.2396 -0.1011  0.8976
  101OSM   H10F10246   2.551   2.423   9.416 -0.3558 -0.7494  0.3410
  101OSM   C11F10247   2.382   2.293   9.465 -0.3484  0.3967  1.0544
  101OSM   H11F10248   2.305   2.307   9.544 -0.8302  0.8243  0.5185
  101OSM   H11G10249   2.408   2.186   9.451 -0.0360  0.6533 -0.4970
  101OSM   C12F10250   2.321   2.353   9.337 -0.1950  0.1273  0.3264
  101OSM   H12F10251   2.283   2.456   9.353 -1.8078 -0.1008 -1.6925
  101OSM   H12G10252   2.233   2.285   9.328  1.4786 -2.2241  0.5676
  101OSM   C13F10253   2.417   2.353   9.219  0.6329 -0.4473  0.4437
  101OSM   H13F10254   2.475   2.259   9.225 -1.4654 -1.7209  1.9706
  101OSM   H13G10255   2.485   2.442   9.216 -1.9087  1.5779 -1.0751
  101OSM   C14F10256   2.352   2.353   9.084  0.2139 -0.0688 -0.5054
  101OSM   H14F10257   2.402   2.419   9.010 -1.4689  0.7217 -0.9839
  101OSM   H14G10258   2.243   2.374   9.085  0.1074 -0.2983  2.7973
  101OSM   C15F10259   2.361   2.215   9.023  0.2501 -0.0665 -0.2932
  101OSM   H15F10260   2.308   2.133   9.076  0.3820 -1.2979 -1.9812
  101OSM   H15G10261   2.469   2.188   9.026 -0.3296 -2.5912  1.0211
  101OSM   C16F10262   2.314   2.211   8.878 -0.8590  0.0768  0.0741
  101OSM   H16F10263   2.347   2.116   8.830 -0.3907  0.2746  0.0003
  101OSM   H16G10264   2.332   2.303   8.819 -2.5635  0.6551  0.3968
  101OSM   C17F10265   2.162   2.188   8.866 -0.2460  0.3154 -0.8406
  101OSM   H17F10266   2.114   2.271   8.923  1.2648  0.8296 -0.2703
  101OSM   H17G10267   2.128   2.092   8.911  0.7433  0.5430  0.4466
  101OSM   C18F10268   2.106   2.190   8.724  0.1670  0.0722 -0.8539
  101OSM   H18F10269   2.166   2.130   8.653  1.5753  3.2734 -2.5685
  101OSM   H18G10270   2.112   2.292   8.682 -2.8665  0.9379  0.5628
  101OSM   H18H10271   2.004   2.144   8.718 -0.0091  0.2303  0.5815
  102OSM      N10272   0.602   3.652  11.000  0.0621  0.7832 -0.0343
  102OSM    C1510273   0.539   3.525  11.056 -0.0362  0.3711  0.2783
  102OSM   H15A10274   0.578   3.444  10.995  0.2368 -0.1059  1.0622
  102OSM   H15B10275   0.433   3.531  11.038  0.1256  3.4524 -0.0798
  102OSM   H15C10276   0.566   3.519  11.161 -0.5835  1.7038  0.5024
  102OSM    C1410277   0.530   3.755  11.075  0.4278 -0.3283 -0.4016
  102OSM   H14A10278   0.425   3.756  11.052  0.0544 -0.4737  1.2267
  102OSM   H14B10279   0.572   3.845  11.031 -0.1909  0.1103 -0.1087
  102OSM   H14C10280   0.561   3.756  11.178 -1.5531 -0.3008  0.2192
  102OSM    C1310281   0.749   3.660  11.031  0.6620  0.4317 -0.0049
  102OSM   H13A10282   0.788   3.564  11.002  1.1963  0.7040 -0.1877
  102OSM   H13B10283   0.768   3.666  11.138 -0.6780 -0.4602  0.3114
  102OSM   H13C10284   0.801   3.742  10.985  0.1994  0.2574 -0.8475
  102OSM    C1210285   0.567   3.658  10.853 -0.2522  0.3146  0.2122
  102OSM   H12A10286   0.600   3.755  10.820 -0.4222  0.2894 -0.0312
  102OSM   H12B10287   0.459   3.655  10.846 -0.3211  1.6704  0.3323
  102OSM    C1110288   0.611   3.549  10.745  0.0749  0.3732 -0.4404
  102OSM   H11A10289   0.721   3.557  10.727 -0.3028  1.9323 -2.4764
  102OSM   H11B10290   0.557   3.582  10.654 -1.8036 -2.1489 -0.3446
  102OSM      P10291   0.437   3.359  10.720  0.0568  0.1651 -0.0553
  102OSM    O1310292   0.414   3.218  10.743  0.2328  1.0228  0.4141
  102OSM    O1410293   0.324   3.451  10.748 -0.6529  0.2766 -0.5892
  102OSM    O1110294   0.485   3.377  10.575  0.4726 -0.7661  0.9643
  102OSM    O1210295   0.567   3.420  10.793 -0.3152 -0.0867  0.2147
  102OSM    C1S10296   0.586   3.295  10.521 -1.1247 -0.5696 -0.3685
  102OSM    H1S10297   0.590   3.195  10.568  2.1941 -0.1054  0.5605
  102OSM    H1T10298   0.687   3.333  10.548 -0.1332 -1.6763 -2.2625
  102OSM     NF10299   0.632   3.161  10.314  0.6449  0.2129 -0.4892
  102OSM    HNF10300   0.727   3.153  10.284  0.4766  1.4688 -1.4598
  102OSM    C2S10301   0.585   3.291  10.364 -0.4446  0.6257 -0.0658
  102OSM    H2S10302   0.480   3.308  10.334 -0.1018 -0.8013 -2.2562
  102OSM    C3S10303   0.673   3.407  10.299  0.1338  0.2447  0.0258
  102OSM    H3S10304   0.774   3.411  10.346  0.4569  0.4350 -0.6741
  102OSM     O310305   0.620   3.531  10.332 -0.0220 -0.5398  0.0048
  102OSM    HO310306   0.565   3.501  10.405  0.2803  2.3478  1.5512
  102OSM    C4S10307   0.681   3.391  10.144  0.5966 -0.2071 -0.1094
  102OSM    H4S10308   0.754   3.317  10.110  0.4833  0.1915 -1.2473
  102OSM    C5S10309   0.592   3.436  10.051 -0.5957 -0.0036 -0.0017
  102OSM    H5S10310   0.514   3.510  10.077  1.1470  1.1611  2.2365
  102OSM    C6S10311   0.624   3.411   9.908  0.0838  0.7078  0.3018
  102OSM    H6S10312   0.719   3.356   9.889  0.3746  1.1775  0.3618
  102OSM    H6T10313   0.628   3.498   9.839  0.8811 -1.0756 -2.0423
  102OSM    C7S10314   0.512   3.314   9.852  0.1063 -0.3687 -0.5578
  102OSM    H7S10315   0.418   3.373   9.848  1.5358  2.3969  2.3394
  102OSM    H7T10316   0.497   3.228   9.921 -2.8630  0.6876  0.2339
  102OSM    C8S10317   0.543   3.251   9.718 -0.0130  0.0865  0.2971
  102OSM    H8S10318   0.450   3.201   9.683 -0.3638  0.4591  0.6738
  102OSM    H8T10319   0.617   3.169   9.719 -0.7107 -0.5679 -0.3238
  102OSM    C9S10320   0.566   3.350   9.606 -0.6747 -0.3790  0.5072
  102OSM    H9S10321   0.652   3.420   9.618  1.5723 -2.8988 -0.0370
  102OSM    H9T10322   0.475   3.413   9.597  0.7271  1.4437 -2.6989
  102OSM   C10S10323   0.575   3.279   9.466 -0.4123 -0.7358 -0.1782
  102OSM   H10S10324   0.513   3.187   9.467 -1.5603  0.0188 -0.0881
  102OSM   H10T10325   0.676   3.234   9.457 -0.1185 -0.3216  0.9128
  102OSM   C11S10326   0.542   3.374   9.346 -0.0983 -0.3584 -0.3351
  102OSM   H11S10327   0.609   3.463   9.352 -0.5060 -0.0288 -0.6400
  102OSM   H11T10328   0.443   3.414   9.376  0.1042  0.4759 -0.7528
  102OSM   C12S10329   0.529   3.313   9.202  0.8775  0.3453  0.4467
  102OSM   H12S10330   0.453   3.232   9.193  3.2396 -1.8302 -1.6652
  102OSM   H12T10331   0.620   3.251   9.185 -0.2540 -1.0245 -1.0212
  102OSM   C13S10332   0.515   3.427   9.107  0.7319  0.0664 -0.1613
  102OSM   H13S10333   0.606   3.491   9.118  0.1332  0.5487  3.1827
  102OSM   H13T10334   0.423   3.481   9.138  2.0081  1.1602  1.9505
  102OSM   C14S10335   0.504   3.366   8.966 -0.0989  0.5877  0.2345
  102OSM   H14S10336   0.426   3.287   8.965 -1.2820  1.6497  2.3632
  102OSM   H14T10337   0.602   3.315   8.951 -1.2180 -2.2264  1.7523
  102OSM   C15S10338   0.483   3.459   8.850 -0.0688 -0.1557 -0.0848
  102OSM   H15S10339   0.560   3.539   8.857  1.2849 -1.4901  0.6630
  102OSM   H15T10340   0.385   3.510   8.861 -0.8773 -1.4120 -1.2338
  102OSM   C16S10341   0.510   3.391   8.715  1.2212  0.1696  0.2231
  102OSM   H16S10342   0.430   3.315   8.712  1.7084 -0.6386  3.7924
  102OSM   H16T10343   0.609   3.340   8.708  1.4687  0.7420 -0.5647
  102OSM   C17S10344   0.490   3.486   8.585  0.0427  0.8865 -0.6568
  102OSM   H17S10345   0.399   3.549   8.589 -0.1292  0.6248 -0.4113
  102OSM   H17T10346   0.482   3.423   8.494 -1.7448  2.2731 -1.5122
  102OSM   C18S10347   0.612   3.578   8.551  0.3852  0.2306 -0.0959
  102OSM   H18S10348   0.595   3.645   8.464  1.5966 -0.7277 -1.1115
  102OSM   H18T10349   0.703   3.516   8.535  0.5288  0.5520 -0.5546
  102OSM   H18U10350   0.618   3.645   8.640 -2.5806 -0.7292  0.9511
  102OSM    C1F10351   0.559   3.051  10.321 -0.8542  0.1134  0.9332
  102OSM     OF10352   0.440   3.056  10.361 -0.1909  0.8564 -0.9128
  102OSM    C2F10353   0.632   2.934  10.280 -0.5304  0.2246  0.4400
  102OSM    H2F10354   0.697   2.893  10.361  1.8933  0.4663 -1.2669
  102OSM    H2G10355   0.688   2.964  10.189 -4.1700  0.1908 -2.0395
  102OSM    C3F10356   0.542   2.816  10.232  0.4942 -0.1302  0.0248
  102OSM    H3F10357   0.485   2.781  10.320  1.1905 -0.0718  0.5047
  102OSM    H3G10358   0.598   2.726  10.198  1.3329  0.9434 -1.5801
  102OSM    C4F10359   0.435   2.847  10.131 -0.2865 -0.3070  0.0500
  102OSM    H4F10360   0.490   2.894  10.046 -1.4047 -1.0868 -1.1415
  102OSM    H4G10361   0.376   2.931  10.176  0.6365  0.4727 -0.1621
  102OSM    C5F10362   0.351   2.727  10.085 -0.0548 -0.0306 -0.5341
  102OSM    H5F10363   0.308   2.675  10.173 -0.2536  2.2294  0.7850
  102OSM    H5G10364   0.419   2.661  10.027  0.3028  0.8665 -1.1734
  102OSM    C6F10365   0.234   2.763   9.988 -0.0862  0.1591 -0.7404
  102OSM    H6F10366   0.265   2.844   9.920  2.7862 -0.0429  0.1944
  102OSM    H6G10367   0.147   2.805  10.043 -1.8281 -4.3309  0.3932
  102OSM    C7F10368   0.180   2.638   9.911  0.2478 -0.3375  0.0911
  102OSM    H7F10369   0.138   2.564   9.983 -0.7609 -0.6015 -0.7421
  102OSM    H7G10370   0.260   2.580   9.860 -0.6341 -0.3205 -1.3683
  102OSM    C8F10371   0.086   2.681   9.801 -0.1806  0.0132  0.3349
  102OSM    H8F10372   0.136   2.747   9.728 -0.6090 -0.6782 -0.6107
  102OSM    H8G10373   0.018   2.760   9.840 -2.5657 -1.9208  0.3570
  102OSM    C9F10374   0.008   2.575   9.732  0.0409  0.0558 -0.4650
  102OSM    H9F10375  -0.052   2.511   9.798  0.9762 -1.5762 -1.1479
  102OSM   C10F10376   0.018   2.553   9.598 -0.5952  0.5446  0.6421
  102OSM   H10F10377  -0.045   2.473   9.557  0.4973  0.9217 -1.9679
  102OSM   C11F10378   0.098   2.627   9.494  0.7193  1.1073 -0.4898
  102OSM   H11F10379   0.096   2.572   9.398 -0.6657 -2.1626  1.2478
  102OSM   H11G10380   0.206   2.622   9.520  0.2364 -1.2746  1.4794
  102OSM   C12F10381   0.034   2.767   9.476  0.1562 -0.4610  0.3367
  102OSM   H12F10382   0.077   2.837   9.551 -0.0474 -2.1304  2.0587
  102OSM   H12G10383  -0.077   2.760   9.481 -0.1342  0.2155 -2.7388
  102OSM   C13F10384   0.049   2.835   9.337 -0.3399 -0.2489  0.1347
  102OSM   H13F10385  -0.010   2.929   9.336 -1.7402 -1.0960  0.0394
  102OSM   H13G10386  -0.006   2.774   9.262 -0.2917 -0.2401  0.0912
  102OSM   C14F10387   0.193   2.870   9.291 -0.5387  0.2352 -0.0791
  102OSM   H14F10388   0.257   2.786   9.326 -0.4009 -0.2099 -1.3485
  102OSM   H14G10389   0.239   2.960   9.336  1.6808 -0.5481 -0.6568
  102OSM   C15F10390   0.192   2.871   9.140  0.0616 -0.2589 -0.3199
  102OSM   H15F10391   0.103   2.926   9.104  0.0553  0.3053  0.5276
  102OSM   H15G10392   0.173   2.768   9.103  1.2460 -0.4466 -0.4652
  102OSM   C16F10393   0.332   2.892   9.075  0.3557 -0.7967 -0.4545
  102OSM   H16F10394   0.398   2.813   9.117 -0.1854 -0.6293  0.7212
  102OSM   H16G10395   0.377   2.988   9.107 -1.6905 -0.4510  1.5761
  102OSM   C17F10396   0.337   2.897   8.918 -0.0455  0.5892 -0.2522
  102OSM   H17F10397   0.293   2.804   8.877 -1.9750  0.6434  1.5434
  102OSM   H17G10398   0.445   2.891   8.892 -0.1474 -1.7921 -0.3131
  102OSM   C18F10399   0.261   3.017   8.853 -0.0410  0.3548 -0.4318
  102OSM   H18F10400   0.251   3.007   8.743  1.8786 -1.3816 -0.4871
  102OSM   H18G10401   0.337   3.096   8.873  1.3704 -0.2681 -2.9423
  102OSM   H18H10402   0.168   3.040   8.910  0.0854 -1.1275  0.3982
  103OSM      N10403   3.702   0.854  11.089  0.1098  0.0726  0.1972
  103OSM    C1510404   3.844   0.866  11.139 -0.2205  0.0184 -0.7964
  103OSM   H15A10405   3.914   0.872  11.058  1.6995 -1.6889  0.6514
  103OSM   H15B10406   3.866   0.773  11.188 -0.6441  0.6429  0.6541
  103OSM   H15C10407   3.854   0.949  11.209 -1.7396 -0.9167  0.6083
  103OSM    C1410408   3.612   0.817  11.208  0.6578 -0.3149 -0.0989
  103OSM   H14A10409   3.652   0.738  11.270  1.1995  0.2570  0.2856
  103OSM   H14B10410   3.514   0.791  11.171 -1.1226  3.8021  1.1465
  103OSM   H14C10411   3.603   0.901  11.275 -0.0239 -1.3740  1.1777
  103OSM    C1310412   3.651   0.982  11.027  0.0891  0.5967 -0.6300
  103OSM   H13A10413   3.712   1.009  10.942  1.2970 -1.0044 -0.3215
  103OSM   H13B10414   3.646   1.054  11.107 -5.4918  2.0213 -1.8433
  103OSM   H13C10415   3.549   0.967  10.994 -0.4617 -0.8340  1.5271
  103OSM    C1210416   3.705   0.740  10.986  0.1968 -0.9311 -0.5593
  103OSM   H12A10417   3.705   0.646  11.040 -0.7873 -0.3921  0.4182
  103OSM   H12B10418   3.804   0.743  10.944  1.7669  0.1602  2.8590
  103OSM    C1110419   3.597   0.738  10.874  0.6266 -0.3912 -0.7430
  103OSM   H11A10420   3.606   0.641  10.821 -0.4860 -0.6880 -0.4151
  103OSM   H11B10421   3.643   0.805  10.799 -1.2742 -0.0707 -1.6874
  103OSM      P10422   3.376   0.856  10.809  0.6990 -0.0215  0.2808
  103OSM    O1310423   3.232   0.833  10.832 -0.2414  0.3440 -0.1084
  103OSM    O1410424   3.413   1.001  10.828 -0.0343  0.1522  0.4622
  103OSM    O1110425   3.425   0.797  10.667  0.7162 -0.1258 -0.4507
  103OSM    O1210426   3.461   0.766  10.912  0.0028  0.2363 -0.5098
  103OSM    C1S10427   3.501   0.866  10.579 -0.6989 -0.4578  1.2914
  103OSM    H1S10428   3.596   0.903  10.625 -0.1077 -0.1313 -0.1541
  103OSM    H1T10429   3.442   0.949  10.535 -1.4604  0.1187  3.2653
  103OSM     NF10430   3.622   0.843  10.363  0.5275 -0.2452  0.2729
  103OSM    HNF10431   3.598   0.898  10.283  0.3281 -0.4816  0.1711
  103OSM    C2S10432   3.518   0.776  10.448  0.7258 -0.0868 -0.1434
  103OSM    H2S10433   3.570   0.686  10.489  1.1197  0.5245  0.7257
  103OSM    C3S10434   3.385   0.749  10.379  0.7407  0.5166 -0.4934
  103OSM    H3S10435   3.347   0.846  10.341  1.4552  1.5074  1.2275
  103OSM     O310436   3.286   0.695  10.467  0.4736 -0.2722  0.0553
  103OSM    HO310437   3.316   0.709  10.557 -0.0709  0.6876  0.1050
  103OSM    C4S10438   3.394   0.667  10.257 -0.0050 -0.4498  0.4837
  103OSM    H4S10439   3.414   0.733  10.171 -0.4333 -0.6194  0.2532
  103OSM    C5S10440   3.415   0.537  10.231 -0.2264 -0.2233  0.5133
  103OSM    H5S10441   3.429   0.474  10.320 -2.7862  2.8518  3.3603
  103OSM    C6S10442   3.445   0.473  10.090  0.0945 -0.2370 -0.0368
  103OSM    H6S10443   3.371   0.392  10.077  0.9734 -1.1197  0.3367
  103OSM    H6T10444   3.542   0.420  10.093  0.5701  0.4038 -2.4357
  103OSM    C7S10445   3.434   0.571   9.973  0.4931 -0.9497 -0.0386
  103OSM    H7S10446   3.490   0.663  10.000  0.7674 -0.9037 -0.7498
  103OSM    H7T10447   3.332   0.615   9.970  0.3914 -1.0813  0.9970
  103OSM    C8S10448   3.454   0.508   9.839  0.5336 -0.1459 -0.3478
  103OSM    H8S10449   3.468   0.399   9.854 -0.7564 -0.5074 -1.5939
  103OSM    H8T10450   3.548   0.536   9.787  0.0175 -1.0107 -1.7954
  103OSM    C9S10451   3.354   0.544   9.734 -0.2212 -0.0445  0.0620
  103OSM    H9S10452   3.339   0.654   9.733  1.2422  0.2430  2.1612
  103OSM    H9T10453   3.253   0.511   9.767 -0.4489 -1.1813 -1.6516
  103OSM   C10S10454   3.412   0.496   9.593  0.5205  0.2492  0.0340
  103OSM   H10S10455   3.431   0.387   9.580 -1.5465 -0.0754 -0.5670
  103OSM   H10T10456   3.512   0.538   9.570  1.3562 -2.2588 -1.3002
  103OSM   C11S10457   3.308   0.528   9.482  0.2315 -0.3765  0.2960
  103OSM   H11S10458   3.300   0.638   9.467 -0.7508 -0.4099  0.4969
  103OSM   H11T10459   3.210   0.498   9.527 -1.7862  3.7408 -0.8294
  103OSM   C12S10460   3.326   0.462   9.350  0.3530  0.2323  0.2704
  103OSM   H12S10461   3.305   0.353   9.353  1.9900 -0.0962  1.1531
  103OSM   H12T10462   3.433   0.470   9.321  0.4058 -1.0754  0.0446
  103OSM   C13S10463   3.230   0.534   9.245 -0.2104 -0.3068 -0.8113
  103OSM   H13S10464   3.224   0.640   9.279 -0.4779 -0.0252 -1.7122
  103OSM   H13T10465   3.128   0.491   9.241  0.6159 -2.3232 -1.2406
  103OSM   C14S10466   3.299   0.544   9.109 -0.4116  0.4197 -0.2662
  103OSM   H14S10467   3.404   0.580   9.117 -0.1777 -0.6386  1.8036
  103OSM   H14T10468   3.258   0.628   9.048  1.6535 -0.4304 -3.0643
  103OSM   C15S10469   3.280   0.412   9.028  0.3261  0.2857 -0.6576
  103OSM   H15S10470   3.177   0.423   8.989  0.8402  3.5153 -1.3749
  103OSM   H15T10471   3.284   0.326   9.099 -2.6099 -0.2244 -0.9852
  103OSM   C16S10472   3.357   0.393   8.896 -0.0954  0.1558  0.0518
  103OSM   H16S10473   3.465   0.393   8.923 -0.2658 -1.0303  0.7991
  103OSM   H16T10474   3.353   0.478   8.825 -0.0240  1.5448  1.6452
  103OSM   C17S10475   3.304   0.271   8.818 -0.1320  0.7001 -0.8256
  103OSM   H17S10476   3.194   0.269   8.808 -0.1471 -1.4283 -0.7414
  103OSM   H17T10477   3.323   0.176   8.874 -0.2296  0.5162 -1.1010
  103OSM   C18S10478   3.358   0.265   8.668  0.4086  0.0274 -0.5299
  103OSM   H18S10479   3.294   0.196   8.609  0.7274  1.2711 -2.4177
  103OSM   H18T10480   3.463   0.230   8.658 -0.1686 -1.4060 -1.8532
  103OSM   H18U10481   3.337   0.362   8.618 -2.4579 -0.7358 -0.9867
  103OSM    C1F10482   3.750   0.860  10.390 -0.2206  1.3039 -0.6413
  103OSM     OF10483   3.795   0.815  10.493 -0.0463 -0.4540 -0.3699
  103OSM    C2F10484   3.826   0.957  10.305  0.0408 -0.2347 -0.4471
  103OSM    H2F10485   3.870   1.035  10.371 -2.7131 -1.4271  3.1436
  103OSM    H2G10486   3.751   1.007  10.240 -0.0725 -0.9769 -0.8985
  103OSM    C3F10487   3.913   0.867  10.219 -0.1651  0.6042  0.0895
  103OSM    H3F10488   3.854   0.810  10.145  0.4321  0.0595  0.0284
  103OSM    H3G10489   3.966   0.789  10.278 -1.0534  0.2362  0.4103
  103OSM    C4F10490   4.011   0.953  10.136 -0.2972 -0.0753 -0.2598
  103OSM    H4F10491   4.084   0.994  10.209 -0.3483 -1.1151  0.3911
  103OSM    H4G10492   3.953   1.031  10.082 -0.5551  0.1261  0.3006
  103OSM    C5F10493   4.092   0.860  10.044  0.0801 -0.0549  0.3225
  103OSM    H5F10494   4.092   0.760  10.091  0.5680  0.6513  1.8930
  103OSM    H5G10495   4.194   0.902  10.031  0.0350 -0.0093  0.1126
  103OSM    C6F10496   4.028   0.855   9.898 -0.0868 -0.2511 -0.2871
  103OSM    H6F10497   4.010   0.959   9.864  0.7060  0.2081  0.6315
  103OSM    H6G10498   3.925   0.813   9.911 -0.1504  0.1189  0.4609
  103OSM    C7F10499   4.106   0.769   9.806 -0.6234  0.5924  0.2508
  103OSM    H7F10500   4.128   0.673   9.858 -2.5322  0.3033  0.5785
  103OSM    H7G10501   4.201   0.813   9.766 -1.5027  0.1694 -2.5317
  103OSM    C8F10502   4.024   0.731   9.687 -0.5142 -0.1146  0.3701
  103OSM    H8F10503   3.925   0.689   9.718 -1.5087  1.3158 -0.7644
  103OSM    H8G10504   4.089   0.650   9.647 -0.8017 -0.9778  1.5881
  103OSM    C9F10505   3.997   0.848   9.596 -0.5586  0.3988  0.1153
  103OSM    H9F10506   3.948   0.932   9.648  0.7587  0.8445  0.6846
  103OSM   C10F10507   4.032   0.865   9.467 -0.1031  0.4167 -0.2859
  103OSM   H10F10508   4.002   0.955   9.412  1.9251  1.6180  0.5025
  103OSM   C11F10509   4.109   0.763   9.381 -0.4825  0.4242 -0.4443
  103OSM   H11F10510   4.084   0.656   9.400 -1.7249  0.8321  0.3335
  103OSM   H11G10511   4.219   0.778   9.392 -0.1859  0.2131 -2.7292
  103OSM   C12F10512   4.073   0.779   9.230 -0.0211  0.3485  0.0814
  103OSM   H12F10513   4.117   0.877   9.202  1.7010  0.3428  2.4424
  103OSM   H12G10514   3.962   0.773   9.220 -0.0365 -1.2672  0.8297
  103OSM   C13F10515   4.137   0.666   9.145  0.1570 -0.3608 -0.5369
  103OSM   H13F10516   4.248   0.665   9.155  0.1451  1.8648  0.4338
  103OSM   H13G10517   4.100   0.570   9.189  0.0629  0.6945  1.8400
  103OSM   C14F10518   4.100   0.683   8.997  0.1969  0.3204 -0.8020
  103OSM   H14F10519   3.991   0.662   8.996  0.5179 -1.8488  1.4214
  103OSM   H14G10520   4.152   0.602   8.941 -0.4181  0.2773 -1.3244
  103OSM   C15F10521   4.127   0.819   8.935 -0.1927  0.1100 -0.5461
  103OSM   H15F10522   4.232   0.851   8.953  0.1013 -2.0238  2.0360
  103OSM   H15G10523   4.070   0.903   8.980  0.0147  0.2050 -0.4577
  103OSM   C16F10524   4.117   0.832   8.784 -0.0947 -0.4549  0.2942
  103OSM   H16F10525   4.192   0.764   8.740  0.0547  0.8366 -1.5651
  103OSM   H16G10526   4.148   0.933   8.749  1.0164 -1.3132 -1.2701
  103OSM   C17F10527   3.978   0.815   8.738  0.0668 -0.3199  0.3745
  103OSM   H17F10528   3.919   0.876   8.809 -0.2614  1.0901 -1.0290
  103OSM   H17G10529   3.955   0.707   8.735 -3.9133  0.3851 -0.7843
  103OSM   C18F10530   3.955   0.880   8.597  0.1366  0.3722  0.1785
  103OSM   H18F10531   3.999   0.823   8.512 -1.4078 -2.2620  1.0222
  103OSM   H18G10532   3.994   0.984   8.602  0.1420  0.3919 -0.2317
  103OSM   H18H10533   3.846   0.883   8.577  0.6045 -0.3863 -3.0714
  104OSM      N10534   0.460   4.445  10.773 -0.6810 -0.9317 -0.6500
  104OSM    C1510535   0.520   4.572  10.839 -0.3088  0.3652  0.5551
  104OSM   H15A10536   0.518   4.651  10.766 -1.8227 -1.7474 -1.8704
  104OSM   H15B10537   0.620   4.561  10.879  0.6428  1.7825 -1.2687
  104OSM   H15C10538   0.453   4.600  10.918 -0.7751  0.9310 -0.0360
  104OSM    C1410539   0.449   4.340  10.878 -0.0197 -0.0862  0.1921
  104OSM   H14A10540   0.452   4.240  10.838  2.5920  0.2752 -0.7391
  104OSM   H14B10541   0.377   4.359  10.956 -1.0246  1.7820 -1.0959
  104OSM   H14C10542   0.540   4.346  10.935  0.9506 -0.5038 -1.2493
  104OSM    C1310543   0.318   4.473  10.736  0.2605  0.3845  0.5185
  104OSM   H13A10544   0.312   4.563  10.677  1.2049 -0.4591 -0.9337
  104OSM   H13B10545   0.258   4.477  10.826  0.0160  0.0912  0.3725
  104OSM   H13C10546   0.280   4.382  10.693  0.2226 -0.5652  2.4537
  104OSM    C1210547   0.548   4.392  10.665  0.1628  0.3524  0.2925
  104OSM   H12A10548   0.645   4.380  10.711 -1.5118 -0.8512  3.8836
  104OSM   H12B10549   0.555   4.475  10.596 -0.5150 -0.4402 -0.7670
  104OSM    C1110550   0.493   4.267  10.592 -0.2398  0.8480 -0.0140
  104OSM   H11A10551   0.553   4.266  10.498  1.4063  0.5906  1.0061
  104OSM   H11B10552   0.392   4.277  10.548 -0.6224 -3.1207 -0.4366
  104OSM      P10553   0.639   4.069  10.677 -0.0368  0.1170  0.3289
  104OSM    O1310554   0.748   4.170  10.684 -0.0532 -0.1326 -0.3674
  104OSM    O1410555   0.646   3.956  10.771  0.0463 -0.9048  0.0570
  104OSM    O1110556   0.651   4.005  10.527 -0.0494  0.6042 -0.4615
  104OSM    O1210557   0.496   4.144  10.673  0.1244 -0.5276  0.6848
  104OSM    C1S10558   0.560   3.903  10.492 -0.2580 -0.0483  0.2905
  104OSM    H1S10559   0.460   3.918  10.536 -0.6908 -0.3573 -0.5609
  104OSM    H1T10560   0.594   3.802  10.523 -1.7361 -0.9225 -0.8061
  104OSM     NF10561   0.460   3.786  10.305 -0.0003  0.1968 -0.0718
  104OSM    HNF10562   0.519   3.710  10.278  1.4770 -0.0163  3.2538
  104OSM    C2S10563   0.527   3.910  10.339 -0.5172 -0.1605 -0.2609
  104OSM    H2S10564   0.478   4.007  10.317 -1.9219 -0.8057 -0.0632
  104OSM    C3S10565   0.663   3.918  10.252  0.0516  0.0740  0.4887
  104OSM    H3S10566   0.714   3.820  10.268 -2.5584 -1.2555  1.1885
  104OSM     O310567   0.750   4.021  10.292  0.4351 -0.0190 -0.5554
  104OSM    HO310568   0.733   4.021  10.386 -0.2617 -0.5981 -0.6643
  104OSM    C4S10569   0.624   3.939  10.108  0.0716 -0.0880 -0.4488
  104OSM    H4S10570   0.560   4.026  10.088  1.1500  0.4505 -1.7816
  104OSM    C5S10571   0.664   3.859  10.006 -0.2621  0.1138  0.0727
  104OSM    H5S10572   0.746   3.789  10.030  2.8961  2.3523 -3.1085
  104OSM    C6S10573   0.630   3.864   9.859 -0.3729  0.9059  0.5017
  104OSM    H6S10574   0.527   3.904   9.849 -0.7730 -0.4566 -1.2419
  104OSM    H6T10575   0.620   3.762   9.815 -0.5735  0.9299  0.4919
  104OSM    C7S10576   0.733   3.943   9.772  0.3245 -0.4058 -0.6811
  104OSM    H7S10577   0.835   3.902   9.787 -0.1377 -0.7824  1.8199
  104OSM    H7T10578   0.736   4.049   9.806 -0.2851 -0.8025  0.6717
  104OSM    C8S10579   0.688   3.943   9.626 -0.0341  0.4566 -0.8515
  104OSM    H8S10580   0.586   3.987   9.618 -0.3649 -0.1473 -0.0830
  104OSM    H8T10581   0.687   3.835   9.599  1.8956 -0.1573  1.2885
  104OSM    C9S10582   0.781   4.016   9.532 -0.5313 -0.7664 -0.2333
  104OSM    H9S10583   0.887   4.007   9.561 -0.1188 -1.0048 -1.7540
  104OSM    H9T10584   0.751   4.122   9.547  0.9843 -0.0643 -1.7844
  104OSM   C10S10585   0.767   3.979   9.385  0.4587 -0.3290 -0.8789
  104OSM   H10S10586   0.686   4.040   9.340 -2.1746 -2.7747  0.2548
  104OSM   H10T10587   0.745   3.871   9.379  1.5985 -0.6110 -0.2393
  104OSM   C11S10588   0.892   4.014   9.307  0.2229  0.6642 -0.3544
  104OSM   H11S10589   0.976   3.951   9.345 -1.8994 -0.4523  2.9050
  104OSM   H11T10590   0.932   4.113   9.337 -0.6927  0.2353  2.6215
  104OSM   C12S10591   0.867   3.984   9.159 -0.5295 -0.0960 -0.4733
  104OSM   H12S10592   0.920   4.051   9.088 -0.7604 -0.3895 -0.9311
  104OSM   H12T10593   0.759   4.009   9.146 -0.3849  1.0060  0.3436
  104OSM   C13S10594   0.876   3.832   9.118 -0.3517 -0.4003  0.0716
  104OSM   H13S10595   0.797   3.776   9.172 -0.4636  0.7771  1.1834
  104OSM   H13T10596   0.975   3.795   9.153  0.3551 -0.0574 -1.5096
  104OSM   C14S10597   0.880   3.816   8.968 -0.5224 -0.3626  0.1611
  104OSM   H14S10598   0.896   3.712   8.934 -1.3374 -0.3704 -0.2256
  104OSM   H14T10599   0.967   3.873   8.929 -0.0877 -0.5169  0.8852
  104OSM   C15S10600   0.757   3.886   8.902 -0.0408  0.1711  0.7409
  104OSM   H15S10601   0.745   3.990   8.939  2.6664  0.7878  0.0840
  104OSM   H15T10602   0.662   3.834   8.926 -0.7120  0.7545 -0.5495
  104OSM   C16S10603   0.760   3.903   8.752  0.1862  0.9661  0.8490
  104OSM   H16S10604   0.767   3.804   8.703  0.7091 -0.2957  3.2947
  104OSM   H16T10605   0.855   3.953   8.726  0.7391 -0.6041 -0.3174
  104OSM   C17S10606   0.634   3.984   8.697 -1.1987  0.0990 -1.0001
  104OSM   H17S10607   0.646   4.089   8.732 -0.1297 -0.9906  2.2772
  104OSM   H17T10608   0.543   3.941   8.743  0.2242  1.3754  3.5408
  104OSM   C18S10609   0.643   3.983   8.541  0.4750 -0.3293 -0.0639
  104OSM   H18S10610   0.551   4.030   8.502 -0.8259 -1.5447  1.4120
  104OSM   H18T10611   0.652   3.880   8.499  2.9103  0.7195 -2.3808
  104OSM   H18U10612   0.728   4.040   8.497  0.5159  1.0737  1.7069
  104OSM    C1F10613   0.327   3.784  10.307  0.1541 -0.1149  0.0548
  104OSM     OF10614   0.263   3.881  10.348  0.4327  0.0025  0.1282
  104OSM    C2F10615   0.260   3.662  10.254 -0.2429  0.1438 -0.3695
  104OSM    H2F10616   0.190   3.643  10.338 -0.3418  0.1524 -0.4492
  104OSM    H2G10617   0.342   3.588  10.241  1.5535  1.8453  0.8612
  104OSM    C3F10618   0.180   3.674  10.130 -0.0871 -0.2395  0.1193
  104OSM    H3F10619   0.081   3.721  10.147 -0.5440 -1.1026 -0.0610
  104OSM    H3G10620   0.158   3.571  10.094 -4.2950  0.0928  1.2034
  104OSM    C4F10621   0.256   3.744  10.015 -0.0110  0.0300 -0.2191
  104OSM    H4F10622   0.364   3.723  10.029  1.0890  5.2160  1.5434
  104OSM    H4G10623   0.236   3.854  10.021  0.1330 -0.0274  2.1348
  104OSM    C5F10624   0.203   3.694   9.877  0.3158 -1.0041  0.9591
  104OSM    H5F10625   0.104   3.737   9.852  1.7365  0.6642 -2.5349
  104OSM    H5G10626   0.206   3.584   9.863 -1.5455 -0.9648 -0.0309
  104OSM    C6F10627   0.293   3.742   9.760  0.5176 -0.6035 -0.0260
  104OSM    H6F10628   0.398   3.714   9.782  0.8408 -0.8203 -1.7221
  104OSM    H6G10629   0.280   3.852   9.745 -0.1173 -0.8128 -1.1428
  104OSM    C7F10630   0.264   3.663   9.632  0.5899 -0.5045  0.3730
  104OSM    H7F10631   0.156   3.659   9.605  0.2498 -3.4530  1.8110
  104OSM    H7G10632   0.273   3.554   9.651 -1.2695 -0.2846  3.2075
  104OSM    C8F10633   0.364   3.677   9.517 -0.7003  0.8731  0.0675
  104OSM    H8F10634   0.316   3.617   9.437 -2.1712  2.2338 -0.1166
  104OSM    H8G10635   0.453   3.618   9.547 -1.8531 -1.1064 -0.2411
  104OSM    C9F10636   0.395   3.816   9.483  0.1464  0.0185  0.8187
  104OSM    H9F10637   0.397   3.874   9.577  0.3938 -0.6708  1.2501
  104OSM   C10F10638   0.425   3.878   9.368  0.6087 -0.3157  0.3536
  104OSM   H10F10639   0.448   3.986   9.376 -0.9195  0.1163 -0.5704
  104OSM   C11F10640   0.445   3.812   9.236 -0.1858 -1.2369 -0.5710
  104OSM   H11F10641   0.455   3.702   9.249  1.1516 -1.0054  0.5796
  104OSM   H11G10642   0.548   3.840   9.207 -0.4000  1.4844  1.0273
  104OSM   C12F10643   0.350   3.833   9.117  0.6807 -0.0102 -0.4577
  104OSM   H12F10644   0.250   3.793   9.147  1.4069 -0.1786  1.9224
  104OSM   H12G10645   0.381   3.757   9.042 -0.8494 -0.0946 -1.0493
  104OSM   C13F10646   0.353   3.968   9.051  0.0346  0.3856 -0.8524
  104OSM   H13F10647   0.460   3.996   9.043 -0.0885  0.8138 -1.0322
  104OSM   H13G10648   0.305   4.060   9.091  0.7410  1.1135 -1.6360
  104OSM   C14F10649   0.302   3.956   8.911  0.0780  0.5926  0.2517
  104OSM   H14F10650   0.348   3.876   8.850 -0.8294 -0.7203  1.2115
  104OSM   H14G10651   0.325   4.058   8.875 -0.5041  1.4566  2.1399
  104OSM   C15F10652   0.146   3.942   8.903  0.0137 -0.3222  0.5061
  104OSM   H15F10653   0.100   4.037   8.938  0.6603  0.5131 -0.8103
  104OSM   H15G10654   0.118   3.860   8.973  0.7877 -0.9698  0.0771
  104OSM   C16F10655   0.090   3.907   8.770  0.3133 -0.1980 -0.1460
  104OSM   H16F10656   0.131   3.806   8.746  2.1368  0.1272  1.3600
  104OSM   H16G10657   0.125   3.974   8.688  0.2892 -1.9031 -1.6120
  104OSM   C17F10658  -0.063   3.903   8.756  0.2089 -0.0116 -0.0435
  104OSM   H17F10659  -0.095   4.005   8.786  1.1832 -0.1108  1.4705
  104OSM   H17G10660  -0.105   3.827   8.826 -1.6403  0.9921 -0.0148
  104OSM   C18F10661  -0.097   3.880   8.612 -0.8628  0.3758 -0.3672
  104OSM   H18F10662  -0.207   3.888   8.604 -0.8210  0.8534 -0.5076
  104OSM   H18G10663  -0.070   3.774   8.589 -2.1587 -0.0478 -0.0137
  104OSM   H18H10664  -0.043   3.957   8.553 -1.0066  0.5440 -0.2790
  105OSM      N10665   5.894   5.483  10.984 -0.5861  0.5161 -0.5876
  105OSM    C1510666   5.830   5.464  11.122 -0.0993  0.1017 -0.2590
  105OSM   H15A10667   5.732   5.509  11.120 -0.2529 -0.2040  0.3408
  105OSM   H15B10668   5.900   5.505  11.194  0.6544 -1.1099 -0.2652
  105OSM   H15C10669   5.820   5.360  11.147 -0.4168 -0.1037 -1.1877
  105OSM    C1410670   6.034   5.429  10.991  0.4653  0.4885  0.0933
  105OSM   H14A10671   6.090   5.441  10.899  1.1983  2.2411  0.7314
  105OSM   H14B10672   6.029   5.321  11.004  2.7997 -0.0066 -2.2632
  105OSM   H14C10673   6.088   5.472  11.073 -2.2348  2.2931  1.0656
  105OSM    C1310674   5.807   5.407  10.883 -0.1041 -0.7451 -0.8564
  105OSM   H13A10675   5.714   5.460  10.866  0.2040  0.7486  1.6769
  105OSM   H13B10676   5.796   5.304  10.914 -0.0667 -0.1284  1.3256
  105OSM   H13C10677   5.848   5.408  10.783  0.8618  0.4096 -0.4732
  105OSM    C1210678   5.898   5.635  10.952  0.3032 -0.1138 -0.1600
  105OSM   H12A10679   5.947   5.687  11.033 -0.8997  0.9751 -0.1028
  105OSM   H12B10680   5.799   5.677  10.948  0.8811  1.2400 -0.7967
  105OSM    C1110681   5.959   5.677  10.815  0.0106  0.1812 -0.4556
  105OSM   H11A10682   5.961   5.788  10.822  1.3352  0.0693  1.8280
  105OSM   H11B10683   5.888   5.658  10.732 -0.8717 -1.8929  0.6946
  105OSM      P10684   6.130   5.538  10.663  0.0329  0.2786  0.2776
  105OSM    O1310685   6.277   5.554  10.633  0.2216  0.7340 -0.0014
  105OSM    O1410686   6.084   5.399  10.683  0.5024  0.6592  0.5604
  105OSM    O1110687   6.041   5.608  10.555  0.0788 -0.0736 -0.0792
  105OSM    O1210688   6.093   5.627  10.792  0.0760 -0.4801 -0.5584
  105OSM    C1S10689   6.041   5.572  10.417  0.8078  0.1511  0.2101
  105OSM    H1S10690   5.973   5.484  10.411  0.6381  0.2034  1.1494
  105OSM    H1T10691   6.140   5.533  10.386 -0.1366 -1.1795 -1.2945
  105OSM     NF10692   5.981   5.648  10.196 -0.5577 -0.5491  0.0261
  105OSM    HNF10693   6.064   5.657  10.141 -0.6250 -0.8564 -0.1250
  105OSM    C2S10694   6.002   5.694  10.333 -0.4384  0.0429  0.5093
  105OSM    H2S10695   5.905   5.738  10.365 -0.1510  1.1387 -0.0861
  105OSM    C3S10696   6.120   5.799  10.345 -0.4387 -0.0814  0.3445
  105OSM    H3S10697   6.216   5.750  10.317  0.6614 -0.0361  3.5709
  105OSM     O310698   6.136   5.856  10.480 -0.0401 -0.3329  0.0641
  105OSM    HO310699   6.090   5.793  10.537 -0.2611  1.7463  2.3524
  105OSM    C4S10700   6.085   5.908  10.251  0.6493  0.6129  0.3557
  105OSM    H4S10701   6.131   5.902  10.151  0.3451  1.4883  0.1655
  105OSM    C5S10702   6.011   6.019  10.280  0.0550  0.1464  1.0652
  105OSM    H5S10703   5.977   6.034  10.383  0.8643 -2.0706  1.7048
  105OSM    C6S10704   5.968   6.113  10.172  0.0812  0.4586  0.0152
  105OSM    H6S10705   6.001   6.217  10.193  1.7030 -0.2326  1.0305
  105OSM    H6T10706   5.859   6.096  10.157  0.1556  0.8689 -1.1329
  105OSM    C7S10707   6.010   6.082  10.028  0.2908 -0.5152 -0.0308
  105OSM    H7S10708   5.966   5.985   9.999 -1.1769  0.7080 -2.1447
  105OSM    H7T10709   6.120   6.073  10.018  0.4924  2.5520 -1.9425
  105OSM    C8S10710   5.976   6.182   9.917  0.2346  0.3592  0.2991
  105OSM    H8S10711   6.041   6.272   9.916 -1.6350  1.7912  1.1801
  105OSM    H8T10712   5.873   6.218   9.936  0.2482 -0.3349  1.7868
  105OSM    C9S10713   5.990   6.123   9.773 -0.4554  0.0141 -0.3679
  105OSM    H9S10714   5.936   6.026   9.770 -0.0340 -0.4602  2.9873
  105OSM    H9T10715   6.094   6.084   9.769 -0.7591 -0.9671  0.6787
  105OSM   C10S10716   5.967   6.212   9.659 -0.3995 -0.2799 -0.9100
  105OSM   H10S10717   6.033   6.301   9.667  1.2745 -1.5365  0.0588
  105OSM   H10T10718   5.864   6.252   9.666 -0.1829  0.4174 -1.5785
  105OSM   C11S10719   5.992   6.141   9.525  0.1087  0.0928  0.2569
  105OSM   H11S10720   5.921   6.056   9.528  1.0652 -0.7749 -0.6587
  105OSM   H11T10721   6.091   6.090   9.524  0.4979  0.8322 -0.4785
  105OSM   C12S10722   5.967   6.224   9.398 -0.0212 -0.0082  0.1725
  105OSM   H12S10723   6.012   6.325   9.407 -0.9640  0.6148 -1.5324
  105OSM   H12T10724   5.859   6.241   9.377  0.3902 -0.6902 -3.0805
  105OSM   C13S10725   6.015   6.151   9.271  0.0903  0.4621 -0.1442
  105OSM   H13S10726   5.968   6.050   9.270  0.7082  0.1538  0.5910
  105OSM   H13T10727   6.125   6.143   9.285  0.4252  4.3455  0.4792
  105OSM   C14S10728   5.982   6.223   9.139 -0.2356  0.1288  0.3730
  105OSM   H14S10729   6.021   6.327   9.149  0.1209  0.2870 -2.0388
  105OSM   H14T10730   5.872   6.227   9.131 -0.1944  1.5055  0.1860
  105OSM   C15S10731   6.055   6.166   9.022  0.3923 -0.1465  0.4305
  105OSM   H15S10732   5.987   6.088   8.980 -0.0503 -0.8654  2.3990
  105OSM   H15T10733   6.154   6.120   9.043 -0.0666 -3.0678 -2.8888
  105OSM   C16S10734   6.053   6.266   8.900 -0.0222 -0.0238 -0.1690
  105OSM   H16S10735   6.096   6.359   8.943  3.5512 -0.8553 -1.5865
  105OSM   H16T10736   5.947   6.280   8.870 -0.4524 -1.1947  0.7213
  105OSM   C17S10737   6.135   6.216   8.780 -0.2452 -0.5794 -0.4573
  105OSM   H17S10738   6.238   6.191   8.814 -0.1081  0.5041 -0.0398
  105OSM   H17T10739   6.149   6.294   8.702 -1.0534  0.6357  0.5825
  105OSM   C18S10740   6.080   6.091   8.709  0.9234  0.0945  0.2492
  105OSM   H18S10741   6.089   5.999   8.771  2.8177  0.0000 -0.1032
  105OSM   H18T10742   6.133   6.074   8.613 -0.9681  2.2972 -1.3158
  105OSM   H18U10743   5.972   6.105   8.686  0.8781 -0.7649 -0.1049
  105OSM    C1F10744   5.888   5.561  10.159 -0.6058 -0.6496 -0.0528
  105OSM     OF10745   5.795   5.539  10.234 -0.2690  0.1090  0.2765
  105OSM    C2F10746   5.893   5.496  10.024 -0.1671  0.6923 -0.0886
  105OSM    H2F10747   5.936   5.568   9.951  1.9566  1.6100  1.9201
  105OSM    H2G10748   5.791   5.473   9.988  1.0544 -1.1560 -2.7497
  105OSM    C3F10749   5.967   5.358  10.046 -0.7862  0.3995 -0.5270
  105OSM    H3F10750   5.910   5.304  10.126 -1.0176  1.7287  0.2448
  105OSM    H3G10751   6.071   5.351  10.083 -0.7715 -0.7669 -0.7667
  105OSM    C4F10752   5.958   5.269   9.926 -0.2864 -0.2098 -1.1262
  105OSM    H4F10753   5.853   5.238   9.907  0.0555 -3.2709  1.1198
  105OSM    H4G10754   6.010   5.171   9.941  0.1971  0.3232  0.9799
  105OSM    C5F10755   6.027   5.328   9.798  0.9469 -0.1837  0.2756
  105OSM    H5F10756   6.137   5.310   9.797  1.0191  0.2729 -0.7704
  105OSM    H5G10757   6.000   5.436   9.794 -1.4502 -0.7869 -2.2584
  105OSM    C6F10758   5.975   5.259   9.670 -0.1158 -0.9081  0.5319
  105OSM    H6F10759   5.868   5.272   9.642 -0.3016 -0.5694  1.3676
  105OSM    H6G10760   5.972   5.151   9.699  0.2808 -1.3638 -1.0565
  105OSM    C7F10761   6.062   5.283   9.548 -0.2790 -0.0771  0.4066
  105OSM    H7F10762   6.167   5.248   9.558  0.4253  1.4216 -1.1820
  105OSM    H7G10763   6.068   5.392   9.526 -0.3988  0.0174  0.8311
  105OSM    C8F10764   6.014   5.212   9.421  1.0180 -0.4925 -0.3166
  105OSM    H8F10765   5.905   5.226   9.436  1.3750  3.2827 -0.4970
  105OSM    H8G10766   6.032   5.102   9.422  2.2051 -0.3108  0.9226
  105OSM    C9F10767   6.070   5.280   9.296 -0.0195 -0.5226 -0.7209
  105OSM    H9F10768   6.005   5.366   9.274 -0.3006  0.2885  2.7013
  105OSM   C10F10769   6.156   5.234   9.211  0.1719 -0.5676  0.2155
  105OSM   H10F10770   6.179   5.286   9.118 -2.4429  3.2988  1.4979
  105OSM   C11F10771   6.232   5.105   9.218 -0.2498 -0.4430 -0.3285
  105OSM   H11F10772   6.217   5.057   9.317 -1.3215  2.0250  0.8071
  105OSM   H11G10773   6.341   5.122   9.205 -0.0578 -0.6266  0.9559
  105OSM   C12F10774   6.190   5.004   9.107  0.0672 -0.4443  0.3312
  105OSM   H12F10775   6.263   4.920   9.108  2.0790  1.1422 -1.4628
  105OSM   H12G10776   6.212   5.058   9.012  1.6932  1.8241  1.8828
  105OSM   C13F10777   6.047   4.956   9.119  0.0066 -0.2423  0.2707
  105OSM   H13F10778   5.977   5.040   9.099 -1.1356 -1.0979  0.5951
  105OSM   H13G10779   6.018   4.921   9.220 -1.4857  0.1885  0.0097
  105OSM   C14F10780   6.027   4.843   9.017 -0.1281 -0.3885  0.2880
  105OSM   H14F10781   6.088   4.753   9.040  0.2949 -0.0947  0.3307
  105OSM   H14G10782   6.071   4.880   8.922 -3.4757 -3.0758 -2.5585
  105OSM   C15F10783   5.880   4.802   9.006 -0.3450 -1.2386  0.1071
  105OSM   H15F10784   5.823   4.891   8.973  0.9338 -0.6343 -0.5548
  105OSM   H15G10785   5.827   4.765   9.097 -1.7890  1.8338  0.6296
  105OSM   C16F10786   5.863   4.710   8.882 -0.0141  0.3380  0.3427
  105OSM   H16F10787   5.945   4.635   8.886  1.4021  1.7599 -0.6912
  105OSM   H16G10788   5.884   4.771   8.792  1.3698 -1.0084 -0.2956
  105OSM   C17F10789   5.723   4.657   8.868  0.0154  0.8684  0.1107
  105OSM   H17F10790   5.648   4.738   8.883  2.0204  3.0013 -0.7221
  105OSM   H17G10791   5.695   4.577   8.940 -0.8085  0.7944 -0.2763
  105OSM   C18F10792   5.715   4.588   8.733  0.0642 -0.0671  0.5960
  105OSM   H18F10793   5.614   4.552   8.704  0.2583  0.3287 -0.6162
  105OSM   H18G10794   5.791   4.507   8.722 -0.0925  0.1472 -3.0776
  105OSM   H18H10795   5.729   4.661   8.651  0.6742  0.7104  1.3656
  106OSM      N10796   5.509   2.298  11.028  0.4019 -0.1874  0.1571
  106OSM    C1510797   5.587   2.343  11.147  0.2880  0.2403  0.3182
  106OSM   H15A10798   5.650   2.261  11.180  0.4160  0.2102  0.0076
  106OSM   H15B10799   5.527   2.377  11.230  1.3824 -0.3095  1.3697
  106OSM   H15C10800   5.649   2.426  11.115  0.7415 -0.5137 -0.8516
  106OSM    C1410801   5.596   2.218  10.941 -0.0258 -0.0400  0.7962
  106OSM   H14A10802   5.623   2.126  10.990  1.5165  0.1251  0.3089
  106OSM   H14B10803   5.682   2.278  10.915 -1.4336  0.6815 -2.8075
  106OSM   H14C10804   5.550   2.189  10.848  1.5646  0.5844 -0.2295
  106OSM    C1310805   5.404   2.205  11.083 -0.6029  0.1318  0.5135
  106OSM   H13A10806   5.346   2.254  11.160 -1.2318 -0.3391  0.3413
  106OSM   H13B10807   5.453   2.120  11.129 -0.6607  0.3718  1.0322
  106OSM   H13C10808   5.343   2.167  11.003 -0.6700  3.0727 -0.9741
  106OSM    C1210809   5.437   2.409  10.958 -0.9777  1.5738 -0.5379
  106OSM   H12A10810   5.398   2.475  11.034 -0.0123  0.6902  0.7774
  106OSM   H12B10811   5.356   2.365  10.902 -2.2773  0.1872  2.2585
  106OSM    C1110812   5.533   2.498  10.872 -0.3620  0.7918  0.2040
  106OSM   H11A10813   5.466   2.572  10.822 -1.1782 -0.7154 -1.0237
  106OSM   H11B10814   5.588   2.448  10.790  2.0411 -2.2912  3.4230
  106OSM      P10815   5.768   2.624  10.922  0.2346 -0.0652 -0.4117
  106OSM    O1310816   5.803   2.736  11.011 -0.0958  0.0645 -0.0569
  106OSM    O1410817   5.864   2.508  10.925  0.2871 -0.0318 -0.2370
  106OSM    O1110818   5.749   2.689  10.776 -0.4618 -0.7673 -0.5182
  106OSM    O1210819   5.623   2.567  10.957  1.3095 -0.0376  0.2423
  106OSM    C1S10820   5.837   2.693  10.660  0.2847  0.4457 -0.5789
  106OSM    H1S10821   5.913   2.613  10.676  0.4323  0.5672 -0.6698
  106OSM    H1T10822   5.890   2.790  10.667  0.5633  0.1915  2.4866
  106OSM     NF10823   5.871   2.674  10.429 -0.5086 -0.0472  0.1447
  106OSM    HNF10824   5.916   2.760  10.406 -1.7405  0.7315  0.5531
  106OSM    C2S10825   5.763   2.679  10.524 -0.2397 -0.3770 -0.5459
  106OSM    H2S10826   5.713   2.581  10.512 -1.2843  0.3758 -2.8309
  106OSM    C3S10827   5.655   2.785  10.514 -0.0169  0.5501  0.2373
  106OSM    H3S10828   5.702   2.885  10.526 -0.5990  0.7972  0.4816
  106OSM     O310829   5.557   2.773  10.620  0.2462  0.4235 -0.0857
  106OSM    HO310830   5.614   2.744  10.692  1.7360  2.0487 -0.5436
  106OSM    C4S10831   5.588   2.759  10.384  0.0270  0.1844  0.7068
  106OSM    H4S10832   5.517   2.675  10.389 -1.1722  1.2653  3.6717
  106OSM    C5S10833   5.610   2.803  10.257  0.4558 -0.1600  0.2909
  106OSM    H5S10834   5.681   2.884  10.231 -0.8432  0.5724 -1.1074
  106OSM    C6S10835   5.534   2.750  10.141  0.4367  0.1085 -0.1465
  106OSM    H6S10836   5.464   2.831  10.112 -2.1902 -1.1693  2.1139
  106OSM    H6T10837   5.474   2.666  10.182 -0.8160  0.5173 -1.0883
  106OSM    C7S10838   5.615   2.712  10.019  0.1380  0.0390 -0.9485
  106OSM    H7S10839   5.687   2.635  10.052 -1.0157 -0.5717  0.2634
  106OSM    H7T10840   5.664   2.801   9.973 -3.4826  1.5023 -2.3916
  106OSM    C8S10841   5.514   2.663   9.909  0.1922  0.2887 -0.3476
  106OSM    H8S10842   5.440   2.742   9.888  0.7021  0.6409 -0.8403
  106OSM    H8T10843   5.461   2.570   9.938  1.7774 -0.3875  0.5387
  106OSM    C9S10844   5.580   2.638   9.774 -0.7646 -0.4688 -0.3499
  106OSM    H9S10845   5.520   2.579   9.701 -0.0721 -0.4395 -0.9575
  106OSM    H9T10846   5.677   2.585   9.788 -1.8641 -2.9416 -1.5676
  106OSM   C10S10847   5.632   2.765   9.694 -0.5505 -0.1777 -0.1797
  106OSM   H10S10848   5.687   2.734   9.603 -0.1222 -0.1986  0.0827
  106OSM   H10T10849   5.704   2.821   9.758 -0.6411 -1.4767  1.0990
  106OSM   C11S10850   5.519   2.866   9.654  0.8806  0.0883 -0.5158
  106OSM   H11S10851   5.477   2.921   9.741  1.9373 -0.2498  0.2368
  106OSM   H11T10852   5.445   2.803   9.599  0.8513  1.1071 -1.6821
  106OSM   C12S10853   5.572   2.969   9.551  0.0646 -0.6282 -0.5264
  106OSM   H12S10854   5.610   2.918   9.460 -1.6017  0.9038 -2.1702
  106OSM   H12T10855   5.654   3.032   9.592 -1.0114  0.3980  0.0935
  106OSM   C13S10856   5.456   3.062   9.490  0.1289 -0.7054  0.1539
  106OSM   H13S10857   5.418   3.143   9.556 -0.8404 -1.5737  0.6967
  106OSM   H13T10858   5.375   2.991   9.463  0.6359 -1.0061 -0.6500
  106OSM   C14S10859   5.498   3.155   9.373  0.5882  0.1971  0.0595
  106OSM   H14S10860   5.571   3.225   9.419  0.1650  1.1687 -0.7131
  106OSM   H14T10861   5.419   3.227   9.343  0.0855 -0.6258 -0.6487
  106OSM   C15S10862   5.559   3.081   9.245  0.6381  0.2683  0.3079
  106OSM   H15S10863   5.643   3.016   9.276  0.5668  0.4653  0.9396
  106OSM   H15T10864   5.585   3.160   9.172  1.6083 -0.2131  0.1248
  106OSM   C16S10865   5.458   2.982   9.178  0.3907 -0.1798  0.4420
  106OSM   H16S10866   5.382   3.051   9.136  1.6118  0.3948 -0.9283
  106OSM   H16T10867   5.407   2.921   9.256 -1.1441 -0.9228 -1.0898
  106OSM   C17S10868   5.518   2.910   9.054 -0.6029  0.2259 -0.3833
  106OSM   H17S10869   5.600   2.845   9.093 -1.0031 -0.1641 -0.1829
  106OSM   H17T10870   5.558   2.989   8.986  0.6757  1.6490  1.9112
  106OSM   C18S10871   5.415   2.830   8.979 -0.4694  0.6278  0.2685
  106OSM   H18S10872   5.352   2.758   9.035 -2.3548  1.3703 -0.7885
  106OSM   H18T10873   5.474   2.775   8.902 -1.6577  0.1303 -0.3233
  106OSM   H18U10874   5.345   2.884   8.911 -0.4003  0.4483  0.0550
  106OSM    C1F10875   5.957   2.573  10.421  0.4758  0.9546  0.8074
  106OSM     OF10876   5.918   2.467  10.470 -0.0375  0.1913 -0.2551
  106OSM    C2F10877   6.087   2.585  10.343  0.4794 -0.4156 -0.0191
  106OSM    H2F10878   6.138   2.487  10.357 -0.1231 -0.6915  0.2597
  106OSM    H2G10879   6.145   2.661  10.400 -5.6360  3.4689  2.0370
  106OSM    C3F10880   6.068   2.600  10.188 -0.8760 -0.9895 -0.1595
  106OSM    H3F10881   6.166   2.599  10.136 -1.1680 -1.2019 -0.7140
  106OSM    H3G10882   6.021   2.699  10.168  0.0538 -0.3958  0.5289
  106OSM    C4F10883   5.968   2.508  10.121 -0.2784  0.2404  0.2019
  106OSM    H4F10884   5.872   2.517  10.176 -0.2734  0.5166  0.1673
  106OSM    H4G10885   6.012   2.408  10.140  0.2052  0.2018 -1.0249
  106OSM    C5F10886   5.938   2.528   9.969  0.6634  0.4733 -0.6530
  106OSM    H5F10887   5.878   2.620   9.956 -0.2421  0.2088  1.3602
  106OSM    H5G10888   5.876   2.445   9.929  0.2615  0.8334 -0.7849
  106OSM    C6F10889   6.072   2.538   9.888 -0.3333  0.6249  0.2125
  106OSM    H6F10890   6.139   2.470   9.945  0.0458  0.6042 -0.2517
  106OSM    H6G10891   6.119   2.638   9.888 -1.5158  1.1905  0.4167
  106OSM    C7F10892   6.051   2.493   9.743  0.0859  0.4388 -0.0592
  106OSM    H7F10893   5.961   2.544   9.703 -1.6079 -1.0082  1.7124
  106OSM    H7G10894   6.024   2.385   9.747 -1.9511  0.8854 -0.8446
  106OSM    C8F10895   6.175   2.520   9.658  0.4189  0.3510 -0.8684
  106OSM    H8F10896   6.265   2.467   9.694  1.2399  1.4454 -1.2458
  106OSM    H8G10897   6.189   2.630   9.654 -0.7133  0.4886 -1.4825
  106OSM    C9F10898   6.159   2.466   9.517  0.1156  0.6302 -1.0924
  106OSM    H9F10899   6.203   2.366   9.503  1.9027  0.9172  1.7238
  106OSM   C10F10900   6.081   2.517   9.420 -0.1910  0.5266 -0.0138
  106OSM   H10F10901   6.073   2.449   9.334 -1.6491 -1.4081  1.5474
  106OSM   C11F10902   5.992   2.638   9.421 -0.2042 -0.2036 -0.3336
  106OSM   H11F10903   5.993   2.685   9.522 -0.2205 -0.0994 -0.3831
  106OSM   H11G10904   5.888   2.611   9.392  0.1304  0.2217 -1.9793
  106OSM   C12F10905   6.040   2.744   9.317  0.1378 -0.3186  0.5970
  106OSM   H12F10906   6.032   2.704   9.214 -2.2893  1.7028 -0.1021
  106OSM   H12G10907   6.148   2.767   9.326  1.0395 -3.4622 -0.8346
  106OSM   C13F10908   5.957   2.866   9.328 -0.2234  0.1833  0.0053
  106OSM   H13F10909   5.960   2.913   9.428 -0.8195  1.4763 -0.5581
  106OSM   H13G10910   5.855   2.834   9.298  0.4567 -1.4852 -0.6711
  106OSM   C14F10911   6.015   2.979   9.230 -0.1486 -0.3066 -0.2431
  106OSM   H14F10912   6.113   3.010   9.271 -0.2444  1.1586 -1.0416
  106OSM   H14G10913   5.956   3.073   9.230 -0.3312 -0.3722 -2.0455
  106OSM   C15F10914   6.040   2.945   9.085  0.1851  0.1693 -1.1743
  106OSM   H15F10915   6.119   2.869   9.071  0.2091  0.4575 -2.8026
  106OSM   H15G10916   6.091   3.034   9.041  1.0516 -0.1101 -0.7415
  106OSM   C16F10917   5.915   2.909   9.004 -0.0695 -0.5642 -0.3132
  106OSM   H16F10918   5.844   2.992   9.025 -0.4142 -1.5118  2.7074
  106OSM   H16G10919   5.860   2.819   9.039 -0.0678  0.4546  2.6110
  106OSM   C17F10920   5.939   2.919   8.854 -0.0843 -0.1003  0.0533
  106OSM   H17F10921   5.962   3.025   8.828 -0.4706  0.0732  0.3996
  106OSM   H17G10922   5.842   2.901   8.802 -0.4663  0.7717  0.4503
  106OSM   C18F10923   6.049   2.836   8.798 -0.3503 -0.3264  0.1425
  106OSM   H18F10924   6.149   2.872   8.829 -0.5976 -0.4068  1.0385
  106OSM   H18G10925   6.039   2.838   8.687 -3.3436 -1.3312  0.2907
  106OSM   H18H10926   6.040   2.732   8.836  0.5125  0.0380  1.3827
  107OSM      N10927   1.564   6.779  11.019 -0.2038  0.2621 -0.4976
  107OSM    C1510928   1.672   6.818  11.118 -0.2081 -0.3854 -0.0312
  107OSM   H15A10929   1.756   6.836  11.053  0.9011 -1.9373  0.9063
  107OSM   H15B10930   1.700   6.734  11.181  2.4154  1.8952  2.1002
  107OSM   H15C10931   1.648   6.900  11.183  1.5836  1.0485 -1.0950
  107OSM    C1410932   1.610   6.655  10.949  0.0094  0.4515 -0.0149
  107OSM   H14A10933   1.535   6.610  10.885 -1.1882  2.0918  0.1632
  107OSM   H14B10934   1.628   6.580  11.025  1.9989  1.3162  0.4453
  107OSM   H14C10935   1.701   6.670  10.892  0.5014 -0.0016  0.6321
  107OSM    C1310936   1.436   6.744  11.097  1.0584  0.0088  0.3138
  107OSM   H13A10937   1.394   6.827  11.153 -0.6072 -0.3801 -0.2743
  107OSM   H13B10938   1.467   6.661  11.159  1.3289 -0.5716 -0.5774
  107OSM   H13C10939   1.356   6.699  11.040  0.4117 -1.7997  2.5426
  107OSM    C1210940   1.544   6.889  10.919 -0.3964 -0.2148 -0.3129
  107OSM   H12A10941   1.526   6.977  10.980 -0.2150  0.1840 -0.8351
  107OSM   H12B10942   1.463   6.877  10.849  1.3122  3.3803 -3.2301
  107OSM    C1110943   1.671   6.937  10.833  0.8555 -0.0219 -0.0101
  107OSM   H11A10944   1.629   7.005  10.755 -1.3365 -0.6401  0.5472
  107OSM   H11B10945   1.713   6.857  10.767  1.0391  0.4081 -0.4189
  107OSM      P10946   1.904   7.045  10.859  0.1760 -0.1650  0.2557
  107OSM    O1310947   1.944   7.171  10.924  0.1371 -0.2581 -0.9910
  107OSM    O1410948   2.009   6.937  10.867  0.0483 -0.2528  0.2292
  107OSM    O1110949   1.866   7.078  10.701  0.3199 -0.0852 -0.9227
  107OSM    O1210950   1.768   6.992  10.920 -0.4315 -0.3161 -0.1439
  107OSM    C1S10951   1.931   7.000  10.605  0.6753 -0.4814  0.0604
  107OSM    H1S10952   1.883   6.900  10.599 -0.4492  0.0908 -1.1920
  107OSM    H1T10953   2.041   6.995  10.616  0.8478 -1.9590 -1.7217
  107OSM     NF10954   1.959   6.970  10.366 -0.0862  1.1446  0.3530
  107OSM    HNF10955   2.046   7.002  10.329  0.6432 -0.5129  0.5324
  107OSM    C2S10956   1.902   7.059  10.464 -0.3725 -0.0810  0.1620
  107OSM    H2S10957   1.794   7.066  10.440  0.2753  0.0703 -3.3274
  107OSM    C3S10958   1.958   7.208  10.456 -0.6877  0.0956  0.0997
  107OSM    H3S10959   2.061   7.201  10.497 -0.6723  0.3331  0.1053
  107OSM     O310960   1.889   7.299  10.540 -0.5507  0.3942  0.3839
  107OSM    HO310961   1.827   7.243  10.587 -1.0391  0.3605 -0.2900
  107OSM    C4S10962   1.968   7.253  10.311  0.9183  0.0417  0.1398
  107OSM    H4S10963   2.058   7.219  10.258  1.2536  1.3329 -0.1456
  107OSM    C5S10964   1.859   7.305  10.243 -0.7360  0.4819 -0.3005
  107OSM    H5S10965   1.758   7.315  10.286 -0.7603  2.4241 -0.7354
  107OSM    C6S10966   1.869   7.345  10.099 -0.4958 -0.0711  0.5531
  107OSM    H6S10967   1.966   7.315  10.053 -0.7407 -0.2581  0.1491
  107OSM    H6T10968   1.866   7.455  10.107  1.4011  0.0826 -0.1813
  107OSM    C7S10969   1.762   7.274  10.007 -0.2079 -0.5463 -0.3720
  107OSM    H7S10970   1.771   7.321   9.907  0.1526  1.0064  0.3670
  107OSM    H7T10971   1.660   7.280  10.051  0.1860  1.7509  0.3626
  107OSM    C8S10972   1.805   7.126   9.991 -0.6309  0.0681 -0.6946
  107OSM    H8S10973   1.795   7.083  10.094 -0.2564 -0.3663 -0.8347
  107OSM    H8T10974   1.911   7.117   9.960 -0.7624 -0.4208 -1.0198
  107OSM    C9S10975   1.710   7.057   9.894  0.7642  0.3515 -0.7730
  107OSM    H9S10976   1.731   7.087   9.789  0.4085  4.8625  0.2196
  107OSM    H9T10977   1.606   7.088   9.915  1.5292  2.1183  0.6995
  107OSM   C10S10978   1.737   6.904   9.908 -0.1524  0.3610 -0.7590
  107OSM   H10S10979   1.688   6.884  10.006 -0.2407 -1.8005 -1.2120
  107OSM   H10T10980   1.842   6.871   9.926 -1.0293 -1.7919  0.8803
  107OSM   C11S10981   1.653   6.814   9.811  0.4293  0.7596  0.3501
  107OSM   H11S10982   1.549   6.853   9.802  1.5154  3.5124 -1.4144
  107OSM   H11T10983   1.644   6.709   9.848 -0.8111  0.4237 -0.8299
  107OSM   C12S10984   1.713   6.807   9.664 -0.7624  0.6769  0.7273
  107OSM   H12S10985   1.808   6.749   9.669 -0.0265  1.8741  1.2009
  107OSM   H12T10986   1.755   6.908   9.640  2.4896 -0.6802  0.1854
  107OSM   C13S10987   1.603   6.757   9.564  0.0594 -0.2587  0.2927
  107OSM   H13S10988   1.511   6.818   9.580  0.7471  1.7283 -2.5882
  107OSM   H13T10989   1.591   6.650   9.590  0.2392 -0.6399 -1.1247
  107OSM   C14S10990   1.646   6.769   9.422 -0.0126  0.2330 -0.4556
  107OSM   H14S10991   1.676   6.875   9.410  0.7478  0.4155  2.4095
  107OSM   H14T10992   1.559   6.744   9.357  0.1621 -0.7966 -0.3089
  107OSM   C15S10993   1.758   6.679   9.361  0.4889 -0.2947  0.0977
  107OSM   H15S10994   1.744   6.574   9.396  1.4739 -0.3156  0.4458
  107OSM   H15T10995   1.858   6.708   9.397  0.3163  0.7747 -0.2693
  107OSM   C16S10996   1.757   6.675   9.211 -0.3522 -0.8724  0.5468
  107OSM   H16S10997   1.655   6.664   9.169  0.4647  1.1091 -2.2235
  107OSM   H16T10998   1.817   6.588   9.173 -0.2057 -0.2750 -0.6530
  107OSM   C17S10999   1.824   6.801   9.154 -0.7587 -0.0071  0.0982
  107OSM   H17S11000   1.883   6.770   9.064 -2.7048  0.1861 -1.3073
  107OSM   H17T11001   1.897   6.845   9.226 -0.5404  0.0292 -0.1415
  107OSM   C18S11002   1.720   6.900   9.099  0.2885 -0.6689 -0.2298
  107OSM   H18S11003   1.636   6.918   9.169 -1.3354  0.5353 -2.3655
  107OSM   H18T11004   1.654   6.857   9.021  0.7145 -1.2499 -0.2737
  107OSM   H18U11005   1.768   6.994   9.066 -1.4531 -0.2600 -1.7135
  107OSM    C1F11006   1.898   6.861  10.332  0.3415  0.4210 -0.0173
  107OSM     OF11007   1.800   6.816  10.391 -0.5192  0.2216  0.5333
  107OSM    C2F11008   1.960   6.786  10.212  0.7582  0.1674  0.3499
  107OSM    H2F11009   2.061   6.757  10.249 -0.1241  0.4003  3.1335
  107OSM    H2G11010   1.971   6.849  10.121 -0.2370 -1.7830 -1.2133
  107OSM    C3F11011   1.877   6.666  10.156 -0.5302 -0.3566 -0.7539
  107OSM    H3F11012   1.787   6.716  10.114  0.6727  2.7327  0.0249
  107OSM    H3G11013   1.847   6.603  10.242 -2.5718  0.2610 -0.9646
  107OSM    C4F11014   1.951   6.601  10.041  0.0812 -0.1772 -0.3531
  107OSM    H4F11015   2.041   6.554  10.085 -0.3721 -1.0311 -0.3104
  107OSM    H4G11016   1.970   6.669   9.955  2.2473  0.0174  0.2423
  107OSM    C5F11017   1.870   6.480   9.991  0.6541  0.2501  0.3611
  107OSM    H5F11018   1.907   6.451   9.891  0.9286 -1.4888  0.9248
  107OSM    H5G11019   1.760   6.497   9.989  0.5683 -0.1042  1.3305
  107OSM    C6F11020   1.863   6.355  10.075  0.1714  0.6303 -0.3910
  107OSM    H6F11021   1.816   6.384  10.172  1.7062 -2.5683  1.4426
  107OSM    H6G11022   1.964   6.332  10.113 -0.1244 -0.4554 -0.2279
  107OSM    C7F11023   1.787   6.227  10.021  0.0471  0.3488  0.2804
  107OSM    H7F11024   1.682   6.251   9.990 -0.4918 -1.0878  0.9256
  107OSM    H7G11025   1.787   6.158  10.107 -0.7387  3.2160  2.7501
  107OSM    C8F11026   1.867   6.168   9.903  0.3863  0.9327 -0.3324
  107OSM    H8F11027   1.966   6.136   9.941  0.1240 -1.6892 -1.6476
  107OSM    H8G11028   1.875   6.246   9.824  1.6658 -1.6151 -2.8725
  107OSM    C9F11029   1.798   6.054   9.840 -0.0459  0.5137  0.5017
  107OSM    H9F11030   1.778   5.971   9.911 -2.6048  1.2795  0.7855
  107OSM   C10F11031   1.753   6.044   9.717 -1.1169  0.2888 -0.4976
  107OSM   H10F11032   1.715   5.944   9.690  0.5554 -0.8138  1.0003
  107OSM   C11F11033   1.752   6.149   9.616  0.4180 -0.3088 -0.2907
  107OSM   H11F11034   1.848   6.205   9.617 -1.3658  2.9833 -0.4117
  107OSM   H11G11035   1.685   6.233   9.644  0.4039 -0.3396 -0.2305
  107OSM   C12F11036   1.720   6.114   9.473  0.5298 -0.0331 -0.8237
  107OSM   H12F11037   1.630   6.048   9.480  0.9515 -0.4242  2.2268
  107OSM   H12G11038   1.797   6.041   9.440  2.2323  0.7379  1.2461
  107OSM   C13F11039   1.686   6.235   9.378 -0.5949 -0.5608 -0.1219
  107OSM   H13F11040   1.762   6.311   9.403 -0.5826 -0.9843  1.1915
  107OSM   H13G11041   1.587   6.271   9.413 -1.5791 -2.7310 -0.4738
  107OSM   C14F11042   1.679   6.204   9.230  0.6396 -0.3190 -0.2560
  107OSM   H14F11043   1.769   6.146   9.202 -0.0382 -0.9961 -1.0801
  107OSM   H14G11044   1.669   6.299   9.172  0.2512 -0.1855  0.0214
  107OSM   C15F11045   1.559   6.117   9.209  0.7131 -0.0328 -0.1667
  107OSM   H15F11046   1.479   6.150   9.278  1.1701 -1.4214  1.0616
  107OSM   H15G11047   1.591   6.017   9.245  2.1012  0.5046  0.1338
  107OSM   C16F11048   1.515   6.098   9.062 -0.0031  0.3524  0.3270
  107OSM   H16F11049   1.518   6.185   8.993 -0.1299  1.7944  2.0497
  107OSM   H16G11050   1.411   6.060   9.073 -0.4840  1.6113  0.3473
  107OSM   C17F11051   1.601   5.992   8.987  0.8064 -0.3324  0.8767
  107OSM   H17F11052   1.601   5.896   9.043 -0.5615 -1.7284 -1.3641
  107OSM   H17G11053   1.707   6.027   8.984  1.2418 -1.6624 -0.7708
  107OSM   C18F11054   1.568   5.982   8.840  0.2903 -0.2921  0.2557
  107OSM   H18F11055   1.464   5.949   8.819  0.1559  0.7327 -0.8142
  107OSM   H18G11056   1.636   5.914   8.785 -1.3332 -0.4158 -1.7126
  107OSM   H18H11057   1.573   6.083   8.793  1.8196  0.5123  2.0203
  108OSM      N11058   4.075   5.072  11.249  0.2008 -0.3423 -0.2235
  108OSM    C1511059   3.938   5.138  11.280 -0.3899  0.7133  0.4464
  108OSM   H15A11060   3.929   5.231  11.226  1.3874 -0.3526 -1.8641
  108OSM   H15B11061   3.947   5.172  11.382  1.4667  1.3827  0.1001
  108OSM   H15C11062   3.851   5.075  11.268 -0.6990  1.2022  0.0702
  108OSM    C1411063   4.183   5.170  11.272 -0.6748 -0.0190 -0.3423
  108OSM   H14A11064   4.176   5.259  11.212  1.0261 -0.6580 -1.5651
  108OSM   H14B11065   4.279   5.127  11.246  0.5081  1.7881  0.7491
  108OSM   H14C11066   4.186   5.203  11.375  1.3856 -0.9714 -0.0558
  108OSM    C1311067   4.087   4.953  11.335  0.6682 -0.2461  0.0922
  108OSM   H13A11068   4.075   4.971  11.441 -1.3789 -0.4196 -0.0690
  108OSM   H13B11069   4.174   4.892  11.319  0.0537 -0.5874 -2.2597
  108OSM   H13C11070   4.000   4.890  11.321  0.2168  0.6270 -1.1688
  108OSM    C1211071   4.063   5.022  11.101 -0.3554  0.1734  0.9836
  108OSM   H12A11072   4.047   5.106  11.034 -1.1653 -0.7944 -0.0650
  108OSM   H12B11073   3.968   4.972  11.089 -0.9049  0.8237  2.3776
  108OSM    C1111074   4.175   4.928  11.048  0.4536  0.2398 -0.3677
  108OSM   H11A11075   4.139   4.909  10.945 -0.1952 -2.6168  0.3086
  108OSM   H11B11076   4.171   4.833  11.106 -0.8807  2.0417  2.7698
  108OSM      P11077   4.430   4.915  11.020  0.7368 -0.1155 -0.0684
  108OSM    O1311078   4.543   5.006  11.016 -0.0476  0.3820  0.2643
  108OSM    O1411079   4.452   4.801  11.109  0.1794  0.4692  0.0175
  108OSM    O1111080   4.403   4.865  10.871  0.7844  0.1074 -0.5357
  108OSM    O1211081   4.299   4.997  11.051  0.1361 -0.1572  0.8724
  108OSM    C1S11082   4.374   4.976  10.779  0.0758 -0.5470 -0.1289
  108OSM    H1S11083   4.436   5.068  10.786  0.8648 -1.1017  0.3697
  108OSM    H1T11084   4.271   5.017  10.787  0.2132 -0.0939 -0.5754
  108OSM     NF11085   4.416   5.056  10.554 -0.1349  0.2421 -0.1348
  108OSM    HNF11086   4.338   5.115  10.536  0.4304  1.2581  0.6903
  108OSM    C2S11087   4.396   4.936  10.636  0.1250  0.0096 -0.3400
  108OSM    H2S11088   4.493   4.883  10.636  0.9146  1.3989 -1.2866
  108OSM    C3S11089   4.282   4.836  10.599 -0.3149 -0.3926 -0.5859
  108OSM    H3S11090   4.191   4.898  10.584 -1.4406 -2.0855 -1.0364
  108OSM     O311091   4.239   4.743  10.697  0.0612 -0.0801  0.4887
  108OSM    HO311092   4.286   4.775  10.775 -1.1359  2.9962  0.0732
  108OSM    C4S11093   4.318   4.763  10.464  0.0865 -0.2854 -0.1696
  108OSM    H4S11094   4.292   4.819  10.373  3.2991 -0.5035 -1.3416
  108OSM    C5S11095   4.381   4.643  10.449  0.1299  0.0313 -0.3512
  108OSM    H5S11096   4.404   4.587  10.540  1.4929  2.2260  0.7414
  108OSM    C6S11097   4.417   4.565  10.325  1.1611 -0.4121  0.5222
  108OSM    H6S11098   4.394   4.460  10.354 -0.1281  0.1238  1.5616
  108OSM    H6T11099   4.527   4.569  10.308  1.4261  1.3148  2.2104
  108OSM    C7S11100   4.344   4.596  10.194 -0.0576 -0.2977 -1.1082
  108OSM    H7S11101   4.353   4.706  10.179  3.2675 -0.5579 -1.8586
  108OSM    H7T11102   4.236   4.575  10.209  0.2323 -0.3753  1.2542
  108OSM    C8S11103   4.394   4.507  10.080  0.4608 -0.1633 -0.0681
  108OSM    H8S11104   4.376   4.401  10.107  2.6580  0.0024  2.3796
  108OSM    H8T11105   4.501   4.534  10.067 -0.4560  2.5551 -3.3187
  108OSM    C9S11106   4.312   4.526   9.948  0.4140 -0.2992 -0.3254
  108OSM    H9S11107   4.330   4.634   9.927 -0.2433 -0.4305 -1.6002
  108OSM    H9T11108   4.204   4.511   9.967  0.3698 -0.6074 -0.8053
  108OSM   C10S11109   4.371   4.445   9.841 -0.5423 -0.1026 -0.0002
  108OSM   H10S11110   4.346   4.341   9.870 -0.5131  0.1364  0.9107
  108OSM   H10T11111   4.482   4.453   9.837 -0.3175 -1.3243  2.3029
  108OSM   C11S11112   4.317   4.475   9.701  0.4908  0.1252 -0.1665
  108OSM   H11S11113   4.346   4.577   9.669  1.0541 -0.5937 -2.0462
  108OSM   H11T11114   4.208   4.453   9.709  0.7039 -0.6678  0.8516
  108OSM   C12S11115   4.374   4.392   9.582 -0.1108  0.1665  0.3881
  108OSM   H12S11116   4.341   4.288   9.605 -3.2111  1.0654  0.4722
  108OSM   H12T11117   4.481   4.409   9.603 -0.5868  1.1849  2.2127
  108OSM   C13S11118   4.324   4.440   9.445  0.3210  0.0881 -0.1497
  108OSM   H13S11119   4.337   4.546   9.415 -0.5556  0.3323  0.2909
  108OSM   H13T11120   4.216   4.420   9.458  0.3986 -0.0899  0.2434
  108OSM   C14S11121   4.389   4.352   9.337 -0.5313 -0.5438 -0.3712
  108OSM   H14S11122   4.345   4.253   9.361  1.7014 -1.7515 -0.9930
  108OSM   H14T11123   4.500   4.354   9.340 -0.5375  1.8379  0.5581
  108OSM   C15S11124   4.344   4.400   9.200 -0.3777 -0.2299 -0.6451
  108OSM   H15S11125   4.387   4.501   9.183 -2.1312  0.4983 -0.9284
  108OSM   H15T11126   4.236   4.421   9.216 -0.3655 -1.5213  1.5178
  108OSM   C16S11127   4.362   4.300   9.080  0.5082 -0.0815  0.3561
  108OSM   H16S11128   4.340   4.195   9.108  1.6000 -0.0373  1.4678
  108OSM   H16T11129   4.471   4.305   9.058  0.5625 -0.4011  0.5500
  108OSM   C17S11130   4.286   4.348   8.951  0.8494  0.3653  0.8082
  108OSM   H17S11131   4.302   4.457   8.938 -1.0796  0.9422  2.5884
  108OSM   H17T11132   4.176   4.345   8.970  0.4073 -5.1382 -0.7991
  108OSM   C18S11133   4.301   4.259   8.826 -0.0312  0.3433  0.0254
  108OSM   H18S11134   4.265   4.315   8.738  1.7807  0.4126 -0.7139
  108OSM   H18T11135   4.249   4.161   8.827 -0.4797  0.5738 -0.3410
  108OSM   H18U11136   4.408   4.250   8.797 -0.0579  1.4178 -0.4365
  108OSM    C1F11137   4.530   5.129  10.545  0.0739  0.4731  0.2274
  108OSM     OF11138   4.625   5.105  10.610 -0.2873 -0.3563  0.1680
  108OSM    C2F11139   4.521   5.245  10.459 -0.1781  0.1756 -0.0031
  108OSM    H2F11140   4.604   5.314  10.486  2.3156 -2.3865 -0.6127
  108OSM    H2G11141   4.426   5.298  10.475 -0.1641 -0.2913  1.8315
  108OSM    C3F11142   4.548   5.206  10.313 -0.6992  0.0861  0.1149
  108OSM    H3F11143   4.471   5.137  10.273 -0.8499  0.4774 -0.2756
  108OSM    H3G11144   4.648   5.159  10.305 -0.4297  0.0205  2.8995
  108OSM    C4F11145   4.555   5.335  10.235 -0.4205 -0.1459  0.0681
  108OSM    H4F11146   4.644   5.381  10.283  0.6948 -3.3522  1.3376
  108OSM    H4G11147   4.469   5.403  10.251  0.8542  1.5427 -0.0017
  108OSM    C5F11148   4.598   5.319  10.087  0.1749 -0.3612  0.4952
  108OSM    H5F11149   4.685   5.250  10.076 -0.7696 -1.4426 -0.3643
  108OSM    H5G11150   4.624   5.422  10.054 -0.9407  0.1674  1.2445
  108OSM    C6F11151   4.478   5.280   9.999 -0.0657 -0.4915  0.1548
  108OSM    H6F11152   4.400   5.358   9.988  1.2592  1.0518  1.1776
  108OSM    H6G11153   4.426   5.195  10.048 -1.7365 -0.5738 -1.6333
  108OSM    C7F11154   4.527   5.224   9.861  0.2173  0.5329 -0.0671
  108OSM    H7F11155   4.439   5.188   9.804 -0.3185  1.8003 -0.0616
  108OSM    H7G11156   4.605   5.146   9.878 -0.5973 -0.3289 -0.1995
  108OSM    C8F11157   4.586   5.342   9.774  0.1784 -0.4165  0.1796
  108OSM    H8F11158   4.638   5.415   9.840 -1.1808  0.3402  0.4396
  108OSM    H8G11159   4.498   5.391   9.727 -1.2084 -0.3177  2.6650
  108OSM    C9F11160   4.684   5.299   9.666  0.2094 -0.4362 -0.7979
  108OSM    H9F11161   4.785   5.289   9.710 -0.2529  2.8782  1.3922
  108OSM   C10F11162   4.678   5.294   9.534  0.0752 -0.3718  0.1515
  108OSM   H10F11163   4.771   5.266   9.483  0.8693  2.1029  0.1335
  108OSM   C11F11164   4.566   5.332   9.445 -0.2418 -0.8044  0.1914
  108OSM   H11F11165   4.471   5.346   9.501 -1.5309  1.1861 -2.2762
  108OSM   H11G11166   4.558   5.250   9.371 -0.8352 -0.2066 -0.4210
  108OSM   C12F11167   4.594   5.461   9.352 -0.0330  0.1098 -0.3601
  108OSM   H12F11168   4.688   5.447   9.295  1.4656 -0.1173  2.0123
  108OSM   H12G11169   4.617   5.542   9.425 -3.0991  0.8558 -0.0847
  108OSM   C13F11170   4.482   5.488   9.254 -0.3469  0.5355  0.3666
  108OSM   H13F11171   4.390   5.523   9.307 -0.5798 -3.1141  2.7477
  108OSM   H13G11172   4.457   5.388   9.214  2.5402 -0.1089 -0.0482
  108OSM   C14F11173   4.532   5.586   9.145  0.1116 -0.0188  0.1481
  108OSM   H14F11174   4.631   5.552   9.106 -0.4023 -0.0533 -1.1823
  108OSM   H14G11175   4.536   5.685   9.196  0.3127 -0.7210  1.5643
  108OSM   C15F11176   4.431   5.619   9.030 -0.2607 -0.0375 -0.4758
  108OSM   H15F11177   4.451   5.529   8.968  0.2303 -2.0185  2.4162
  108OSM   H15G11178   4.469   5.710   8.978 -1.5995 -0.2197 -1.8593
  108OSM   C16F11179   4.280   5.650   9.072 -0.5194 -0.0697  0.8141
  108OSM   H16F11180   4.267   5.720   9.157  0.1469 -0.6222  1.3752
  108OSM   H16G11181   4.236   5.557   9.115  0.0135  0.6267  2.9599
  108OSM   C17F11182   4.186   5.694   8.959 -0.1270 -0.3172 -0.5064
  108OSM   H17F11183   4.179   5.626   8.871  0.7549  0.5796 -1.3011
  108OSM   H17G11184   4.218   5.789   8.911 -2.0349  0.1239 -1.0038
  108OSM   C18F11185   4.049   5.731   9.010 -0.0607  0.4453 -0.0486
  108OSM   H18F11186   4.061   5.803   9.094  0.6166  1.6717 -1.1540
  108OSM   H18G11187   4.008   5.633   9.041  3.4196 -1.5131 -1.0769
  108OSM   H18H11188   3.984   5.789   8.940  0.5750  3.1712  1.4545
  109OSM      N11189   6.084   4.252  10.860  0.2422 -0.2449  0.5543
  109OSM    C1511190   5.934   4.234  10.881 -0.0603 -0.2364  0.5603
  109OSM   H15A11191   5.919   4.180  10.973  1.9258  0.0904  1.1221
  109OSM   H15B11192   5.883   4.185  10.799  0.3020  2.1487 -1.1926
  109OSM   H15C11193   5.893   4.332  10.900  3.3618  1.1359  1.5958
  109OSM    C1411194   6.096   4.306  10.721  0.3825  0.5604  0.4579
  109OSM   H14A11195   6.029   4.387  10.697  1.3478  0.9893 -0.8819
  109OSM   H14B11196   6.078   4.226  10.650 -0.8701  0.8556  0.4174
  109OSM   H14C11197   6.194   4.350  10.711  0.1277  1.1028  0.3255
  109OSM    C1311198   6.130   4.363  10.960 -0.1029  0.0662  0.1944
  109OSM   H13A11199   6.234   4.386  10.948 -0.5713  2.3792  0.0654
  109OSM   H13B11200   6.110   4.335  11.062  2.4458  0.2471  0.7955
  109OSM   H13C11201   6.067   4.448  10.938 -0.1385  0.1042  0.4463
  109OSM    C1211202   6.151   4.114  10.877  0.1908 -0.5034  0.1838
  109OSM   H12A11203   6.110   4.043  10.806  0.1137 -1.2850  0.9954
  109OSM   H12B11204   6.134   4.066  10.972  1.5256  0.1076  0.7532
  109OSM    C1111205   6.303   4.112  10.859 -0.3033  0.1306 -0.2519
  109OSM   H11A11206   6.331   4.009  10.891 -0.3891  0.0078 -0.5716
  109OSM   H11B11207   6.346   4.181  10.935 -2.2936 -0.2921  1.3262
  109OSM      P11208   6.448   4.218  10.679  0.0266 -0.1235  0.1484
  109OSM    O1311209   6.408   4.360  10.702  0.2944  0.1189  0.0290
  109OSM    O1411210   6.572   4.177  10.741 -0.7437  0.2590 -0.3612
  109OSM    O1111211   6.461   4.187  10.520  0.0311  0.1417  0.3382
  109OSM    O1211212   6.327   4.119  10.724 -0.4575 -0.2292  0.0292
  109OSM    C1S11213   6.346   4.190  10.434  0.3932 -0.0169 -0.2870
  109OSM    H1S11214   6.252   4.219  10.485  1.7977  1.4059  1.6631
  109OSM    H1T11215   6.328   4.087  10.399  1.8863 -0.9624  1.5259
  109OSM     NF11216   6.250   4.296  10.240  0.9108  0.2990  0.1914
  109OSM    HNF11217   6.227   4.230  10.169  0.4788 -0.0634  0.6630
  109OSM    C2S11218   6.375   4.279  10.312 -0.1042  0.0951  0.3909
  109OSM    H2S11219   6.426   4.374  10.338  1.9496 -1.4222  2.3079
  109OSM    C3S11220   6.504   4.223  10.235  1.2928  0.7546 -0.3832
  109OSM    H3S11221   6.480   4.117  10.211  2.9595  0.3775 -0.5391
  109OSM     O311222   6.630   4.223  10.306 -0.1639  0.3102 -0.2227
  109OSM    HO311223   6.595   4.248  10.392 -2.3458 -0.9215 -0.6750
  109OSM    C4S11224   6.513   4.286  10.105 -0.1678 -0.4459  0.5721
  109OSM    H4S11225   6.438   4.240  10.039 -0.3164  1.9782 -1.0465
  109OSM    C5S11226   6.610   4.364  10.049 -0.2833  0.3398  0.2610
  109OSM    H5S11227   6.704   4.378  10.104  1.4569 -4.9275 -0.7845
  109OSM    C6S11228   6.602   4.422   9.910 -0.6082  0.5100 -0.0125
  109OSM    H6S11229   6.638   4.353   9.831  1.4750  1.6741 -0.1586
  109OSM    H6T11230   6.683   4.497   9.898  1.8697 -2.1195 -1.0090
  109OSM    C7S11231   6.475   4.481   9.856 -0.1024  0.4971 -0.1044
  109OSM    H7S11232   6.444   4.557   9.931  3.8362  2.1671  0.0534
  109OSM    H7T11233   6.410   4.391   9.847  0.7232 -0.0279 -1.0634
  109OSM    C8S11234   6.492   4.559   9.718  0.1712 -0.5598 -0.6568
  109OSM    H8S11235   6.558   4.645   9.739  1.2892 -1.3674 -0.7511
  109OSM    H8T11236   6.399   4.614   9.694  0.2741  0.1778  0.5503
  109OSM    C9S11237   6.557   4.483   9.603 -0.4590 -0.2189 -0.2479
  109OSM    H9S11238   6.499   4.389   9.606  0.2540 -0.7582 -2.0989
  109OSM    H9T11239   6.665   4.460   9.620 -0.4198 -0.4251 -0.7574
  109OSM   C10S11240   6.525   4.567   9.475  0.2974 -1.0591 -0.0096
  109OSM   H10S11241   6.563   4.670   9.491 -1.4097 -0.1992 -1.1859
  109OSM   H10T11242   6.416   4.570   9.455  0.4461 -2.3202 -1.1723
  109OSM   C11S11243   6.599   4.515   9.353 -0.6935  0.2180 -0.6586
  109OSM   H11S11244   6.592   4.404   9.345 -0.3507  0.1434  0.0368
  109OSM   H11T11245   6.708   4.531   9.367 -0.5502 -0.3712 -1.0259
  109OSM   C12S11246   6.575   4.576   9.215  0.0547  0.3208 -0.0785
  109OSM   H12S11247   6.465   4.582   9.202 -0.1208 -0.4773  0.8428
  109OSM   H12T11248   6.619   4.508   9.139  0.5543  2.9525 -2.2826
  109OSM   C13S11249   6.636   4.717   9.197  0.2649 -0.2420 -0.7505
  109OSM   H13S11250   6.745   4.716   9.217  0.5923  2.1736 -1.9825
  109OSM   H13T11251   6.593   4.782   9.277 -0.1630 -0.1201 -1.0769
  109OSM   C14S11252   6.593   4.773   9.066 -0.6602  0.2370  0.2345
  109OSM   H14S11253   6.483   4.782   9.052 -0.8140 -2.0090 -0.4180
  109OSM   H14T11254   6.627   4.708   8.983 -0.7337  1.0683 -0.4677
  109OSM   C15S11255   6.662   4.911   9.042 -0.3188  0.2815 -0.1536
  109OSM   H15S11256   6.770   4.886   9.041 -0.6385 -1.2200 -1.3444
  109OSM   H15T11257   6.628   4.974   9.127  1.0892  2.1644 -0.9320
  109OSM   C16S11258   6.618   4.979   8.914  0.2348  0.2791 -0.2314
  109OSM   H16S11259   6.510   4.957   8.898 -0.1567 -1.7041  3.7628
  109OSM   H16T11260   6.675   4.931   8.832 -0.1373 -0.1348 -0.2523
  109OSM   C17S11261   6.640   5.128   8.919  0.1611  0.3855 -1.2078
  109OSM   H17S11262   6.749   5.150   8.925  0.1093  0.8955 -2.0507
  109OSM   H17T11263   6.601   5.158   9.019 -0.1081  2.7393 -1.9551
  109OSM   C18S11264   6.583   5.210   8.801  0.6111  0.4387  0.0957
  109OSM   H18S11265   6.480   5.174   8.780  1.1014 -0.3991 -0.9423
  109OSM   H18T11266   6.655   5.184   8.721  0.6753  0.2592  0.2100
  109OSM   H18U11267   6.579   5.320   8.821 -4.0570  0.6001 -0.5665
  109OSM    C1F11268   6.153   4.384  10.280 -0.7535  0.4022 -0.6430
  109OSM     OF11269   6.163   4.445  10.389  0.6113 -0.0257 -0.0641
  109OSM    C2F11270   6.026   4.390  10.204 -0.2196  0.4764 -0.5042
  109OSM    H2F11271   5.945   4.374  10.278  0.6465  1.0408  0.5827
  109OSM    H2G11272   6.028   4.295  10.145 -1.1334 -0.6383  1.1569
  109OSM    C3F11273   6.007   4.525  10.134  0.1805  0.1415  0.6408
  109OSM    H3F11274   5.982   4.604  10.208  0.6123  0.2176  0.7125
  109OSM    H3G11275   5.911   4.532  10.079  1.3050 -2.2930 -1.9028
  109OSM    C4F11276   6.124   4.563  10.036  0.0043  0.2057 -0.1008
  109OSM    H4F11277   6.153   4.482   9.965 -1.0011  1.3215 -1.8710
  109OSM    H4G11278   6.208   4.592  10.103  0.4862 -2.2199  0.4241
  109OSM    C5F11279   6.090   4.692   9.961 -0.1807  0.0300  0.2607
  109OSM    H5F11280   6.082   4.768  10.041  0.9536  0.4743 -0.0266
  109OSM    H5G11281   5.996   4.672   9.906 -1.4661 -0.0388  2.3627
  109OSM    C6F11282   6.204   4.752   9.871 -0.5888  0.0785 -0.3784
  109OSM    H6F11283   6.208   4.696   9.776  0.7412  1.3042 -1.0879
  109OSM    H6G11284   6.298   4.733   9.927 -0.1785  1.7829 -0.4366
  109OSM    C7F11285   6.171   4.897   9.845 -0.2139 -0.1835  0.1159
  109OSM    H7F11286   6.169   4.956   9.939  2.0226 -2.0526  1.4350
  109OSM    H7G11287   6.071   4.899   9.796 -0.9816 -0.0637  1.6009
  109OSM    C8F11288   6.279   4.968   9.756  0.1256 -0.1408  0.3278
  109OSM    H8F11289   6.243   5.063   9.711 -0.3945 -1.1199 -1.3946
  109OSM    H8G11290   6.295   4.904   9.667 -1.2005  1.3134 -1.0092
  109OSM    C9F11291   6.409   4.983   9.838  0.7233 -0.2977 -0.2449
  109OSM    H9F11292   6.462   4.891   9.868  2.4953  1.0434  0.9008
  109OSM   C10F11293   6.479   5.099   9.859 -0.2457  0.4784 -0.2004
  109OSM   H10F11294   6.565   5.089   9.928  0.2481 -1.0612 -1.0020
  109OSM   C11F11295   6.434   5.231   9.809  0.2283  0.1931  0.1452
  109OSM   H11F11296   6.428   5.307   9.891  1.0540 -0.1907  0.5708
  109OSM   H11G11297   6.335   5.230   9.758 -0.4414  0.8760  1.3733
  109OSM   C12F11298   6.537   5.287   9.701 -0.2390 -0.2320  0.2325
  109OSM   H12F11299   6.639   5.278   9.743  0.6391 -2.7217 -2.1478
  109OSM   H12G11300   6.518   5.397   9.695  0.7563 -0.0940 -0.9171
  109OSM   C13F11301   6.532   5.226   9.558  0.5299  0.6448  0.6087
  109OSM   H13F11302   6.426   5.225   9.526 -0.0632 -0.9922  2.4197
  109OSM   H13G11303   6.565   5.120   9.568  3.4132  1.3215 -0.7655
  109OSM   C14F11304   6.628   5.286   9.447 -0.0791  0.1771  0.3110
  109OSM   H14F11305   6.723   5.315   9.497  1.1813 -1.2661 -1.1534
  109OSM   H14G11306   6.586   5.383   9.411  0.5952  0.1815 -0.4980
  109OSM   C15F11307   6.663   5.195   9.334  0.5964  0.2158  1.0067
  109OSM   H15F11308   6.575   5.165   9.272 -0.3795  0.9320  2.0077
  109OSM   H15G11309   6.710   5.105   9.379  1.5663  1.4560  2.6000
  109OSM   C16F11310   6.772   5.258   9.244  0.3160  0.0695 -0.6915
  109OSM   H16F11311   6.795   5.197   9.153 -0.8554  1.2046 -1.7928
  109OSM   H16G11312   6.869   5.264   9.298  0.3736  0.6843 -0.8545
  109OSM   C17F11313   6.739   5.400   9.195 -0.1858  0.6508  0.0959
  109OSM   H17F11314   6.742   5.468   9.282 -0.6275  1.2490 -0.3468
  109OSM   H17G11315   6.637   5.409   9.150  0.3316  0.9455 -1.0802
  109OSM   C18F11316   6.838   5.442   9.084  0.0365 -1.2974  1.3360
  109OSM   H18F11317   6.945   5.447   9.113 -0.1919 -0.8510  2.1440
  109OSM   H18G11318   6.817   5.545   9.049  2.4043 -1.5215 -1.0391
  109OSM   H18H11319   6.823   5.377   8.995 -0.1095  1.0817 -0.4669
  110OSM      N11320   0.865   2.608  10.812  0.0533 -0.0626  0.1164
  110OSM    C1511321   0.892   2.551  10.949  0.0856  0.0447  0.5876
  110OSM   H15A11322   0.803   2.530  11.007 -0.6854  0.6306 -0.3645
  110OSM   H15B11323   0.933   2.636  11.002 -0.4152  0.8166 -0.2220
  110OSM   H15C11324   0.963   2.471  10.949  0.5795  0.4362 -1.1770
  110OSM    C1411325   0.849   2.488  10.722 -0.7400  0.2525  0.4615
  110OSM   H14A11326   0.947   2.442  10.715 -1.6491 -1.8491  0.7876
  110OSM   H14B11327   0.821   2.505  10.619  0.5363  0.7550  0.1770
  110OSM   H14C11328   0.786   2.409  10.760  0.2513 -1.8240 -1.9121
  110OSM    C1311329   0.735   2.678  10.811  0.9678 -0.0023  1.0866
  110OSM   H13A11330   0.728   2.717  10.711  4.6962 -0.9415  0.3228
  110OSM   H13B11331   0.731   2.745  10.896  2.0771 -0.2057  1.3095
  110OSM   H13C11332   0.648   2.615  10.827  0.3091  0.3343 -0.8777
  110OSM    C1211333   0.973   2.695  10.760 -0.6276 -0.1062 -0.9441
  110OSM   H12A11334   1.065   2.639  10.762 -1.2106 -1.0695 -0.4583
  110OSM   H12B11335   0.995   2.768  10.837 -1.3957 -1.4817  0.6486
  110OSM    C1111336   0.961   2.747  10.610  0.3237  0.5630  0.0194
  110OSM   H11A11337   0.940   2.661  10.542 -1.4162 -0.4247  1.7181
  110OSM   H11B11338   1.063   2.785  10.589  0.5082  0.8326  1.3536
  110OSM      P11339   0.892   2.991  10.626  0.1149  0.8121  0.0861
  110OSM    O1311340   0.770   3.068  10.645  0.1475 -0.6211 -0.0359
  110OSM    O1411341   0.995   2.992  10.731 -0.1271  0.2514  0.0733
  110OSM    O1111342   0.970   3.049  10.498 -0.6196  0.0210 -0.4570
  110OSM    O1211343   0.857   2.842  10.583 -0.4522  0.0573 -0.5229
  110OSM    C1S11344   1.038   3.175  10.503  0.2061  0.3367  0.5047
  110OSM    H1S11345   1.113   3.171  10.585 -0.5169  2.0654  1.2865
  110OSM    H1T11346   0.978   3.265  10.527 -0.4519 -0.1883  0.8717
  110OSM     NF11347   1.222   3.275  10.401 -0.2139  0.6802 -0.3907
  110OSM    HNF11348   1.194   3.370  10.410  1.5796  1.0757  1.7131
  110OSM    C2S11349   1.111   3.191  10.367  0.3236  0.3085 -0.1288
  110OSM    H2S11350   1.158   3.097  10.330  1.1477  0.6793 -0.0385
  110OSM    C3S11351   1.025   3.242  10.252 -0.2325 -0.5137  0.3187
  110OSM    H3S11352   0.988   3.346  10.266 -0.6374 -0.9244  2.7808
  110OSM     O311353   0.912   3.153  10.230 -0.0106 -0.7419  0.2340
  110OSM    HO311354   0.935   3.080  10.288  0.4795 -0.6385  0.1747
  110OSM    C4S11355   1.097   3.246  10.130 -0.2164  0.8531  0.4871
  110OSM    H4S11356   1.109   3.147  10.082 -0.7078  0.8800  0.3029
  110OSM    C5S11357   1.167   3.352  10.085 -0.2375 -0.4784 -0.3366
  110OSM    H5S11358   1.176   3.444  10.145  1.7167  1.1136 -2.8520
  110OSM    C6S11359   1.243   3.365   9.961  0.5459 -0.4492  0.4757
  110OSM    H6S11360   1.323   3.443   9.968 -0.3602  0.5373  0.1271
  110OSM    H6T11361   1.184   3.411   9.879  1.9312  2.5235  1.0075
  110OSM    C7S11362   1.301   3.233   9.908 -0.2572  0.0922 -0.8072
  110OSM    H7S11363   1.218   3.176   9.860  0.2744  1.2542 -3.3172
  110OSM    H7T11364   1.345   3.178   9.993  0.4269  0.0734 -1.1658
  110OSM    C8S11365   1.418   3.260   9.807  0.8791 -0.0878  0.1837
  110OSM    H8S11366   1.475   3.167   9.783 -1.4171 -1.6045  0.2337
  110OSM    H8T11367   1.483   3.337   9.853 -0.0840  1.8684 -1.5776
  110OSM    C9S11368   1.369   3.319   9.673  0.1505 -0.1837 -0.2706
  110OSM    H9S11369   1.313   3.411   9.698  0.4638 -0.6039  2.1799
  110OSM    H9T11370   1.302   3.254   9.613 -0.2460  1.6149 -1.8716
  110OSM   C10S11371   1.477   3.346   9.562  0.0791 -0.6910 -0.5599
  110OSM   H10S11372   1.528   3.249   9.547  0.0225 -0.8328  0.1013
  110OSM   H10T11373   1.555   3.422   9.584  0.3144 -0.9909 -0.3408
  110OSM   C11S11374   1.400   3.386   9.434  0.0451  0.3783  0.8271
  110OSM   H11S11375   1.331   3.469   9.456 -0.2799  0.0841  0.9212
  110OSM   H11T11376   1.342   3.304   9.386  0.2344  0.3675  0.6105
  110OSM   C12S11377   1.505   3.430   9.325 -0.8750  0.3752 -0.7354
  110OSM   H12S11378   1.601   3.375   9.332 -0.4311  1.3595  2.1782
  110OSM   H12T11379   1.537   3.533   9.354  0.1864 -0.2611  0.4588
  110OSM   C13S11380   1.440   3.450   9.185 -0.1927 -0.2483 -0.1994
  110OSM   H13S11381   1.348   3.510   9.196  0.3188  0.4458  0.3812
  110OSM   H13T11382   1.392   3.351   9.164 -0.1561 -0.9007  2.4577
  110OSM   C14S11383   1.537   3.506   9.074  0.6930 -0.5947  0.8365
  110OSM   H14S11384   1.568   3.415   9.018 -0.9923 -2.1241  2.2735
  110OSM   H14T11385   1.623   3.564   9.114  1.5528 -0.3191 -1.2720
  110OSM   C15S11386   1.449   3.582   8.972  0.3632 -0.6970 -0.1793
  110OSM   H15S11387   1.428   3.683   9.013 -0.0386 -0.6641 -0.4622
  110OSM   H15T11388   1.353   3.526   8.977 -0.3985  0.6738  1.6716
  110OSM   C16S11389   1.507   3.597   8.830  0.0717 -0.6416  0.3891
  110OSM   H16S11390   1.481   3.504   8.775  1.6273 -0.3005 -1.0246
  110OSM   H16T11391   1.617   3.606   8.842  0.0062  2.1569 -0.3197
  110OSM   C17S11392   1.446   3.711   8.760 -0.0864  0.2456 -0.3979
  110OSM   H17S11393   1.465   3.806   8.812 -1.1719 -0.1206  0.7168
  110OSM   H17T11394   1.335   3.700   8.754  0.0738 -2.2611  0.1681
  110OSM   C18S11395   1.508   3.720   8.618  0.2610  0.5173 -0.4703
  110OSM   H18S11396   1.615   3.745   8.634  0.3856 -1.5359  2.9326
  110OSM   H18T11397   1.457   3.798   8.558 -2.8689  0.0206  1.3218
  110OSM   H18U11398   1.499   3.622   8.566  2.1179 -0.4925  0.9978
  110OSM    C1F11399   1.332   3.231  10.465  0.0610 -0.1776  0.1926
  110OSM     OF11400   1.359   3.110  10.460  0.0130 -0.0303  0.2625
  110OSM    C2F11401   1.413   3.321  10.556  0.8718 -0.3717  0.3856
  110OSM    H2F11402   1.428   3.264  10.650 -1.2806 -2.9463 -0.6885
  110OSM    H2G11403   1.348   3.410  10.571  0.0303 -0.7560 -0.8352
  110OSM    C3F11404   1.549   3.369  10.499  0.3539 -0.1967  0.2869
  110OSM    H3F11405   1.610   3.277  10.489  2.9226  1.5242 -1.0978
  110OSM    H3G11406   1.602   3.426  10.578  1.3568 -1.3873  0.4998
  110OSM    C4F11407   1.539   3.451  10.364  0.4949  0.3621  0.0239
  110OSM    H4F11408   1.477   3.393  10.293 -0.9593  2.7291 -0.7604
  110OSM    H4G11409   1.640   3.457  10.319 -0.5397 -1.3011 -2.7627
  110OSM    C5F11410   1.473   3.595  10.366  0.4737  0.3455 -0.1330
  110OSM    H5F11411   1.499   3.628  10.469 -0.6667 -2.8765  1.3194
  110OSM    H5G11412   1.363   3.581  10.361  0.8169 -3.2889  0.1319
  110OSM    C6F11413   1.531   3.677  10.250  0.6232  0.4377 -0.4340
  110OSM    H6F11414   1.642   3.676  10.245  0.6097 -0.3987 -0.7063
  110OSM    H6G11415   1.509   3.785  10.267 -0.3133  0.3163 -0.8345
  110OSM    C7F11416   1.460   3.640  10.118 -0.6534  0.2243  0.1564
  110OSM    H7F11417   1.351   3.629  10.134 -0.9318  2.6388  0.2520
  110OSM    H7G11418   1.492   3.539  10.084  0.4881  0.3573  0.7853
  110OSM    C8F11419   1.497   3.736  10.002  0.1324  0.5504  0.0614
  110OSM    H8F11420   1.476   3.692   9.902  1.7313  0.9203 -0.4686
  110OSM    H8G11421   1.608   3.740   9.999  0.1741  0.7041  1.3931
  110OSM    C9F11422   1.434   3.874  10.017 -0.1896 -0.2955 -0.1715
  110OSM    H9F11423   1.437   3.919  10.117  0.8601 -1.3157  0.2922
  110OSM   C10F11424   1.353   3.921   9.922  0.0559 -0.7041  0.0640
  110OSM   H10F11425   1.314   4.023   9.936  1.7331 -0.3586  3.0264
  110OSM   C11F11426   1.332   3.859   9.786 -0.1676  0.0672 -0.1698
  110OSM   H11F11427   1.231   3.879   9.744 -0.4727 -0.6551  0.2021
  110OSM   H11G11428   1.337   3.748   9.776 -0.0426 -0.0266  0.9022
  110OSM   C12F11429   1.426   3.904   9.664  0.4935  0.2606 -0.0933
  110OSM   H12F11430   1.536   3.898   9.677  0.3815  2.1653  2.9213
  110OSM   H12G11431   1.416   4.014   9.655  0.6987  0.4127  1.2409
  110OSM   C13F11432   1.383   3.835   9.537  1.1837 -0.6184 -0.0211
  110OSM   H13F11433   1.292   3.889   9.504  0.5076 -0.3158  2.2068
  110OSM   H13G11434   1.359   3.726   9.535 -0.1658 -0.3454  0.0638
  110OSM   C14F11435   1.488   3.853   9.425  0.5839 -0.1243  0.4068
  110OSM   H14F11436   1.571   3.786   9.455  0.9484  0.4919  0.8170
  110OSM   H14G11437   1.525   3.958   9.424 -1.2093  0.5631  1.3811
  110OSM   C15F11438   1.426   3.810   9.291 -0.4350 -0.2626  0.3671
  110OSM   H15F11439   1.354   3.728   9.312  2.5834 -3.4847 -0.8407
  110OSM   H15G11440   1.507   3.773   9.224  0.5859 -0.1320  1.4993
  110OSM   C16F11441   1.366   3.936   9.219  0.0321 -0.4288  0.1857
  110OSM   H16F11442   1.454   3.999   9.195  1.2695 -1.3750  1.9694
  110OSM   H16G11443   1.300   3.985   9.295  0.1401  1.9009 -1.1167
  110OSM   C17F11444   1.289   3.900   9.095  0.4895 -0.1465  0.4052
  110OSM   H17F11445   1.209   3.831   9.128  0.1468  1.0878  2.2932
  110OSM   H17G11446   1.356   3.861   9.015  0.9935  2.4442 -0.5459
  110OSM   C18F11447   1.222   4.023   9.032  0.0406  0.0260 -0.0278
  110OSM   H18F11448   1.139   4.061   9.095 -0.3047 -0.1030 -0.3976
  110OSM   H18G11449   1.164   3.988   8.944  0.5964 -0.5111 -0.1867
  110OSM   H18H11450   1.286   4.110   9.003  1.3356 -1.3843 -1.5948
  111OSM      N11451   1.053   1.301  10.736  0.2176 -0.5892  0.4178
  111OSM    C1511452   1.129   1.181  10.762 -0.0585 -0.1400  0.4037
  111OSM   H15A11453   1.051   1.107  10.772  0.1352 -0.1574  2.1739
  111OSM   H15B11454   1.185   1.181  10.855  0.2810 -2.6470  0.2648
  111OSM   H15C11455   1.196   1.154  10.682 -0.7128  0.8565 -0.5012
  111OSM    C1411456   0.945   1.311  10.837  0.3434  0.3346 -0.3414
  111OSM   H14A11457   0.899   1.215  10.858  0.0052  0.8460  1.4714
  111OSM   H14B11458   0.864   1.366  10.792 -2.5895 -1.7406  1.9531
  111OSM   H14C11459   0.977   1.358  10.929 -1.8610  0.8765  0.1944
  111OSM    C1311460   1.141   1.427  10.752  0.0988  0.3708  0.2098
  111OSM   H13A11461   1.220   1.427  10.679  0.5151 -1.9551  0.5686
  111OSM   H13B11462   1.184   1.433  10.851  0.8485  0.0668 -0.0883
  111OSM   H13C11463   1.097   1.522  10.730  1.0391  0.2157 -2.7006
  111OSM    C1211464   0.996   1.283  10.594  0.0176 -0.6969  0.5116
  111OSM   H12A11465   0.951   1.185  10.582 -2.1907  0.2209  0.8590
  111OSM   H12B11466   1.079   1.290  10.526  1.8239  0.6695  2.7005
  111OSM    C1111467   0.897   1.384  10.535 -0.3601 -0.2998  0.1520
  111OSM   H11A11468   0.887   1.362  10.427 -0.1689 -1.1071  0.2983
  111OSM   H11B11469   0.944   1.485  10.538 -1.0897  0.0313  0.8656
  111OSM      P11470   0.679   1.495  10.662 -0.6915 -0.0967 -0.2398
  111OSM    O1311471   0.588   1.439  10.762 -0.1321 -0.2534 -0.6459
  111OSM    O1411472   0.772   1.605  10.705  0.6352  0.2050  0.1941
  111OSM    O1111473   0.594   1.534  10.536 -0.4314  0.2521  0.1669
  111OSM    O1211474   0.764   1.373  10.596 -0.3071  0.5283 -0.1045
  111OSM    C1S11475   0.595   1.659  10.467 -0.1830  0.5996  0.5633
  111OSM    H1S11476   0.675   1.723  10.510 -0.3588  1.0673  0.2006
  111OSM    H1T11477   0.498   1.708  10.486 -1.1302 -1.4877  1.4317
  111OSM     NF11478   0.602   1.772  10.257  0.0816  0.0396  0.0483
  111OSM    HNF11479   0.519   1.773  10.201 -0.0607  3.5977  0.0786
  111OSM    C2S11480   0.628   1.644  10.314 -0.2650 -1.0566 -0.1089
  111OSM    H2S11481   0.735   1.617  10.296 -0.7620 -1.9527 -1.9198
  111OSM    C3S11482   0.558   1.533  10.246 -0.5703 -0.4967 -0.4384
  111OSM    H3S11483   0.451   1.560  10.234 -1.3367 -3.2646 -0.4387
  111OSM     O311484   0.568   1.410  10.313 -0.0627  0.0086  0.2570
  111OSM    HO311485   0.610   1.449  10.390  0.0162  0.6628 -0.1069
  111OSM    C4S11486   0.598   1.521  10.097  0.0823  0.7437 -0.4011
  111OSM    H4S11487   0.526   1.570  10.029 -2.4000  0.2587  1.7455
  111OSM    C5S11488   0.700   1.453  10.038 -0.1703 -0.0929 -0.1470
  111OSM    H5S11489   0.758   1.385  10.101 -1.4988 -0.4401  0.7524
  111OSM    C6S11490   0.716   1.447   9.887 -0.4959  0.7124  0.4235
  111OSM    H6S11491   0.718   1.341   9.856 -1.0085  0.6909  0.4642
  111OSM    H6T11492   0.814   1.475   9.843  0.1569 -2.0330 -0.0596
  111OSM    C7S11493   0.615   1.516   9.799  0.7825  0.1245 -0.3943
  111OSM    H7S11494   0.631   1.625   9.810 -2.2366  0.6897 -0.7295
  111OSM    H7T11495   0.510   1.499   9.831  0.0195  3.1250 -1.0201
  111OSM    C8S11496   0.622   1.482   9.647 -1.1598  0.0151  0.0334
  111OSM    H8S11497   0.549   1.542   9.589 -0.1141  1.0550 -0.2334
  111OSM    H8T11498   0.606   1.373   9.638  3.0980 -0.7542 -0.1669
  111OSM    C9S11499   0.748   1.531   9.568 -0.1828  0.2641 -0.2246
  111OSM    H9S11500   0.833   1.503   9.635 -2.4419  0.1661  2.8420
  111OSM    H9T11501   0.741   1.639   9.544 -0.4098  0.7252  1.7155
  111OSM   C10S11502   0.767   1.437   9.443 -0.6659 -0.8585  0.5358
  111OSM   H10S11503   0.679   1.431   9.376 -0.4989 -0.9050  0.3169
  111OSM   H10T11504   0.786   1.333   9.477  2.1370 -0.8647 -0.7542
  111OSM   C11S11505   0.884   1.478   9.346 -0.4888  0.3729 -0.3446
  111OSM   H11S11506   0.980   1.473   9.402 -0.5384  3.5127  0.2298
  111OSM   H11T11507   0.876   1.585   9.315  0.1783  0.3631 -0.5639
  111OSM   C12S11508   0.884   1.396   9.220  0.1969  0.0373  0.4994
  111OSM   H12S11509   0.790   1.413   9.163  0.6998  0.5655 -0.1835
  111OSM   H12T11510   0.882   1.289   9.251 -1.6042 -0.4412 -1.0629
  111OSM   C13S11511   1.003   1.423   9.128 -0.2315 -0.6000  0.5687
  111OSM   H13S11512   1.101   1.398   9.176 -1.2071  1.3379  3.8573
  111OSM   H13T11513   0.999   1.527   9.089 -0.1143 -0.9538 -0.4166
  111OSM   C14S11514   0.992   1.339   9.005  0.1949  0.2400  0.4710
  111OSM   H14S11515   0.896   1.367   8.958  0.4225  0.4234  0.1139
  111OSM   H14T11516   0.991   1.231   9.032 -0.5039 -0.0409 -0.6174
  111OSM   C15S11517   1.130   1.353   8.929  0.8929 -0.1026  0.6600
  111OSM   H15S11518   1.199   1.294   8.994 -0.7249 -4.4870 -1.1868
  111OSM   H15T11519   1.159   1.460   8.924 -1.9720  0.7295  0.1014
  111OSM   C16S11520   1.121   1.280   8.795  1.1532  0.0345  1.3365
  111OSM   H16S11521   1.074   1.180   8.805  2.5551 -0.6316  1.5265
  111OSM   H16T11522   1.226   1.257   8.766  0.6471 -0.8433  0.1320
  111OSM   C17S11523   1.052   1.354   8.680  0.0205 -0.0202  0.1081
  111OSM   H17S11524   1.082   1.461   8.686 -0.0209 -0.0253  0.4324
  111OSM   H17T11525   0.943   1.344   8.700  0.2488 -2.9736  0.2612
  111OSM   C18S11526   1.066   1.296   8.535 -0.0782 -0.2865  0.0475
  111OSM   H18S11527   1.167   1.252   8.523  1.2690  2.4262  0.7573
  111OSM   H18T11528   1.054   1.380   8.464 -0.1149  1.1563  1.7015
  111OSM   H18U11529   0.997   1.219   8.494  0.3694 -0.1365 -1.0068
  111OSM    C1F11530   0.670   1.884  10.282  0.1339 -0.7176  0.2020
  111OSM     OF11531   0.753   1.891  10.372 -0.8246  0.3088 -1.0862
  111OSM    C2F11532   0.631   2.007  10.196  0.5820 -0.7029  0.1541
  111OSM    H2F11533   0.591   2.079  10.270 -0.0736 -2.0019  1.1037
  111OSM    H2G11534   0.563   1.979  10.112 -0.9801 -0.0901  1.1711
  111OSM    C3F11535   0.753   2.068  10.118 -0.3338 -0.5853  0.3980
  111OSM    H3F11536   0.816   2.122  10.193  0.1651 -1.7184  0.8102
  111OSM    H3G11537   0.709   2.140  10.046  0.5153 -0.3307  0.1217
  111OSM    C4F11538   0.838   1.966  10.033  0.1363  0.3106  0.0120
  111OSM    H4F11539   0.890   1.896  10.101  1.3966  3.0732  2.1185
  111OSM    H4G11540   0.915   2.031   9.985 -1.8325  0.7795 -2.7356
  111OSM    C5F11541   0.760   1.887   9.930  0.2194 -0.2496  0.2955
  111OSM    H5F11542   0.694   1.826   9.995  2.8846 -1.4927  1.9998
  111OSM    H5G11543   0.834   1.820   9.883 -0.6597 -0.7881 -0.3362
  111OSM    C6F11544   0.687   1.965   9.824  0.0914  0.5896 -0.2376
  111OSM    H6F11545   0.631   2.042   9.882  1.9890 -0.7529  3.7124
  111OSM    H6G11546   0.622   1.901   9.760 -1.0271  3.4819 -2.2378
  111OSM    C7F11547   0.785   2.040   9.735 -0.4068  0.1300 -0.2480
  111OSM    H7F11548   0.835   2.114   9.801 -0.9374  0.3388 -0.0656
  111OSM    H7G11549   0.728   2.095   9.657 -1.0206 -1.8510 -1.2718
  111OSM    C8F11550   0.888   1.955   9.664 -0.2027  0.4162 -0.3458
  111OSM    H8F11551   0.830   1.875   9.614  1.1147  0.3466 -1.8056
  111OSM    H8G11552   0.959   1.913   9.738 -1.0972  1.4136  1.1407
  111OSM    C9F11553   0.972   2.025   9.556 -0.6213 -0.5827  0.2717
  111OSM    H9F11554   1.074   2.053   9.584 -1.3759  1.5455  1.0916
  111OSM   C10F11555   0.938   2.055   9.428 -0.0288  0.6241  0.1599
  111OSM   H10F11556   1.002   2.110   9.358 -0.9634 -0.1133 -1.3344
  111OSM   C11F11557   0.804   2.027   9.364  0.1201  0.5613  0.0975
  111OSM   H11F11558   0.798   2.098   9.279 -0.8941 -1.6220 -1.7591
  111OSM   H11G11559   0.721   2.047   9.436 -0.5111 -0.1117 -0.4199
  111OSM   C12F11560   0.807   1.881   9.312 -0.8728  0.4197  0.1868
  111OSM   H12F11561   0.847   1.812   9.389 -2.5508 -1.0334 -0.1716
  111OSM   H12G11562   0.883   1.885   9.232 -1.3311 -0.7171 -0.3372
  111OSM   C13F11563   0.683   1.816   9.243  0.3261  0.6929 -0.4459
  111OSM   H13F11564   0.709   1.712   9.216 -1.6428  0.3171 -1.0288
  111OSM   H13G11565   0.661   1.873   9.150  1.1257 -0.2707 -1.2406
  111OSM   C14F11566   0.552   1.805   9.320 -0.3298 -1.0819  0.0920
  111OSM   H14F11567   0.516   1.910   9.322  0.4688 -0.7877  2.5830
  111OSM   H14G11568   0.565   1.760   9.421 -0.4172 -1.3637 -0.0204
  111OSM   C15F11569   0.440   1.728   9.246  0.4754 -0.2277 -0.5262
  111OSM   H15F11570   0.345   1.736   9.302  0.8645 -0.0703  0.1237
  111OSM   H15G11571   0.477   1.624   9.237 -1.4638 -0.8748 -1.7280
  111OSM   C16F11572   0.411   1.785   9.111 -0.1407 -0.4377 -0.6638
  111OSM   H16F11573   0.509   1.770   9.061  2.6707  2.3719  3.3671
  111OSM   H16G11574   0.388   1.893   9.118  1.3070 -0.1806  0.5820
  111OSM   C17F11575   0.295   1.722   9.034  0.0801  0.2157  0.8706
  111OSM   H17F11576   0.253   1.630   9.080  1.0288 -1.2573 -1.0668
  111OSM   H17G11577   0.338   1.689   8.937 -0.7476  3.2458 -0.6580
  111OSM   C18F11578   0.192   1.825   8.993 -0.1385 -0.2809 -0.0852
  111OSM   H18F11579   0.129   1.781   8.913  1.3237 -2.5858 -0.0656
  111OSM   H18G11580   0.242   1.916   8.955  1.8764 -0.1519  2.5438
  111OSM   H18H11581   0.131   1.848   9.083 -0.9521 -1.5017 -0.2969
  112OSM      N11582   4.574   6.273  10.846  0.9286  0.4254 -0.2261
  112OSM    C1511583   4.487   6.196  10.749 -0.3754 -0.4867  0.1067
  112OSM   H15A11584   4.417   6.135  10.805 -2.9801  2.3480  0.2344
  112OSM   H15B11585   4.547   6.126  10.693  1.3557  1.2146 -0.2411
  112OSM   H15C11586   4.423   6.255  10.685 -1.6194 -1.7428  0.1152
  112OSM    C1411587   4.630   6.176  10.942 -0.1212  0.0985 -0.3560
  112OSM   H14A11588   4.555   6.123  10.997 -1.2240 -1.1839 -2.9341
  112OSM   H14B11589   4.698   6.216  11.016  0.3407  0.1199 -0.7796
  112OSM   H14C11590   4.684   6.095  10.896 -0.2881 -0.6415  0.7323
  112OSM    C1311591   4.689   6.322  10.765 -0.1808 -0.4568 -0.0701
  112OSM   H13A11592   4.755   6.376  10.831 -1.0728  0.1337  0.3608
  112OSM   H13B11593   4.663   6.386  10.682  1.4875 -1.9076 -1.7923
  112OSM   H13C11594   4.743   6.237  10.726  2.1422 -0.4577  2.8377
  112OSM    C1211595   4.503   6.385  10.924 -0.4890 -0.4176 -0.7517
  112OSM   H12A11596   4.475   6.462  10.854 -1.0940 -0.6532 -0.7770
  112OSM   H12B11597   4.572   6.429  10.994  0.4738 -2.9441 -0.0125
  112OSM    C1111598   4.384   6.346  11.012  0.4220  0.6238 -0.2172
  112OSM   H11A11599   4.347   6.429  11.076  0.5464  0.1300  0.4966
  112OSM   H11B11600   4.419   6.278  11.092 -0.5072 -0.7127 -0.9221
  112OSM      P11601   4.150   6.347  10.894 -0.1572  0.0546  0.4748
  112OSM    O1311602   4.046   6.313  10.998  0.7077  0.2508 -0.1475
  112OSM    O1411603   4.168   6.490  10.861  0.2949 -0.1260  0.3774
  112OSM    O1111604   4.111   6.269  10.767 -0.2083  0.2590  0.5359
  112OSM    O1211605   4.285   6.278  10.928  0.1495  0.1783  0.1610
  112OSM    C1S11606   4.083   6.127  10.778  0.2557 -0.5115  0.3772
  112OSM    H1S11607   4.004   6.111  10.855 -1.2520  0.0264 -1.0085
  112OSM    H1T11608   4.178   6.074  10.804  0.4371 -0.0796  0.6134
  112OSM     NF11609   4.022   5.924  10.641  0.2744  0.2004  0.4960
  112OSM    HNF11610   4.074   5.872  10.574 -0.9264  0.9960 -1.1276
  112OSM    C2S11611   4.032   6.073  10.641  0.1097  0.3121 -0.6754
  112OSM    H2S11612   3.934   6.123  10.623  0.3606  1.4815  1.0237
  112OSM    C3S11613   4.131   6.116  10.534 -0.1845 -0.9622 -0.1776
  112OSM    H3S11614   4.233   6.089  10.568  0.4233  2.0234  0.6402
  112OSM     O311615   4.128   6.255  10.506 -0.6741 -0.1714 -0.4917
  112OSM    HO311616   4.079   6.281  10.584  0.9186 -0.4183  0.6285
  112OSM    C4S11617   4.103   6.048  10.399 -0.0818  0.4352 -0.3107
  112OSM    H4S11618   4.190   5.991  10.362  0.1939 -0.6015  1.7630
  112OSM    C5S11619   3.990   6.048  10.333  0.3165 -0.3577  0.1396
  112OSM    H5S11620   3.901   6.096  10.378  0.6084  0.0020  0.3366
  112OSM    C6S11621   3.960   5.984  10.198  0.0548  0.1213 -0.0169
  112OSM    H6S11622   3.851   5.964  10.198 -0.2037  1.4340 -1.2360
  112OSM    H6T11623   4.002   5.880  10.195  1.5020  0.6956 -0.7519
  112OSM    C7S11624   3.998   6.059  10.070 -0.4424 -0.8042  0.3898
  112OSM    H7S11625   4.101   6.098  10.081  0.5198 -2.5481 -1.6022
  112OSM    H7T11626   3.929   6.143  10.049 -1.2637 -1.2147  1.3630
  112OSM    C8S11627   4.002   5.963   9.942 -0.3109 -0.4500 -0.2907
  112OSM    H8S11628   3.909   5.902   9.943 -1.9627  1.8324  2.8282
  112OSM    H8T11629   4.089   5.895   9.950  0.2816  0.3440  0.1050
  112OSM    C9S11630   3.983   6.039   9.802  0.6220  0.1124  0.3507
  112OSM    H9S11631   4.063   6.116   9.808 -2.7088  3.9166 -0.3100
  112OSM    H9T11632   3.877   6.070   9.803  0.0399 -1.2579 -3.5749
  112OSM   C10S11633   4.004   5.953   9.682  0.1343  0.5121 -0.2088
  112OSM   H10S11634   3.955   5.853   9.690 -2.9882  1.7628 -2.0550
  112OSM   H10T11635   4.111   5.935   9.658 -0.1620 -3.0332  0.5115
  112OSM   C11S11636   3.941   6.009   9.552 -0.1555  0.3949  0.4521
  112OSM   H11S11637   3.994   6.106   9.541 -0.6968  0.8257  1.4577
  112OSM   H11T11638   3.837   6.035   9.581 -0.2075  1.6720 -0.7824
  112OSM   C12S11639   3.957   5.911   9.438 -0.4348 -0.4792  0.3772
  112OSM   H12S11640   3.936   5.812   9.484  1.7989 -1.6406 -0.9176
  112OSM   H12T11641   4.062   5.893   9.408 -1.6414 -1.4495 -3.9777
  112OSM   C13S11642   3.855   5.939   9.321 -0.0025  0.0476  0.1925
  112OSM   H13S11643   3.755   5.957   9.366  0.1015  0.7717  0.1460
  112OSM   H13T11644   3.843   5.855   9.250 -0.3213  2.5688 -2.9955
  112OSM   C14S11645   3.880   6.084   9.250  0.4966  0.2455  0.1358
  112OSM   H14S11646   3.939   6.135   9.328 -2.8364  3.0846  1.0567
  112OSM   H14T11647   3.788   6.146   9.252 -0.9990 -1.8738  1.1632
  112OSM   C15S11648   3.969   6.078   9.121  0.4340  0.2350  0.5000
  112OSM   H15S11649   3.900   6.016   9.060  0.5098 -0.9236  1.5765
  112OSM   H15T11650   4.065   6.031   9.151 -0.1629 -0.0183  2.1090
  112OSM   C16S11651   4.006   6.214   9.062  0.5295 -0.2981  0.3311
  112OSM   H16S11652   4.054   6.269   9.146  0.7826 -1.1206  0.7344
  112OSM   H16T11653   3.914   6.275   9.049  0.6954 -0.3362 -1.0928
  112OSM   C17S11654   4.089   6.194   8.927 -0.1961  0.7321  0.0374
  112OSM   H17S11655   4.025   6.135   8.858  2.0858 -1.2535 -0.5172
  112OSM   H17T11656   4.175   6.130   8.957 -0.4603 -0.4058 -1.5183
  112OSM   C18S11657   4.143   6.324   8.867 -0.0309  0.2972 -0.3302
  112OSM   H18S11658   4.210   6.376   8.938  0.5072 -2.0861  1.0100
  112OSM   H18T11659   4.055   6.387   8.839  0.0436 -0.6583 -3.0148
  112OSM   H18U11660   4.199   6.296   8.775  0.1876  1.5177 -0.5942
  112OSM    C1F11661   3.913   5.872  10.696 -0.1223  0.2236 -0.2375
  112OSM     OF11662   3.833   5.938  10.762 -0.4780  0.4255 -0.2805
  112OSM    C2F11663   3.906   5.724  10.691  0.6070 -0.3438 -0.0810
  112OSM    H2F11664   3.878   5.692  10.794 -0.3834 -0.9268 -0.5246
  112OSM    H2G11665   4.010   5.692  10.669  0.5328 -0.8033  0.2203
  112OSM    C3F11666   3.797   5.673  10.594 -0.0557  0.2655  0.1198
  112OSM    H3F11667   3.706   5.724  10.634  1.3832  1.2844  2.3122
  112OSM    H3G11668   3.786   5.566  10.622 -0.1310  0.6065  1.4334
  112OSM    C4F11669   3.821   5.706  10.445  0.2793  0.7846 -0.5721
  112OSM    H4F11670   3.924   5.672  10.420 -0.3444 -1.1508 -0.6752
  112OSM    H4G11671   3.810   5.816  10.444  0.4386  0.8038 -0.2966
  112OSM    C5F11672   3.712   5.636  10.363  0.3765 -0.1555 -0.9127
  112OSM    H5F11673   3.613   5.666  10.404  0.5119 -0.8907 -0.0212
  112OSM    H5G11674   3.727   5.526  10.361  2.2406  0.0629 -1.7849
  112OSM    C6F11675   3.731   5.691  10.221  0.0794 -0.3666 -0.0611
  112OSM    H6F11676   3.839   5.674  10.199  1.3887  3.8123  2.0472
  112OSM    H6G11677   3.716   5.802  10.221  0.0482 -0.3584 -1.2984
  112OSM    C7F11678   3.630   5.635  10.130 -0.0379 -0.5186 -0.1300
  112OSM    H7F11679   3.534   5.667  10.177 -0.1237 -0.6286 -0.2312
  112OSM    H7G11680   3.633   5.524  10.131 -2.1110 -0.6105  0.6870
  112OSM    C8F11681   3.637   5.682   9.978 -0.1869 -0.0388 -0.1804
  112OSM    H8F11682   3.644   5.793   9.976 -1.6613  0.0694 -0.4959
  112OSM    H8G11683   3.539   5.657   9.930 -0.8305 -1.8606  1.9357
  112OSM    C9F11684   3.750   5.612   9.905 -0.1280  0.6485 -0.2723
  112OSM    H9F11685   3.844   5.621   9.960 -1.0259  0.9728  1.2610
  112OSM   C10F11686   3.738   5.525   9.799  0.2199  0.1989 -0.6511
  112OSM   H10F11687   3.832   5.482   9.762  0.4280 -0.7340  0.8692
  112OSM   C11F11688   3.608   5.492   9.721  0.1280 -0.3648 -0.2675
  112OSM   H11F11689   3.532   5.472   9.799 -0.1794  0.3629 -0.3772
  112OSM   H11G11690   3.621   5.395   9.667  0.9441 -0.0430 -0.6557
  112OSM   C12F11691   3.545   5.599   9.634 -0.2822 -0.3298 -0.2997
  112OSM   H12F11692   3.504   5.685   9.692 -0.3354 -0.9977  0.6695
  112OSM   H12G11693   3.457   5.548   9.590  0.0991 -0.5413 -0.8265
  112OSM   C13F11694   3.628   5.642   9.513  0.1823 -0.0963 -0.4271
  112OSM   H13F11695   3.664   5.551   9.461  0.1548 -0.1367 -0.3761
  112OSM   H13G11696   3.719   5.701   9.535  0.9737 -0.8552 -1.5713
  112OSM   C14F11697   3.543   5.722   9.410 -0.4451 -0.2659 -0.5328
  112OSM   H14F11698   3.618   5.739   9.329  0.6464 -1.8518  0.0959
  112OSM   H14G11699   3.515   5.823   9.446 -0.3003 -1.1815  2.3834
  112OSM   C15F11700   3.422   5.643   9.362 -0.4781  0.1340 -0.1748
  112OSM   H15F11701   3.339   5.640   9.436 -0.0433 -1.3012  0.2905
  112OSM   H15G11702   3.442   5.535   9.348 -0.8136  0.2828 -2.0646
  112OSM   C16F11703   3.368   5.703   9.232  0.6213 -0.0309  0.3879
  112OSM   H16F11704   3.446   5.713   9.153  1.4138  0.4693  1.2145
  112OSM   H16G11705   3.345   5.806   9.266  2.5817  0.7726 -0.5944
  112OSM   C17F11706   3.244   5.628   9.166 -0.2498  0.5164 -0.2542
  112OSM   H17F11707   3.152   5.637   9.227 -0.4176  0.6334 -0.5233
  112OSM   H17G11708   3.263   5.520   9.147  1.3198  0.6618  0.3099
  112OSM   C18F11709   3.212   5.689   9.028  0.3300 -0.1763  0.4299
  112OSM   H18F11710   3.299   5.698   8.959  0.6221 -1.8786  0.5213
  112OSM   H18G11711   3.176   5.794   9.036 -0.7129 -0.5847  1.4252
  112OSM   H18H11712   3.134   5.627   8.979  0.5556 -0.7414  0.7685
  113OSM      N11713   5.003   4.953  11.196  0.0328 -0.1973 -0.4623
  113OSM    C1511714   5.043   5.090  11.149  0.3040 -0.2997 -0.0114
  113OSM   H15A11715   5.060   5.078  11.043  1.4936  0.3001  0.0978
  113OSM   H15B11716   5.127   5.128  11.204  0.5055 -0.9336  0.1331
  113OSM   H15C11717   4.951   5.147  11.152  0.7122  0.4787 -1.5599
  113OSM    C1411718   5.105   4.857  11.163  0.6037  0.2183  0.5055
  113OSM   H14A11719   5.078   4.755  11.190  3.3733 -0.8791 -0.4829
  113OSM   H14B11720   5.196   4.878  11.218  0.5371 -0.1162  0.7480
  113OSM   H14C11721   5.125   4.847  11.058  1.0924  0.9257  0.5302
  113OSM    C1311722   4.982   4.957  11.341  0.3994  0.4622 -0.0410
  113OSM   H13A11723   4.913   5.038  11.362  1.4348  0.6675  3.1317
  113OSM   H13B11724   5.065   4.998  11.397  1.8888  0.3193 -2.0588
  113OSM   H13C11725   4.952   4.862  11.382 -0.1358 -0.3463 -2.1815
  113OSM    C1211726   4.870   4.916  11.126 -0.0306  0.4459 -0.2585
  113OSM   H12A11727   4.891   4.911  11.020  0.7477  0.4230 -0.1040
  113OSM   H12B11728   4.795   4.992  11.141 -3.7103 -3.0560  1.1717
  113OSM    C1111729   4.809   4.779  11.164  0.2183  0.8261 -0.4360
  113OSM   H11A11730   4.706   4.776  11.123 -1.0837  3.7914  2.2463
  113OSM   H11B11731   4.787   4.775  11.273  1.1741  1.9164 -0.1907
  113OSM      P11732   4.849   4.586  10.990 -0.3061 -0.2624  0.2207
  113OSM    O1311733   4.979   4.537  10.948 -0.1201 -0.0320 -0.1112
  113OSM    O1411734   4.737   4.496  11.012  0.6104  0.1056 -0.5550
  113OSM    O1111735   4.791   4.688  10.885  0.0865 -0.3303  0.2399
  113OSM    O1211736   4.883   4.666  11.119  0.5388 -0.6071  0.4806
  113OSM    C1S11737   4.861   4.791  10.815  0.2667 -0.3176 -0.3426
  113OSM    H1S11738   4.958   4.821  10.860  0.7049  0.4943 -1.7379
  113OSM    H1T11739   4.800   4.884  10.805 -2.1541 -1.5448  1.9764
  113OSM     NF11740   4.977   4.841  10.603 -0.2515 -0.4518 -0.2137
  113OSM    HNF11741   4.940   4.906  10.537 -3.0788 -0.5417  1.1084
  113OSM    C2S11742   4.886   4.751  10.665  0.4581  0.0342  0.3868
  113OSM    H2S11743   4.935   4.651  10.663  1.1018  0.2888  2.0738
  113OSM    C3S11744   4.745   4.744  10.588  0.2918 -0.3652 -0.5771
  113OSM    H3S11745   4.680   4.833  10.602 -0.2075 -0.7423 -0.4481
  113OSM     O311746   4.666   4.639  10.652  0.0849  0.2458 -0.1271
  113OSM    HO311747   4.685   4.647  10.746  0.6703  4.7747 -0.3936
  113OSM    C4S11748   4.750   4.723  10.442  0.0884  0.7332  0.0662
  113OSM    H4S11749   4.774   4.618  10.421  0.6877  0.9721 -0.4529
  113OSM    C5S11750   4.730   4.808  10.339  0.3564  0.1616  0.2247
  113OSM    H5S11751   4.715   4.914  10.363 -1.2924 -0.2687  1.2879
  113OSM    C6S11752   4.755   4.773  10.198 -0.8244 -0.2168  0.3622
  113OSM    H6S11753   4.775   4.664  10.193  0.5685  0.0715 -1.0082
  113OSM    H6T11754   4.848   4.828  10.171 -1.2169  0.1177 -0.3432
  113OSM    C7S11755   4.651   4.824  10.099  1.1668 -0.1736  0.3098
  113OSM    H7S11756   4.640   4.933  10.116  2.5398  0.2247 -1.1200
  113OSM    H7T11757   4.548   4.795  10.128  0.9807  1.6143  1.6124
  113OSM    C8S11758   4.668   4.805   9.945 -0.2481 -0.3841 -0.0217
  113OSM    H8S11759   4.708   4.705   9.916  1.8789  0.6351 -0.8151
  113OSM    H8T11760   4.754   4.866   9.911  1.1091 -0.6315  2.7162
  113OSM    C9S11761   4.542   4.847   9.863 -0.5049  0.4226 -0.4116
  113OSM    H9S11762   4.516   4.951   9.892 -0.5923  0.4553 -0.6093
  113OSM    H9T11763   4.457   4.787   9.903  0.5980 -1.5463 -0.8477
  113OSM   C10S11764   4.551   4.825   9.710 -0.3865  0.5480 -0.2402
  113OSM   H10S11765   4.447   4.831   9.670  0.7139  1.3256 -3.2969
  113OSM   H10T11766   4.592   4.722   9.696 -1.8271 -0.0720 -0.1236
  113OSM   C11S11767   4.633   4.927   9.634 -0.2680 -0.1072 -0.1227
  113OSM   H11S11768   4.736   4.936   9.675  0.8016  2.2249 -2.8952
  113OSM   H11T11769   4.598   5.032   9.645  1.3400  0.2935  1.6280
  113OSM   C12S11770   4.645   4.900   9.483  0.4287  0.1170  0.9205
  113OSM   H12S11771   4.677   4.796   9.458 -0.9001 -0.5245  1.7327
  113OSM   H12T11772   4.731   4.959   9.447  0.1243  0.0495  0.0617
  113OSM   C13S11773   4.518   4.933   9.408 -0.3838 -0.0412  0.0188
  113OSM   H13S11774   4.476   5.031   9.440  0.2746  0.1052  0.4451
  113OSM   H13T11775   4.443   4.852   9.420 -0.0172 -1.0965 -3.5620
  113OSM   C14S11776   4.539   4.938   9.253 -0.3313  0.6799  0.6008
  113OSM   H14S11777   4.605   5.024   9.228 -2.0065  2.1677  1.0454
  113OSM   H14T11778   4.439   4.958   9.209  0.2463  2.0075 -0.1616
  113OSM   C15S11779   4.591   4.810   9.193 -0.3703 -0.4004 -0.1691
  113OSM   H15S11780   4.549   4.730   9.258  0.5038  0.5672  1.6731
  113OSM   H15T11781   4.700   4.801   9.212 -0.6674 -0.7004  1.5720
  113OSM   C16S11782   4.566   4.776   9.049 -0.2010 -0.5143 -0.7195
  113OSM   H16S11783   4.464   4.813   9.024  0.2732  1.1838 -0.2804
  113OSM   H16T11784   4.568   4.665   9.045 -0.6474 -0.5675  0.2691
  113OSM   C17S11785   4.679   4.841   8.954  0.4558  1.5279  0.3800
  113OSM   H17S11786   4.678   4.945   8.994 -1.8757  1.9479 -0.5727
  113OSM   H17T11787   4.632   4.834   8.853 -2.2311  3.6941  1.3256
  113OSM   C18S11788   4.813   4.776   8.955  0.2128  0.5289 -0.2075
  113OSM   H18S11789   4.805   4.668   8.934  2.8670  0.2036  0.1542
  113OSM   H18T11790   4.859   4.775   9.056 -2.4289 -1.3499  1.0932
  113OSM   H18U11791   4.880   4.819   8.877 -0.7661  0.5877 -1.0325
  113OSM    C1F11792   5.106   4.867  10.632  0.4769 -0.0714  1.1715
  113OSM     OF11793   5.162   4.832  10.735  0.4940  0.5651 -0.3754
  113OSM    C2F11794   5.175   4.929  10.516 -0.1304  0.3998 -0.4359
  113OSM    H2F11795   5.179   5.040  10.521  2.1239  0.3317  1.9733
  113OSM    H2G11796   5.110   4.915  10.427  2.8977 -0.0010 -2.7471
  113OSM    C3F11797   5.319   4.901  10.496 -0.4626 -0.6011 -1.1036
  113OSM    H3F11798   5.336   4.791  10.508  0.4825 -0.4367 -0.8846
  113OSM    H3G11799   5.371   4.957  10.576 -2.6406  1.0927 -0.7624
  113OSM    C4F11800   5.375   4.940  10.362  0.3290  0.0850 -0.5509
  113OSM    H4F11801   5.361   5.048  10.341 -1.8321  0.1771  1.0116
  113OSM    H4G11802   5.321   4.891  10.278 -0.8051 -1.7105  1.1231
  113OSM    C5F11803   5.523   4.913  10.346  0.5058 -0.2155 -0.1713
  113OSM    H5F11804   5.543   4.804  10.349  0.5148 -0.2568 -1.1875
  113OSM    H5G11805   5.583   4.974  10.417  1.7635 -1.0218 -0.5087
  113OSM    C6F11806   5.563   4.953  10.199  0.5809 -0.0923  0.9398
  113OSM    H6F11807   5.539   5.061  10.185  0.1215 -0.3727 -0.7071
  113OSM    H6G11808   5.497   4.887  10.138  2.5675 -1.9229  0.6542
  113OSM    C7F11809   5.709   4.922  10.175  0.4787  0.4380  0.2205
  113OSM    H7F11810   5.740   4.842  10.245 -2.6587 -0.3275  0.8782
  113OSM    H7G11811   5.766   5.008  10.216  0.7534  1.1918 -1.6545
  113OSM    C8F11812   5.766   4.885  10.033  0.2025  0.1448 -0.4052
  113OSM    H8F11813   5.876   4.870  10.036  0.0589 -0.7634  0.5706
  113OSM    H8G11814   5.753   4.973   9.966 -1.3356 -0.1955 -0.5850
  113OSM    C9F11815   5.699   4.758   9.965  0.3119 -0.3394 -0.1026
  113OSM    H9F11816   5.711   4.661  10.015  0.0685 -0.9064 -1.1073
  113OSM   C10F11817   5.628   4.765   9.852 -0.0445  0.0704  1.0675
  113OSM   H10F11818   5.584   4.673   9.810  1.6116  0.9295 -3.0526
  113OSM   C11F11819   5.594   4.882   9.755 -0.0356  0.2843  0.0928
  113OSM   H11F11820   5.600   4.984   9.798 -2.2465  0.8670 -0.7989
  113OSM   H11G11821   5.484   4.873   9.738 -0.1610  1.0728  0.4584
  113OSM   C12F11822   5.660   4.863   9.614 -0.4634  1.0945  0.1059
  113OSM   H12F11823   5.608   4.932   9.545 -0.9981 -0.8153 -1.4991
  113OSM   H12G11824   5.640   4.759   9.580 -0.4820  0.5984  1.5260
  113OSM   C13F11825   5.803   4.909   9.613 -0.5681 -0.0184  0.0515
  113OSM   H13F11826   5.861   4.879   9.703 -0.8051  1.0833  0.5833
  113OSM   H13G11827   5.801   5.020   9.614  2.2790  0.1237  0.3825
  113OSM   C14F11828   5.879   4.862   9.495  0.4449 -0.5397 -0.0750
  113OSM   H14F11829   5.984   4.897   9.497  0.9866 -2.0655 -0.6201
  113OSM   H14G11830   5.838   4.907   9.402  2.3150  2.5414  0.4786
  113OSM   C15F11831   5.900   4.712   9.477  0.1204 -0.2651 -0.4243
  113OSM   H15F11832   5.800   4.664   9.469 -0.0871 -0.7626  3.1992
  113OSM   H15G11833   5.946   4.667   9.567 -0.5018  1.0953  0.6181
  113OSM   C16F11834   5.984   4.677   9.351  0.8684  0.4154  0.1985
  113OSM   H16F11835   6.089   4.708   9.371  1.5911  0.9780 -3.6664
  113OSM   H16G11836   5.964   4.740   9.261  1.5844  1.9166  1.0535
  113OSM   C17F11837   5.982   4.522   9.315  0.3738 -0.5559  0.2800
  113OSM   H17F11838   5.876   4.494   9.302 -0.3593  2.7614 -2.3280
  113OSM   H17G11839   6.029   4.483   9.408 -0.4064 -0.1697  0.8466
  113OSM   C18F11840   6.059   4.480   9.195  0.7813  0.3761  0.1957
  113OSM   H18F11841   6.053   4.370   9.178  2.3414  0.7214 -3.5410
  113OSM   H18G11842   6.166   4.509   9.206  0.6769  1.3951 -1.2645
  113OSM   H18H11843   6.021   4.528   9.103  0.6467 -0.6229 -0.2830
  114OSM      N11844   1.330   4.451  10.878 -0.2845 -0.5536  0.0786
  114OSM    C1511845   1.231   4.368  10.946  0.2812 -0.8783  0.0588
  114OSM   H15A11846   1.264   4.305  11.027 -0.0369 -2.0899 -0.7180
  114OSM   H15B11847   1.180   4.310  10.871 -0.8223  2.0706 -1.6411
  114OSM   H15C11848   1.147   4.429  10.975 -0.4576 -1.7501 -0.1994
  114OSM    C1411849   1.416   4.517  10.995 -0.0296 -0.2810 -0.8973
  114OSM   H14A11850   1.464   4.440  11.053 -2.4708  0.3745  2.3089
  114OSM   H14B11851   1.344   4.568  11.058 -0.3320 -1.7618 -0.0103
  114OSM   H14C11852   1.493   4.587  10.965 -0.8201  1.2249  0.3766
  114OSM    C1311853   1.423   4.355  10.806  0.4430 -0.3887 -0.5298
  114OSM   H13A11854   1.363   4.313  10.727 -0.0704  0.6960 -0.7392
  114OSM   H13B11855   1.456   4.281  10.878  3.8955  2.4754  1.1087
  114OSM   H13C11856   1.501   4.406  10.752  2.2409 -1.2350  1.1494
  114OSM    C1211857   1.267   4.561  10.789 -0.5042  0.7903  0.0466
  114OSM   H12A11858   1.190   4.511  10.731 -1.8769  1.0359  1.5772
  114OSM   H12B11859   1.344   4.598  10.724  0.1959 -1.1137 -0.2894
  114OSM    C1111860   1.204   4.679  10.863  0.0833  0.6327 -0.7651
  114OSM   H11A11861   1.189   4.765  10.794  0.9584  1.7812  0.4207
  114OSM   H11B11862   1.276   4.709  10.942  1.0796 -0.8073 -1.0767
  114OSM      P11863   0.950   4.609  10.861 -0.1125  0.2267  0.3427
  114OSM    O1311864   0.946   4.458  10.853  0.4197  0.0483 -0.5288
  114OSM    O1411865   0.843   4.683  10.929  0.3446  0.8236  0.0872
  114OSM    O1111866   0.969   4.664  10.715  0.0850  0.1079  0.3351
  114OSM    O1211867   1.089   4.640  10.929  0.1437 -0.5420 -0.2922
  114OSM    C1S11868   0.940   4.804  10.698 -0.0457 -0.3309  0.4329
  114OSM    H1S11869   0.996   4.870  10.769  0.9217 -0.0621 -0.5579
  114OSM    H1T11870   0.832   4.821  10.718  0.0540  0.6886  0.2061
  114OSM     NF11871   0.979   4.996  10.556 -0.2269 -0.4237  0.0910
  114OSM    HNF11872   0.903   5.061  10.559 -0.8863 -1.0943 -1.2502
  114OSM    C2S11873   0.971   4.855  10.560 -0.1998  0.1265  0.1818
  114OSM    H2S11874   1.066   4.811  10.521  0.3668 -0.0559  1.6866
  114OSM    C3S11875   0.855   4.809  10.462  0.2578  0.1234  0.2888
  114OSM    H3S11876   0.770   4.877  10.480 -0.8147 -0.2201 -2.8622
  114OSM     O311877   0.819   4.667  10.467  0.3966 -0.4866  0.2136
  114OSM    HO311878   0.850   4.623  10.547  2.0289  0.9922  0.4551
  114OSM    C4S11879   0.892   4.836  10.319  0.0201  0.4329 -0.8834
  114OSM    H4S11880   0.984   4.791  10.280  1.7911  1.3023  1.9755
  114OSM    C5S11881   0.813   4.908  10.241 -0.0643  0.0425 -0.0349
  114OSM    H5S11882   0.723   4.960  10.278  0.5809  1.9993 -1.0487
  114OSM    C6S11883   0.838   4.932  10.092  0.4350 -0.1441  0.6067
  114OSM    H6S11884   0.742   4.928  10.036 -0.0874  0.8414  1.4127
  114OSM    H6T11885   0.892   4.847  10.044  2.1201  1.3841 -0.3478
  114OSM    C7S11886   0.902   5.063  10.061 -0.7868 -0.2723  0.4089
  114OSM    H7S11887   0.999   5.060  10.114 -0.8165 -0.5449  0.4454
  114OSM    H7T11888   0.836   5.142  10.104  0.4688  0.5531  0.8746
  114OSM    C8S11889   0.927   5.083   9.914  0.0613 -0.1861  0.0750
  114OSM    H8S11890   0.836   5.037   9.870 -1.5473  2.0010  0.9450
  114OSM    H8T11891   1.013   5.023   9.876 -0.8396 -0.0778 -2.3319
  114OSM    C9S11892   0.950   5.225   9.866  0.3291  0.0965  1.0559
  114OSM    H9S11893   1.040   5.272   9.912 -0.0768  0.6542  1.2859
  114OSM    H9T11894   0.862   5.284   9.900 -0.4911  0.5385 -1.5907
  114OSM   C10S11895   0.972   5.234   9.711  0.2497  0.8424 -0.6298
  114OSM   H10S11896   1.069   5.197   9.672  1.4323 -0.1714  2.8443
  114OSM   H10T11897   0.988   5.342   9.688 -1.3776  1.1557 -0.3676
  114OSM   C11S11898   0.859   5.172   9.631 -0.3571 -0.0380  0.2675
  114OSM   H11S11899   0.762   5.209   9.673 -1.4573 -1.1162 -1.2279
  114OSM   H11T11900   0.849   5.062   9.630 -1.0416 -0.0292  1.9953
  114OSM   C12S11901   0.852   5.233   9.486  0.0438  0.0392 -0.4545
  114OSM   H12S11902   0.945   5.206   9.432 -0.9342 -0.8489 -1.7404
  114OSM   H12T11903   0.841   5.343   9.494 -0.3391 -0.0947  1.3829
  114OSM   C13S11904   0.720   5.196   9.411  0.0230 -0.0187 -0.1024
  114OSM   H13S11905   0.631   5.248   9.453 -1.3037 -1.6761 -0.7420
  114OSM   H13T11906   0.711   5.085   9.412  0.6910 -0.0727  0.2829
  114OSM   C14S11907   0.721   5.225   9.257  0.4105  0.1984 -0.2585
  114OSM   H14S11908   0.774   5.136   9.215  1.8244 -0.3925  2.5190
  114OSM   H14T11909   0.785   5.313   9.235  0.7352 -0.0441 -0.2924
  114OSM   C15S11910   0.579   5.242   9.193  0.8173  0.2605  0.1837
  114OSM   H15S11911   0.543   5.346   9.201  1.7780  0.5500  0.9003
  114OSM   H15T11912   0.511   5.174   9.247  0.0543  1.8998  1.3456
  114OSM   C16S11913   0.568   5.196   9.050 -0.3012  0.0993  0.0423
  114OSM   H16S11914   0.587   5.086   9.051 -0.3367  0.0701 -1.1243
  114OSM   H16T11915   0.647   5.246   8.990  0.9135  0.0061  1.5048
  114OSM   C17S11916   0.423   5.211   8.988  0.1416  0.2325  0.2711
  114OSM   H17S11917   0.441   5.176   8.884  4.9772  2.0662  0.2444
  114OSM   H17T11918   0.381   5.313   8.976 -1.3008 -0.3912 -0.2407
  114OSM   C18S11919   0.311   5.143   9.065 -0.0961  0.3689 -0.5011
  114OSM   H18S11920   0.324   5.034   9.052  0.0184  0.5594 -2.2378
  114OSM   H18T11921   0.210   5.157   9.023  0.5963  0.9368 -2.0643
  114OSM   H18U11922   0.309   5.161   9.175 -0.3400 -1.1540 -0.2292
  114OSM    C1F11923   1.087   5.063  10.601  0.2243  0.3584  0.0964
  114OSM     OF11924   1.192   5.006  10.625  0.1107  0.1318 -0.2605
  114OSM    C2F11925   1.057   5.204  10.637 -0.0267 -0.3119 -0.7925
  114OSM    H2F11926   1.045   5.208  10.747 -2.2460 -2.0150 -0.8897
  114OSM    H2G11927   0.963   5.234  10.587 -1.2190 -1.1746  0.8310
  114OSM    C3F11928   1.176   5.296  10.606  0.5306 -0.0490  0.0129
  114OSM    H3F11929   1.265   5.267  10.666  0.1642  1.2642  1.2596
  114OSM    H3G11930   1.161   5.396  10.651 -0.0866 -0.6790  1.2778
  114OSM    C4F11931   1.196   5.303  10.454  0.1886  0.1472 -0.5975
  114OSM    H4F11932   1.097   5.322  10.408 -1.2093  0.3521  2.2647
  114OSM    H4G11933   1.229   5.208  10.406 -1.1847  0.2545 -1.8241
  114OSM    C5F11934   1.278   5.432  10.415 -0.8176 -0.3323 -0.8912
  114OSM    H5F11935   1.360   5.444  10.489  0.6055  1.1115 -2.6275
  114OSM    H5G11936   1.215   5.523  10.433  0.3244  0.3994 -0.4777
  114OSM    C6F11937   1.347   5.416  10.284 -0.1598 -0.5174 -0.2219
  114OSM    H6F11938   1.392   5.315  10.275 -0.3450 -0.4358 -2.8529
  114OSM    H6G11939   1.431   5.488  10.278  1.4487 -2.0711  1.9795
  114OSM    C7F11940   1.251   5.446  10.163 -0.1394 -0.8589 -0.3323
  114OSM    H7F11941   1.229   5.554  10.167 -1.4879 -1.1526  1.6941
  114OSM    H7G11942   1.161   5.386  10.189 -0.8163 -0.0479 -0.7782
  114OSM    C8F11943   1.297   5.389  10.031 -0.5929  0.6799  0.1623
  114OSM    H8F11944   1.219   5.368   9.955  0.5980  0.1662 -0.9607
  114OSM    H8G11945   1.329   5.286  10.060 -1.7514  1.2931  4.2633
  114OSM    C9F11946   1.410   5.475   9.974 -0.7010  0.7839 -0.3043
  114OSM    H9F11947   1.470   5.522  10.054  0.0947 -1.7220  0.6578
  114OSM   C10F11948   1.430   5.506   9.848  0.1448  0.3292 -0.0883
  114OSM   H10F11949   1.519   5.566   9.826  0.8477 -0.3427  0.8547
  114OSM   C11F11950   1.336   5.473   9.740 -0.2762  0.2617  0.4789
  114OSM   H11F11951   1.329   5.560   9.670 -1.6888 -0.4975 -0.3703
  114OSM   H11G11952   1.229   5.463   9.767 -0.4542 -2.5052 -0.9054
  114OSM   C12F11953   1.377   5.349   9.657 -0.2505 -0.6183 -0.5095
  114OSM   H12F11954   1.383   5.260   9.723 -1.2014 -0.6042 -0.3896
  114OSM   H12G11955   1.479   5.365   9.616 -1.2244  2.1208 -2.1462
  114OSM   C13F11956   1.296   5.325   9.527  0.2657  0.3992  0.4754
  114OSM   H13F11957   1.189   5.333   9.556  0.4048  1.6613  0.6906
  114OSM   H13G11958   1.309   5.219   9.495  1.3880  0.8801 -0.7455
  114OSM   C14F11959   1.322   5.417   9.405 -0.0550 -0.1951  0.0265
  114OSM   H14F11960   1.313   5.521   9.442 -0.0980 -0.3001  0.3172
  114OSM   H14G11961   1.243   5.403   9.328  0.6825 -2.7735 -0.3689
  114OSM   C15F11962   1.457   5.404   9.335  0.5673 -1.6132 -0.2236
  114OSM   H15F11963   1.445   5.307   9.284  0.0446 -2.6895  1.8512
  114OSM   H15G11964   1.546   5.396   9.402 -0.1445 -2.8733  0.5924
  114OSM   C16F11965   1.491   5.516   9.233  0.6558  0.3805  0.5356
  114OSM   H16F11966   1.426   5.517   9.143 -0.0172  2.2680  0.9800
  114OSM   H16G11967   1.589   5.492   9.187 -0.2337  0.8532 -1.7400
  114OSM   C17F11968   1.497   5.657   9.287  0.1320  0.2252 -0.1658
  114OSM   H17F11969   1.395   5.692   9.315  1.2721  1.3908  3.1196
  114OSM   H17G11970   1.547   5.716   9.207  0.3941 -0.9524 -0.8823
  114OSM   C18F11971   1.585   5.668   9.416  0.0420  0.8309  0.2182
  114OSM   H18F11972   1.536   5.622   9.504 -0.9497  4.4084  1.7174
  114OSM   H18G11973   1.589   5.777   9.434  0.5483  1.2909 -2.2845
  114OSM   H18H11974   1.688   5.626   9.409  0.1347  1.0557  0.2219
  115OSM      N11975   5.129   5.835  11.047 -0.7145  0.4543  0.3385
  115OSM    C1511976   5.000   5.908  11.017 -0.3068  0.6418  1.0674
  115OSM   H15A11977   4.998   6.004  11.065  1.0379  0.7293  0.9848
  115OSM   H15B11978   4.913   5.849  11.042  0.0382 -0.6630 -0.5799
  115OSM   H15C11979   4.999   5.930  10.911 -1.7348 -0.5937  0.7850
  115OSM    C1411980   5.129   5.793  11.191 -0.3189  0.1085  0.0239
  115OSM   H14A11981   5.201   5.715  11.208 -1.7173 -1.2524  0.0142
  115OSM   H14B11982   5.041   5.740  11.225  0.9649 -0.5191  2.5316
  115OSM   H14C11983   5.150   5.883  11.246  0.7242 -0.6662  0.9158
  115OSM    C1311984   5.155   5.714  10.962 -0.2823  0.1013  0.1693
  115OSM   H13A11985   5.251   5.666  10.977 -0.0709  0.4264 -0.1220
  115OSM   H13B11986   5.145   5.741  10.858 -0.2827  0.1474  0.1816
  115OSM   H13C11987   5.081   5.637  10.980 -0.4038  0.5740  1.9041
  115OSM    C1211988   5.247   5.934  11.028 -0.2796  0.1999  0.7330
  115OSM   H12A11989   5.322   5.908  11.101 -0.2644  2.3691  1.5567
  115OSM   H12B11990   5.210   6.031  11.054  1.4888  1.4053 -0.9520
  115OSM    C1111991   5.308   5.952  10.892  0.2503  0.6969  0.0020
  115OSM   H11A11992   5.352   5.860  10.849  0.9284 -0.4549  2.9401
  115OSM   H11B11993   5.394   6.020  10.910  0.2736  1.8592 -3.6589
  115OSM      P11994   5.168   6.160  10.798  0.2578 -0.2877  0.8694
  115OSM    O1311995   5.020   6.155  10.803  0.4746  0.3161 -0.3511
  115OSM    O1411996   5.238   6.238  10.900 -0.1187  0.6091  1.0221
  115OSM    O1111997   5.214   6.205  10.654 -0.2458 -0.3554 -0.2046
  115OSM    O1211998   5.216   6.010  10.800 -0.2113 -0.4883 -0.4777
  115OSM    C1S11999   5.346   6.169  10.626 -0.2176 -0.5336  0.3303
  115OSM    H1S12000   5.376   6.068  10.659  0.8648  0.0450  1.1924
  115OSM    H1T12001   5.410   6.246  10.675 -1.1197 -0.6457  1.7373
  115OSM     NF12002   5.508   6.117  10.451  0.0510 -0.2711 -0.3980
  115OSM    HNF12003   5.586   6.179  10.444 -1.3156  1.3962 -1.7788
  115OSM    C2S12004   5.374   6.172  10.475  0.3943  0.3539  0.4360
  115OSM    H2S12005   5.299   6.102  10.430  2.5355 -0.6995 -1.7633
  115OSM    C3S12006   5.363   6.311  10.402 -0.1469  0.2006  0.3884
  115OSM    H3S12007   5.444   6.371  10.449  1.4208 -0.0739 -1.8265
  115OSM     O312008   5.229   6.352  10.421 -0.0426  0.5005  0.2476
  115OSM    HO312009   5.186   6.285  10.475 -0.1391  0.8447  0.6004
  115OSM    C4S12010   5.403   6.302  10.260  0.3998 -0.5652  0.1086
  115OSM    H4S12011   5.509   6.275  10.255 -0.4454 -4.4172  0.4496
  115OSM    C5S12012   5.324   6.318  10.155 -0.3011  1.0925  0.5950
  115OSM    H5S12013   5.217   6.328  10.179 -0.3795 -0.6551  1.1526
  115OSM    C6S12014   5.360   6.298  10.011  0.4179  0.2320  0.4836
  115OSM    H6S12015   5.311   6.380   9.954  2.9354  1.7724  0.3743
  115OSM    H6T12016   5.312   6.203   9.979 -1.1194  1.1920 -0.1650
  115OSM    C7S12017   5.513   6.304   9.989  0.2767 -0.3861 -0.1508
  115OSM    H7S12018   5.564   6.214  10.030 -0.8940 -0.7177  0.6443
  115OSM    H7T12019   5.551   6.397  10.038  1.0282 -0.5723 -0.3781
  115OSM    C8S12020   5.559   6.336   9.847 -0.3224 -0.2085 -0.0060
  115OSM    H8S12021   5.666   6.366   9.851 -0.9069  1.8693  1.7668
  115OSM    H8T12022   5.497   6.419   9.809  0.8402  0.2763 -0.9173
  115OSM    C9S12023   5.545   6.222   9.757  0.1941  1.0619  0.7594
  115OSM    H9S12024   5.452   6.162   9.760  1.1832 -0.6736 -0.6926
  115OSM    H9T12025   5.630   6.152   9.771 -2.2337 -2.7015 -1.6160
  115OSM   C10S12026   5.553   6.274   9.611  0.1769 -0.8309 -0.5810
  115OSM   H10S12027   5.644   6.335   9.593  0.4583 -0.4543  1.8219
  115OSM   H10T12028   5.461   6.330   9.583 -1.2196 -2.4579  0.5437
  115OSM   C11S12029   5.544   6.152   9.516 -0.0828 -0.0425 -1.3008
  115OSM   H11S12030   5.464   6.079   9.541  1.3875 -2.4687 -3.2290
  115OSM   H11T12031   5.639   6.098   9.535 -1.0405 -1.0223  1.1337
  115OSM   C12S12032   5.530   6.196   9.368 -0.2869  0.0797 -1.0357
  115OSM   H12S12033   5.610   6.269   9.345 -0.2690  0.0075 -1.2048
  115OSM   H12T12034   5.430   6.241   9.352  0.0322  1.0514 -0.3595
  115OSM   C13S12035   5.536   6.075   9.276 -0.0239  0.1109 -0.4581
  115OSM   H13S12036   5.447   6.010   9.275  1.0348 -1.3739 -0.7520
  115OSM   H13T12037   5.617   6.007   9.310 -1.0625 -1.6711 -1.4224
  115OSM   C14S12038   5.565   6.118   9.135 -0.2669 -0.9435 -0.5773
  115OSM   H14S12039   5.641   6.200   9.133 -2.1309  1.0267  2.0815
  115OSM   H14T12040   5.476   6.177   9.104  2.3510  1.9450 -3.5413
  115OSM   C15S12041   5.622   6.012   9.044  0.3871  0.5794  0.5142
  115OSM   H15S12042   5.543   5.935   9.031  0.5860  0.5042 -0.3084
  115OSM   H15T12043   5.715   5.965   9.082  0.5705  1.2881  0.9628
  115OSM   C16S12044   5.658   6.072   8.905 -0.1917 -0.1414 -0.5539
  115OSM   H16S12045   5.740   6.146   8.911 -0.8957  0.5954  4.6338
  115OSM   H16T12046   5.562   6.112   8.866  0.5033  0.4863 -1.6557
  115OSM   C17S12047   5.698   5.960   8.805  0.1247  0.1402  0.3076
  115OSM   H17S12048   5.641   5.866   8.821 -0.6723  0.8222  1.7070
  115OSM   H17T12049   5.804   5.931   8.822  1.1315  3.1621 -0.3184
  115OSM   C18S12050   5.680   5.985   8.654  0.5421 -0.8167 -0.6570
  115OSM   H18S12051   5.576   5.972   8.617 -0.5788  0.3868  1.8572
  115OSM   H18T12052   5.747   5.913   8.601  2.2056 -0.8958  1.4388
  115OSM   H18U12053   5.712   6.091   8.641  1.2822 -0.7865  1.1943
  115OSM    C1F12054   5.527   5.988  10.463 -0.1033  0.4585  0.4522
  115OSM     OF12055   5.449   5.905  10.496 -0.1199  0.4721 -0.5313
  115OSM    C2F12056   5.660   5.941  10.414  0.1813  0.3878  0.5986
  115OSM    H2F12057   5.709   5.896  10.503  0.2279 -1.5538 -0.3426
  115OSM    H2G12058   5.730   6.017  10.374  0.6519 -0.2520  0.1654
  115OSM    C3F12059   5.632   5.828  10.311 -0.6413  0.5093  0.6343
  115OSM    H3F12060   5.612   5.731  10.362  1.3419  0.5385  1.5805
  115OSM    H3G12061   5.733   5.813  10.267 -1.9938 -1.1748 -2.1669
  115OSM    C4F12062   5.535   5.861  10.200  0.2805  0.0921  1.3245
  115OSM    H4F12063   5.548   5.962  10.157  2.0192 -0.9018 -0.7163
  115OSM    H4G12064   5.438   5.860  10.254 -0.3968 -2.5112  0.2344
  115OSM    C5F12065   5.535   5.765  10.085  0.3720 -0.1993 -0.4608
  115OSM    H5F12066   5.439   5.762  10.028 -1.2793 -4.0385  2.1300
  115OSM    H5G12067   5.534   5.662  10.127 -2.7478 -0.0135  0.1554
  115OSM    C6F12068   5.651   5.784   9.988 -0.1276  0.1537  0.1485
  115OSM    H6F12069   5.751   5.760  10.030  0.6651  0.8122 -1.2894
  115OSM    H6G12070   5.659   5.894   9.974 -3.0832  0.1605 -2.8370
  115OSM    C7F12071   5.635   5.705   9.854  0.6203 -0.2909 -0.3701
  115OSM    H7F12072   5.555   5.751   9.792  1.1375 -0.1817 -0.9620
  115OSM    H7G12073   5.618   5.600   9.886 -0.6561  0.5863  2.1018
  115OSM    C8F12074   5.756   5.711   9.765 -0.9578  0.1056  0.3684
  115OSM    H8F12075   5.850   5.703   9.824  0.3901 -0.5953 -1.7360
  115OSM    H8G12076   5.767   5.809   9.714  0.8335 -1.3015 -2.2295
  115OSM    C9F12077   5.759   5.603   9.660  0.5044  0.0041  0.1254
  115OSM    H9F12078   5.757   5.499   9.695 -0.8603  0.0651  0.2602
  115OSM   C10F12079   5.750   5.612   9.524  0.8931 -1.0782 -0.0631
  115OSM   H10F12080   5.748   5.515   9.471 -2.2694 -1.8227  1.1950
  115OSM   C11F12081   5.724   5.745   9.443 -0.8122  0.6723  0.0150
  115OSM   H11F12082   5.745   5.837   9.501 -1.4407  2.3952 -2.3415
  115OSM   H11G12083   5.621   5.735   9.404 -0.2715  0.8662 -1.5310
  115OSM   C12F12084   5.821   5.767   9.322 -0.0846  0.0713 -0.7281
  115OSM   H12F12085   5.923   5.751   9.362  0.1161  1.5214 -0.6278
  115OSM   H12G12086   5.802   5.872   9.291 -0.8686  0.5815  1.3272
  115OSM   C13F12087   5.784   5.675   9.211  0.2834 -0.2059 -0.4472
  115OSM   H13F12088   5.711   5.723   9.143 -1.6073 -1.5014  0.5831
  115OSM   H13G12089   5.741   5.577   9.238 -0.3927  0.0136 -0.7088
  115OSM   C14F12090   5.905   5.666   9.119 -0.1564  0.1604  0.9111
  115OSM   H14F12091   5.995   5.630   9.173  0.1839 -0.4288 -0.0439
  115OSM   H14G12092   5.923   5.771   9.087 -0.0335  0.2938  1.3948
  115OSM   C15F12093   5.878   5.583   8.996  0.0390 -0.6188 -0.5478
  115OSM   H15F12094   5.787   5.628   8.951  0.0330 -1.6027 -1.5830
  115OSM   H15G12095   5.857   5.479   9.031  0.0532  0.1630  1.9507
  115OSM   C16F12096   5.991   5.581   8.893 -1.4239 -0.3264 -0.3504
  115OSM   H16F12097   6.088   5.566   8.945 -1.0772  0.8858 -0.5958
  115OSM   H16G12098   5.987   5.687   8.857  1.6417  1.1231  2.9875
  115OSM   C17F12099   5.976   5.495   8.765 -0.9110 -0.1358 -0.1758
  115OSM   H17F12100   5.963   5.388   8.795  2.6741 -0.8061 -0.4508
  115OSM   H17G12101   6.065   5.488   8.698 -1.5010 -2.0957 -0.8373
  115OSM   C18F12102   5.852   5.522   8.677  0.1202  0.1356  0.8711
  115OSM   H18F12103   5.771   5.521   8.753  1.2079 -2.6788  2.1123
  115OSM   H18G12104   5.848   5.441   8.601  0.1459 -0.6509  1.6971
  115OSM   H18H12105   5.856   5.622   8.628 -2.0213  0.5626  1.4576
  116OSM      N12106   2.217   0.706  10.941  0.1247  0.7266 -0.2034
  116OSM    C1512107   2.220   0.624  10.811  0.6015 -0.3948  0.5977
  116OSM   H15A12108   2.124   0.581  10.787 -0.3679  0.7072  2.3171
  116OSM   H15B12109   2.302   0.553  10.811  2.3112  1.4558  2.1270
  116OSM   H15C12110   2.238   0.692  10.729 -0.8008 -2.2801 -1.3862
  116OSM    C1412111   2.205   0.609  11.056  0.2805 -0.1238  0.5269
  116OSM   H14A12112   2.104   0.574  11.074 -0.5127  1.3812 -0.8011
  116OSM   H14B12113   2.232   0.658  11.148 -0.8376  2.2652 -0.3444
  116OSM   H14C12114   2.260   0.517  11.041  0.3660  0.0184 -0.0596
  116OSM    C1312115   2.346   0.773  10.954 -0.0274  0.6162 -0.0885
  116OSM   H13A12116   2.434   0.715  10.933  0.4013  1.6589 -1.2241
  116OSM   H13B12117   2.353   0.822  11.050  0.3089 -0.8618  0.6816
  116OSM   H13C12118   2.353   0.840  10.870  1.1172  1.3888  0.6054
  116OSM    C1212119   2.105   0.808  10.942  0.4877 -0.0562 -0.0224
  116OSM   H12A12120   2.099   0.855  11.039  0.0591 -0.3771  0.1100
  116OSM   H12B12121   2.007   0.764  10.929 -0.0589  1.0675  0.1703
  116OSM    C1112122   2.110   0.935  10.846  0.2688  0.2598 -0.4879
  116OSM   H11A12123   2.024   1.004  10.859  0.6936  0.7861 -0.4547
  116OSM   H11B12124   2.096   0.892  10.744 -0.5120 -0.4849 -0.0755
  116OSM      P12125   2.317   1.085  10.764 -0.3854  0.1981  0.1448
  116OSM    O1312126   2.313   1.229  10.796  0.1971 -0.0746 -0.3978
  116OSM    O1412127   2.453   1.022  10.755 -0.1338  0.0848  0.0504
  116OSM    O1112128   2.242   1.071  10.625  0.3599  0.1745  0.0707
  116OSM    O1212129   2.239   1.000  10.859  0.0418 -0.1689 -0.1121
  116OSM    C1S12130   2.279   1.008  10.505  0.1421  0.2653  0.3221
  116OSM    H1S12131   2.227   0.910  10.513  0.1370  0.4212  3.6403
  116OSM    H1T12132   2.387   0.991  10.489  0.7012  3.8189 -0.5927
  116OSM     NF12133   2.242   1.003  10.259  0.5354 -0.0774 -0.2935
  116OSM    HNF12134   2.316   1.030  10.197  0.6332  1.5634  0.4761
  116OSM    C2S12135   2.220   1.080  10.380 -0.5026  0.2410 -0.1214
  116OSM    H2S12136   2.109   1.080  10.393 -0.5028 -0.3767 -0.0762
  116OSM    C3S12137   2.270   1.224  10.366 -0.8331 -1.0451 -0.6263
  116OSM    H3S12138   2.378   1.213  10.340 -0.8572 -2.0492 -0.3670
  116OSM     O312139   2.264   1.315  10.483  0.2036  0.1560 -0.2631
  116OSM    HO312140   2.248   1.252  10.554 -1.5759  0.1267 -0.6468
  116OSM    C4S12141   2.196   1.291  10.254  0.7657  0.3759  0.4230
  116OSM    H4S12142   2.257   1.287  10.162  0.0807  0.4951 -0.0475
  116OSM    C5S12143   2.080   1.373  10.256 -0.3369  0.0249  0.1191
  116OSM    H5S12144   2.032   1.400  10.351  0.7646  0.8464  0.4680
  116OSM    C6S12145   2.024   1.422  10.127 -0.5654 -0.6688  0.9082
  116OSM    H6S12146   2.047   1.530  10.113  0.1267 -0.6037  2.4440
  116OSM    H6T12147   1.913   1.416  10.121 -0.9084  3.2954 -0.2728
  116OSM    C7S12148   2.072   1.359   9.990  0.1118  0.2244 -0.0847
  116OSM    H7S12149   2.067   1.248   9.996 -2.8231  0.2667 -0.5833
  116OSM    H7T12150   2.178   1.388   9.971  0.4821 -0.4422  0.8470
  116OSM    C8S12151   1.989   1.409   9.871 -0.1152  0.0830 -0.4771
  116OSM    H8S12152   1.983   1.519   9.884 -0.0330 -0.0043  0.3619
  116OSM    H8T12153   1.887   1.367   9.879 -0.4899  1.2248  1.4230
  116OSM    C9S12154   2.045   1.372   9.732 -0.1553  0.0746  0.9157
  116OSM    H9S12155   2.054   1.265   9.702  0.7042  0.2670  0.4582
  116OSM    H9T12156   2.147   1.415   9.724  1.2674 -2.7799  2.1127
  116OSM   C10S12157   1.958   1.444   9.619  0.3050  0.0666 -0.0894
  116OSM   H10S12158   1.954   1.554   9.636  2.5578  0.2274 -0.3236
  116OSM   H10T12159   1.863   1.387   9.630  0.2956  0.0781 -0.1138
  116OSM   C11S12160   2.021   1.408   9.482 -0.2697 -0.2853  0.0180
  116OSM   H11S12161   2.025   1.298   9.494  0.9967 -0.3578 -0.8396
  116OSM   H11T12162   2.126   1.443   9.470  0.0894 -1.5455 -0.7906
  116OSM   C12S12163   1.928   1.467   9.371 -0.4419  0.2437 -0.2677
  116OSM   H12S12164   1.912   1.577   9.379  0.8142  0.4859 -0.8534
  116OSM   H12T12165   1.840   1.399   9.378  1.1208 -1.9154 -0.5902
  116OSM   C13S12166   1.986   1.449   9.230  0.0528  0.4201  0.4236
  116OSM   H13S12167   2.010   1.340   9.227 -0.9599  0.0189  3.3755
  116OSM   H13T12168   2.079   1.509   9.218  0.8832 -0.6408  1.2165
  116OSM   C14S12169   1.887   1.491   9.125  0.0471  0.5211 -0.4167
  116OSM   H14S12170   1.888   1.602   9.119 -1.8880  0.8865  3.0924
  116OSM   H14T12171   1.785   1.471   9.165  0.5329  1.7985  1.6406
  116OSM   C15S12172   1.902   1.409   8.990  0.1063  0.3355 -0.2291
  116OSM   H15S12173   1.810   1.417   8.928 -1.0457  1.8485  1.5559
  116OSM   H15T12174   1.921   1.302   9.015  2.2599  0.6950 -0.1578
  116OSM   C16S12175   2.022   1.461   8.910 -0.0633  0.0377 -1.0899
  116OSM   H16S12176   2.122   1.452   8.959 -0.0858 -1.3183 -1.2806
  116OSM   H16T12177   2.007   1.571   8.897 -0.2603 -0.0524 -1.6310
  116OSM   C17S12178   2.029   1.396   8.769 -0.2935 -0.1231 -0.4638
  116OSM   H17S12179   2.104   1.440   8.700 -2.1079  1.9068 -1.2636
  116OSM   H17T12180   1.929   1.429   8.734 -1.0065 -0.8787  0.7997
  116OSM   C18S12181   2.030   1.246   8.751  0.0652 -0.5007 -0.2516
  116OSM   H18S12182   1.958   1.204   8.824 -1.3692  2.7322  0.4106
  116OSM   H18T12183   2.130   1.204   8.774 -0.1846  0.0846  2.0886
  116OSM   H18U12184   2.001   1.220   8.647  0.8678 -1.2493 -0.2954
  116OSM    C1F12185   2.194   0.876  10.247 -0.5501 -0.1427 -0.1813
  116OSM     OF12186   2.124   0.816  10.329 -0.2021 -0.0388 -0.5683
  116OSM    C2F12187   2.234   0.809  10.120  0.6853  0.2863 -0.5272
  116OSM    H2F12188   2.342   0.829  10.103  0.2022  2.3982 -1.4039
  116OSM    H2G12189   2.175   0.858  10.040 -2.4818 -0.0616  1.4405
  116OSM    C3F12190   2.218   0.660  10.121  0.0142  0.3215 -1.2590
  116OSM    H3F12191   2.116   0.641  10.160  0.6918  1.5040  1.3383
  116OSM    H3G12192   2.289   0.627  10.200  1.9571  3.2172 -1.6442
  116OSM    C4F12193   2.226   0.599   9.985  0.3479  0.1513  0.0534
  116OSM    H4F12194   2.184   0.497   9.991 -1.2562  0.6760 -1.3316
  116OSM    H4G12195   2.333   0.590   9.954  0.4980 -1.0080  0.8383
  116OSM    C5F12196   2.153   0.662   9.863 -0.8102  0.2220  0.3392
  116OSM    H5F12197   2.186   0.767   9.852  0.0282 -0.1959 -1.5800
  116OSM    H5G12198   2.049   0.646   9.899 -0.2619 -0.1856  1.8524
  116OSM    C6F12199   2.163   0.572   9.738  0.3648 -0.3664  0.1236
  116OSM    H6F12200   2.081   0.610   9.673  1.9861  1.6167 -0.8477
  116OSM    H6G12201   2.143   0.471   9.782 -0.4214 -0.3853 -0.2672
  116OSM    C7F12202   2.295   0.591   9.672 -0.2001  0.7228 -0.2442
  116OSM    H7F12203   2.304   0.511   9.596  0.5259 -1.2747  1.8386
  116OSM    H7G12204   2.383   0.575   9.739 -0.0929 -1.7322 -0.8823
  116OSM    C8F12205   2.301   0.721   9.591  0.5430 -0.6612  0.3473
  116OSM    H8F12206   2.268   0.798   9.664  4.7255  1.1176  0.6571
  116OSM    H8G12207   2.223   0.715   9.512  0.6923 -1.1277  0.2369
  116OSM    C9F12208   2.432   0.768   9.536 -0.1345 -0.2419  0.2054
  116OSM    H9F12209   2.500   0.816   9.608 -1.6011  1.2197  0.6760
  116OSM   C10F12210   2.467   0.768   9.410  0.5814  0.2853  0.5937
  116OSM   H10F12211   2.570   0.799   9.386  0.8252 -1.6713 -1.1808
  116OSM   C11F12212   2.385   0.703   9.300  0.4347  0.7771 -0.5396
  116OSM   H11F12213   2.283   0.748   9.295  0.0566  0.2075  1.2338
  116OSM   H11G12214   2.373   0.598   9.334  1.0049  1.1849  1.0083
  116OSM   C12F12215   2.436   0.720   9.160 -0.5490  0.2211 -0.4057
  116OSM   H12F12216   2.532   0.664   9.166 -0.7113 -0.2012 -1.4921
  116OSM   H12G12217   2.451   0.827   9.135  1.2451  0.4838  1.5180
  116OSM   C13F12218   2.349   0.651   9.057 -0.0132 -0.3317 -1.0694
  116OSM   H13F12219   2.244   0.687   9.062  0.3011  0.4488  2.0065
  116OSM   H13G12220   2.350   0.542   9.079 -3.9790 -0.8108 -2.4433
  116OSM   C14F12221   2.386   0.677   8.909  0.0413  0.5147  0.1906
  116OSM   H14F12222   2.497   0.671   8.906  0.0866  0.1885  1.6961
  116OSM   H14G12223   2.360   0.782   8.880 -0.4271  0.0710 -1.0870
  116OSM   C15F12224   2.324   0.575   8.811  0.3647 -0.9370 -0.1108
  116OSM   H15F12225   2.213   0.579   8.812  0.3968  0.4771 -0.1302
  116OSM   H15G12226   2.351   0.470   8.833 -0.3482 -0.9106  0.9633
  116OSM   C16F12227   2.386   0.599   8.666 -0.5065 -1.3366  0.2027
  116OSM   H16F12228   2.496   0.614   8.668 -0.7232  1.5566 -2.0225
  116OSM   H16G12229   2.335   0.693   8.634  2.3749 -0.2215 -1.5360
  116OSM   C17F12230   2.353   0.493   8.563  0.5363  0.4066  0.1053
  116OSM   H17F12231   2.370   0.539   8.464  0.2049  1.7221  0.6393
  116OSM   H17G12232   2.243   0.477   8.565  0.1141  2.3149 -2.7706
  116OSM   C18F12233   2.424   0.359   8.574 -0.3293  0.5348  0.2493
  116OSM   H18F12234   2.408   0.316   8.675  0.0555  0.2011  0.1699
  116OSM   H18G12235   2.531   0.387   8.571 -0.9384  3.1190 -1.6157
  116OSM   H18H12236   2.391   0.288   8.495 -2.0364 -1.7529  2.8368
  117OSM      N12237   3.731   2.307  11.034 -0.0043 -0.0314  0.2720
  117OSM    C1512238   3.717   2.360  11.173 -0.0254  0.3710 -0.1150
  117OSM   H15A12239   3.799   2.324  11.234  1.4190  0.1755 -2.0589
  117OSM   H15B12240   3.618   2.347  11.214 -0.8107 -1.5405 -2.3941
  117OSM   H15C12241   3.742   2.465  11.180  0.9077  0.0385  4.5868
  117OSM    C1412242   3.733   2.157  11.044  0.5108  0.6174 -0.2783
  117OSM   H14A12243   3.780   2.132  11.139  0.4787  0.8903 -0.1906
  117OSM   H14B12244   3.803   2.121  10.970  1.9460 -1.2279  1.8077
  117OSM   H14C12245   3.637   2.108  11.040  0.6885  0.3885 -2.5760
  117OSM    C1312246   3.621   2.347  10.946 -0.2785 -0.0852 -0.5739
  117OSM   H13A12247   3.613   2.455  10.936  0.2471  0.1164  0.9728
  117OSM   H13B12248   3.521   2.313  10.972  0.6039 -2.1859  0.2696
  117OSM   H13C12249   3.644   2.309  10.848  2.0435 -0.4207  0.0433
  117OSM    C1212250   3.867   2.358  10.986  0.1978 -0.1021 -1.4975
  117OSM   H12A12251   3.938   2.333  11.063 -1.5501  0.0054  0.2187
  117OSM   H12B12252   3.865   2.466  10.976 -0.7544 -0.0143 -0.4407
  117OSM    C1112253   3.932   2.299  10.856 -0.5877 -0.4291  0.0288
  117OSM   H11A12254   4.006   2.371  10.817 -2.6094  0.8790 -1.6337
  117OSM   H11B12255   3.852   2.282  10.780  0.6424 -0.2943 -1.3240
  117OSM      P12256   4.113   2.147  10.958  0.0003 -0.5083 -0.4959
  117OSM    O1312257   4.093   2.208  11.090 -0.3657 -0.4556  0.3330
  117OSM    O1412258   4.143   2.002  10.964 -0.3547  0.7068 -0.8658
  117OSM    O1112259   4.231   2.229  10.887 -0.0177 -0.0513  0.1951
  117OSM    O1212260   3.986   2.169  10.868 -0.3499 -0.0986 -0.2326
  117OSM    C1S12261   4.301   2.178  10.770 -0.3283 -0.2273 -0.3265
  117OSM    H1S12262   4.250   2.093  10.719 -0.8059 -0.0671 -0.1184
  117OSM    H1T12263   4.395   2.136  10.811 -0.5491  0.2078  0.6510
  117OSM     NF12264   4.388   2.218  10.551 -0.4124  0.1741  0.0548
  117OSM    HNF12265   4.486   2.211  10.534 -0.6788 -2.4030 -0.7688
  117OSM    C2S12266   4.348   2.283  10.673 -0.7845 -0.9891 -0.5261
  117OSM    H2S12267   4.261   2.349  10.658 -0.4357  0.8647  4.0874
  117OSM    C3S12268   4.454   2.379  10.736  0.5346 -0.8267  0.5557
  117OSM    H3S12269   4.532   2.319  10.787 -1.3380 -1.9446  2.2660
  117OSM     O312270   4.388   2.452  10.839  0.3352 -0.8888  0.1826
  117OSM    HO312271   4.304   2.412  10.863  0.2300 -1.1832 -0.6473
  117OSM    C4S12272   4.511   2.476  10.637 -0.3991  0.5676 -0.2188
  117OSM    H4S12273   4.434   2.539  10.592 -1.7363 -1.0756 -0.3130
  117OSM    C5S12274   4.642   2.483  10.598 -0.2988 -0.4039  0.8365
  117OSM    H5S12275   4.715   2.414  10.642  0.8025  0.6992  0.8081
  117OSM    C6S12276   4.677   2.573  10.484 -0.4229  0.0146  0.5643
  117OSM    H6S12277   4.779   2.617  10.492  0.0796 -0.8232 -0.9229
  117OSM    H6T12278   4.602   2.654  10.472  0.2383  0.3656 -1.6983
  117OSM    C7S12279   4.701   2.502  10.349 -0.0058  0.4170  0.8404
  117OSM    H7S12280   4.609   2.440  10.342  0.9346 -0.9668  0.0913
  117OSM    H7T12281   4.787   2.432  10.362 -1.0234 -1.4535 -1.6635
  117OSM    C8S12282   4.705   2.593  10.230 -0.0921 -0.3581  0.0540
  117OSM    H8S12283   4.777   2.671  10.262 -1.8353  0.7097  1.5541
  117OSM    H8T12284   4.608   2.647  10.229  0.5479  0.8610 -2.0690
  117OSM    C9S12285   4.735   2.519  10.105 -0.1582 -0.2187  1.0159
  117OSM    H9S12286   4.673   2.426  10.111 -0.8678  0.1764  0.1361
  117OSM    H9T12287   4.841   2.488  10.117  0.5850  1.6745 -0.2656
  117OSM   C10S12288   4.704   2.596   9.974  0.0400 -0.3985  0.2739
  117OSM   H10S12289   4.760   2.690   9.995 -0.2739 -0.7137  2.9241
  117OSM   H10T12290   4.595   2.618   9.974 -0.0768 -0.2796  3.9233
  117OSM   C11S12291   4.744   2.515   9.846  0.5884 -0.0531 -0.2693
  117OSM   H11S12292   4.691   2.418   9.843  2.1000 -0.8942 -0.8496
  117OSM   H11T12293   4.852   2.490   9.853  0.0333 -2.4644  0.9553
  117OSM   C12S12294   4.701   2.592   9.720  0.6863  0.1215 -0.3545
  117OSM   H12S12295   4.719   2.701   9.738  4.0328 -0.3881  0.1893
  117OSM   H12T12296   4.592   2.575   9.714  0.5298 -0.0911  2.0254
  117OSM   C13S12297   4.772   2.550   9.589  0.4914  0.4691 -0.0560
  117OSM   H13S12298   4.758   2.440   9.580 -1.8492  0.7883 -0.8319
  117OSM   H13T12299   4.880   2.565   9.611  0.6541 -1.0758  0.3095
  117OSM   C14S12300   4.718   2.616   9.462 -0.4522  0.3369  0.3299
  117OSM   H14S12301   4.766   2.716   9.459 -0.9930  0.6110 -2.9325
  117OSM   H14T12302   4.610   2.633   9.486 -1.1645 -2.2572 -0.6499
  117OSM   C15S12303   4.724   2.532   9.333  0.3356  0.1775 -0.5277
  117OSM   H15S12304   4.712   2.425   9.361 -1.6461  0.7157  0.8967
  117OSM   H15T12305   4.830   2.537   9.301  0.1945  0.5985 -0.9253
  117OSM   C16S12306   4.648   2.582   9.206 -0.3575  0.4655  0.0888
  117OSM   H16S12307   4.686   2.685   9.188 -0.3964  0.5102  0.2588
  117OSM   H16T12308   4.539   2.585   9.226 -0.3841 -1.5632  0.4312
  117OSM   C17S12309   4.657   2.488   9.086 -0.1198  0.6680 -0.6765
  117OSM   H17S12310   4.602   2.396   9.114 -0.1255  0.9702  0.3693
  117OSM   H17T12311   4.761   2.458   9.061 -0.3450 -0.6516 -0.0884
  117OSM   C18S12312   4.596   2.552   8.961  0.3121 -0.7338  0.0348
  117OSM   H18S12313   4.651   2.641   8.924 -1.6371  1.9551  2.9893
  117OSM   H18T12314   4.489   2.577   8.976 -0.2798 -3.2534  0.4814
  117OSM   H18U12315   4.589   2.478   8.879  1.6055 -1.5926  0.6674
  117OSM    C1F12316   4.303   2.164  10.461 -0.7168 -0.1147  0.2974
  117OSM     OF12317   4.187   2.155  10.484 -0.4796 -0.2144 -0.0446
  117OSM    C2F12318   4.365   2.148  10.321 -0.1287 -0.2605 -0.1621
  117OSM    H2F12319   4.463   2.199  10.316 -1.1693  1.8744  0.0910
  117OSM    H2G12320   4.301   2.200  10.247 -1.5284 -2.8202 -0.8885
  117OSM    C3F12321   4.362   2.003  10.292  0.4156  0.4201 -0.1385
  117OSM    H3F12322   4.261   1.962  10.311 -0.3487  1.9962 -0.7072
  117OSM    H3G12323   4.432   1.952  10.363 -0.2865  1.3198  1.2294
  117OSM    C4F12324   4.406   1.954  10.145  0.8674  0.4890 -1.2430
  117OSM    H4F12325   4.448   1.852  10.158 -1.3107 -0.2911  0.4473
  117OSM    H4G12326   4.500   2.008  10.119  1.4067  0.2576  0.1207
  117OSM    C5F12327   4.291   1.978  10.044 -0.4423  0.2644 -0.2891
  117OSM    H5F12328   4.255   2.081  10.025  0.2453  0.8299  1.3095
  117OSM    H5G12329   4.201   1.926  10.083 -1.0529  0.4902 -1.3397
  117OSM    C6F12330   4.320   1.911   9.901 -0.0841  0.2196 -0.1747
  117OSM    H6F12331   4.413   1.960   9.865 -0.9180  2.9491  1.1416
  117OSM    H6G12332   4.229   1.939   9.844  0.9732  2.3960 -0.9049
  117OSM    C7F12333   4.326   1.754   9.898  0.5537  0.3290 -0.8295
  117OSM    H7F12334   4.223   1.726   9.926  0.9572 -0.7354 -0.3514
  117OSM    H7G12335   4.393   1.717   9.978  0.2160  0.8112 -0.3198
  117OSM    C8F12336   4.350   1.687   9.765  0.4694 -0.0658 -0.2465
  117OSM    H8F12337   4.272   1.730   9.699 -0.5688 -0.9026  0.3805
  117OSM    H8G12338   4.334   1.577   9.768 -1.1148  0.1538  0.3519
  117OSM    C9F12339   4.489   1.693   9.700 -0.9041 -0.1625  0.0512
  117OSM    H9F12340   4.568   1.647   9.759  0.5869  2.5713  0.3578
  117OSM   C10F12341   4.515   1.749   9.580  0.7454  0.1225  0.1239
  117OSM   H10F12342   4.610   1.758   9.524 -0.9383  0.4283 -2.8978
  117OSM   C11F12343   4.404   1.800   9.494  0.2459  0.6813 -0.4998
  117OSM   H11F12344   4.372   1.905   9.515 -5.0173  0.2134 -4.0967
  117OSM   H11G12345   4.314   1.736   9.499  0.0230  0.8585 -1.8404
  117OSM   C12F12346   4.447   1.782   9.350  0.4247 -1.3707 -0.5478
  117OSM   H12F12347   4.549   1.817   9.328 -0.2580  0.5266 -0.8327
  117OSM   H12G12348   4.380   1.847   9.290 -0.7201 -0.1918  1.8320
  117OSM   C13F12349   4.413   1.643   9.293  0.1138  0.6104 -0.6628
  117OSM   H13F12350   4.320   1.608   9.342 -0.0694  1.2732 -0.5228
  117OSM   H13G12351   4.497   1.576   9.319 -0.9681 -1.5489 -2.3210
  117OSM   C14F12352   4.414   1.621   9.140 -0.2588 -0.2631  0.3971
  117OSM   H14F12353   4.389   1.515   9.117  1.6706 -0.3201 -1.7786
  117OSM   H14G12354   4.519   1.637   9.108 -0.0583 -1.4743  0.3832
  117OSM   C15F12355   4.325   1.715   9.059 -0.3646 -0.0976  0.5551
  117OSM   H15F12356   4.367   1.818   9.055 -3.3444  1.2915  1.7880
  117OSM   H15G12357   4.224   1.738   9.098 -1.0527 -3.1714  0.8363
  117OSM   C16F12358   4.312   1.669   8.910 -0.0011  0.1372  0.2717
  117OSM   H16F12359   4.248   1.578   8.910  1.4039 -0.9371 -1.5282
  117OSM   H16G12360   4.414   1.640   8.875 -0.3684  1.1197 -1.7612
  117OSM   C17F12361   4.252   1.758   8.811  0.1607 -0.2930  0.7362
  117OSM   H17F12362   4.304   1.855   8.827 -0.3885 -0.3207  3.0696
  117OSM   H17G12363   4.146   1.780   8.837  0.1079  1.0591 -0.4684
  117OSM   C18F12364   4.260   1.712   8.659 -0.2475 -0.1612 -0.4287
  117OSM   H18F12365   4.203   1.775   8.587 -0.6160 -0.3490 -0.3057
  117OSM   H18G12366   4.219   1.609   8.652 -0.9725 -0.0263  1.3145
  117OSM   H18H12367   4.362   1.721   8.617 -0.4932  0.9875 -0.8116
  118OSM      N12368   5.638   3.117  10.958 -0.1596 -0.4405  0.7613
  118OSM    C1512369   5.759   3.184  11.002 -0.0153 -0.3892 -0.2481
  118OSM   H15A12370   5.843   3.121  11.026  1.6437  2.6220  2.7052
  118OSM   H15B12371   5.736   3.245  11.089  2.2994 -0.6780  0.6310
  118OSM   H15C12372   5.789   3.264  10.936 -1.6205  0.8979  0.4973
  118OSM    C1412373   5.592   3.014  11.052  0.2123  0.6906 -0.8580
  118OSM   H14A12374   5.576   3.053  11.151 -0.1930 -1.9482  0.2132
  118OSM   H14B12375   5.667   2.937  11.058 -1.2592 -0.8153 -1.0038
  118OSM   H14C12376   5.504   2.965  11.013  1.2693  0.8307 -3.6678
  118OSM    C1312377   5.529   3.219  10.941  0.0736 -0.6398  0.5722
  118OSM   H13A12378   5.443   3.166  10.902  0.7172 -2.2713  1.2521
  118OSM   H13B12379   5.551   3.305  10.880 -1.3798 -0.0457  0.8613
  118OSM   H13C12380   5.492   3.257  11.035 -0.3471  1.5253 -0.4248
  118OSM    C1212381   5.663   3.050  10.818 -1.1852 -0.9373 -0.2814
  118OSM   H12A12382   5.577   2.990  10.790 -0.4745 -2.9099  1.5109
  118OSM   H12B12383   5.744   2.981  10.832 -0.0983  0.2815 -0.3850
  118OSM    C1112384   5.708   3.149  10.709 -0.4515  0.3100 -0.2384
  118OSM   H11A12385   5.627   3.223  10.694 -0.8735 -0.3597 -1.4010
  118OSM   H11B12386   5.714   3.098  10.610 -0.9332 -1.2795  0.5327
  118OSM      P12387   5.973   3.157  10.682 -0.0550 -0.0483 -0.2787
  118OSM    O1312388   6.075   3.268  10.698 -0.7285  0.5175  0.7861
  118OSM    O1412389   6.015   3.036  10.753 -0.1872  0.0195 -0.1395
  118OSM    O1112390   5.957   3.117  10.533  1.1985 -0.0318 -0.2514
  118OSM    O1212391   5.835   3.205  10.736 -0.1551  0.1134  0.3110
  118OSM    C1S12392   5.897   3.201  10.440  0.1091 -0.2027  0.0161
  118OSM    H1S12393   5.898   3.311  10.455  2.0758  0.2530 -2.7379
  118OSM    H1T12394   5.789   3.178  10.431 -0.0234  0.7576 -0.9885
  118OSM     NF12395   5.934   3.275  10.207 -0.3923  0.3137  0.1552
  118OSM    HNF12396   5.871   3.241  10.138 -0.1305 -0.6792  0.3885
  118OSM    C2S12397   5.970   3.174  10.300 -0.4487  0.0495  0.0707
  118OSM    H2S12398   6.080   3.178  10.315 -0.6250 -0.8198  1.9518
  118OSM    C3S12399   5.935   3.030  10.256  0.4427 -0.3691 -0.5987
  118OSM    H3S12400   5.826   3.015  10.261 -0.0958  3.0699  0.6574
  118OSM     O312401   5.983   2.936  10.353 -0.0471 -0.0096 -0.3354
  118OSM    HO312402   5.974   2.982  10.437  1.5418 -2.4535  1.3513
  118OSM    C4S12403   5.991   2.994  10.115 -0.2531  0.2206 -0.9347
  118OSM    H4S12404   6.098   3.005  10.090  0.1719  0.2170  0.7334
  118OSM    C5S12405   5.910   2.952  10.014 -0.4347  0.6672 -0.1959
  118OSM    H5S12406   5.801   2.953  10.028 -0.7260  3.1159 -1.9556
  118OSM    C6S12407   5.956   2.907   9.871 -0.2289  0.6922  0.4951
  118OSM    H6S12408   5.902   2.813   9.847  1.5265 -1.0156  2.7161
  118OSM    H6T12409   6.065   2.885   9.866 -0.7133 -1.6637 -1.4503
  118OSM    C7S12410   5.922   3.000   9.758  0.0411 -0.3648  0.4234
  118OSM    H7S12411   5.818   3.041   9.759  0.3912  0.8665 -2.7655
  118OSM    H7T12412   5.930   2.943   9.663  1.1109  1.1972 -0.4639
  118OSM    C8S12413   6.017   3.120   9.749  0.3249 -0.1237 -0.4318
  118OSM    H8S12414   6.122   3.082   9.745 -0.0814 -1.3204 -0.2638
  118OSM    H8T12415   6.016   3.175   9.845  3.9488  0.7533 -0.7574
  118OSM    C9S12416   5.997   3.209   9.624  0.0242  0.2836 -0.8840
  118OSM    H9S12417   6.014   3.135   9.543 -0.0493  0.9099 -1.4773
  118OSM    H9T12418   6.077   3.286   9.620  0.3806 -0.0820 -0.9133
  118OSM   C10S12419   5.855   3.276   9.616  0.1454 -0.1189  0.6562
  118OSM   H10S12420   5.828   3.319   9.715 -0.4155 -0.3422  0.6036
  118OSM   H10T12421   5.787   3.189   9.602  0.5174 -0.5811  1.6337
  118OSM   C11S12422   5.850   3.388   9.514 -0.4224  0.0355  0.6713
  118OSM   H11S12423   5.906   3.476   9.553 -0.4665  0.7011 -0.7014
  118OSM   H11T12424   5.742   3.407   9.498 -0.6810 -1.0458  1.0462
  118OSM   C12S12425   5.908   3.346   9.376  0.5886 -0.2235  0.3510
  118OSM   H12S12426   5.873   3.240   9.371 -0.1542 -0.0259  1.0863
  118OSM   H12T12427   6.019   3.340   9.377  0.6741  1.0691 -0.3626
  118OSM   C13S12428   5.848   3.423   9.257  0.3465  0.3792 -0.1551
  118OSM   H13S12429   5.898   3.522   9.250  1.7651 -0.4176 -2.0170
  118OSM   H13T12430   5.737   3.422   9.262  0.3751 -0.6989  0.6987
  118OSM   C14S12431   5.864   3.349   9.120  1.0834 -0.1703  0.4592
  118OSM   H14S12432   5.836   3.242   9.129  0.5924 -0.3114 -1.9543
  118OSM   H14T12433   5.971   3.349   9.088  0.9788  0.3935  0.1045
  118OSM   C15S12434   5.771   3.412   9.013  0.3233 -0.1859  0.1172
  118OSM   H15S12435   5.702   3.481   9.066  1.9591  2.9193 -1.4367
  118OSM   H15T12436   5.707   3.342   8.956  0.5530  0.2487 -0.6919
  118OSM   C16S12437   5.846   3.511   8.917 -0.2486 -0.2149 -0.0753
  118OSM   H16S12438   5.913   3.455   8.847 -1.6353 -0.1383 -1.5145
  118OSM   H16T12439   5.898   3.583   8.984 -1.3736  1.0806 -0.5611
  118OSM   C17S12440   5.752   3.594   8.826  0.1281  0.4129 -0.0572
  118OSM   H17S12441   5.711   3.524   8.751  0.1279 -0.4870  0.7598
  118OSM   H17T12442   5.809   3.671   8.770  0.6934 -0.2499 -0.4165
  118OSM   C18S12443   5.627   3.654   8.894  0.2986 -0.0031 -0.0651
  118OSM   H18S12444   5.555   3.570   8.906  1.9821 -1.3658  0.9153
  118OSM   H18T12445   5.577   3.729   8.830  0.6123 -1.4478 -2.0926
  118OSM   H18U12446   5.657   3.693   8.994 -0.3115  0.1705  0.0526
  118OSM    C1F12447   5.953   3.404  10.218 -0.1359 -0.8189  0.0355
  118OSM     OF12448   6.022   3.448  10.306 -0.3960 -0.5026  0.2671
  118OSM    C2F12449   5.897   3.496  10.116  0.1194 -1.1601 -0.0905
  118OSM    H2F12450   5.874   3.591  10.170  1.6417  0.4555 -2.1199
  118OSM    H2G12451   5.805   3.457  10.066  1.3513  0.1320 -3.7309
  118OSM    C3F12452   5.987   3.531   9.998  0.0291 -0.1549 -0.3539
  118OSM    H3F12453   6.053   3.450   9.959  0.0524  0.5216 -1.7801
  118OSM    H3G12454   6.051   3.615  10.035 -0.4791  0.0598  0.0386
  118OSM    C4F12455   5.907   3.585   9.875  0.3943 -0.3601  0.0936
  118OSM    H4F12456   5.844   3.670   9.908  1.4522 -0.3992  2.4596
  118OSM    H4G12457   5.834   3.509   9.838 -0.2646 -0.0379  0.7084
  118OSM    C5F12458   5.996   3.647   9.767  0.0600  0.2471  0.2006
  118OSM    H5F12459   6.053   3.564   9.719  0.6918 -0.7799  2.5673
  118OSM    H5G12460   6.078   3.707   9.811  1.3855 -0.9982 -0.4615
  118OSM    C6F12461   5.928   3.739   9.666  1.0202  0.2041 -0.2505
  118OSM    H6F12462   5.877   3.821   9.720 -1.7892  0.3206 -2.8598
  118OSM    H6G12463   5.858   3.683   9.601  0.5021  0.8227 -0.2229
  118OSM    C7F12464   6.036   3.801   9.578 -0.2908  0.1172  0.2795
  118OSM    H7F12465   6.096   3.721   9.529  0.5414  0.5941  0.4942
  118OSM    H7G12466   6.113   3.855   9.637 -0.2065 -0.0147  0.2903
  118OSM    C8F12467   5.981   3.885   9.458 -0.1326  0.2820 -0.3406
  118OSM    H8F12468   6.061   3.949   9.416 -1.5328  0.3634 -3.0937
  118OSM    H8G12469   5.904   3.954   9.499 -2.4094 -2.1098 -0.2856
  118OSM    C9F12470   5.917   3.795   9.356 -0.2176  1.1317  0.3745
  118OSM    H9F12471   5.844   3.725   9.399  1.1759  1.1774  2.9854
  118OSM   C10F12472   5.939   3.798   9.227  0.3819  0.8073  0.2172
  118OSM   H10F12473   5.885   3.721   9.169 -0.2934 -0.4318  2.3951
  118OSM   C11F12474   6.033   3.895   9.154 -0.3852  0.4703 -0.2348
  118OSM   H11F12475   6.120   3.829   9.130 -1.5553 -1.1658 -0.1593
  118OSM   H11G12476   6.066   3.976   9.223 -0.9427 -0.1220  0.7472
  118OSM   C12F12477   5.984   3.948   9.020 -0.5644 -1.3544  0.0151
  118OSM   H12F12478   5.886   3.999   9.031  0.4470  0.2655  2.3293
  118OSM   H12G12479   5.976   3.866   8.946  1.7997 -0.8988 -0.8351
  118OSM   C13F12480   6.085   4.047   8.953  0.2385  0.1390 -0.9419
  118OSM   H13F12481   6.179   3.992   8.931  0.1593  0.0876 -1.1499
  118OSM   H13G12482   6.104   4.123   9.033  1.7269 -1.7760  0.6183
  118OSM   C14F12483   6.033   4.129   8.835  0.4848 -0.4460 -0.2481
  118OSM   H14F12484   6.109   4.206   8.807  1.9231 -0.4588  3.0805
  118OSM   H14G12485   5.938   4.181   8.860 -0.2084 -1.6352 -0.3444
  118OSM   C15F12486   5.984   4.042   8.719  0.5050 -0.0305  0.7648
  118OSM   H15F12487   5.959   4.104   8.630 -0.7028 -1.9022 -0.2797
  118OSM   H15G12488   5.892   3.988   8.750  1.2926 -0.2869  2.8134
  118OSM   C16F12489   6.086   3.946   8.660  0.3187  0.2152  0.2234
  118OSM   H16F12490   6.100   3.862   8.731 -0.4746 -2.4149 -2.5289
  118OSM   H16G12491   6.182   4.001   8.651 -0.3625  1.0517 -3.2400
  118OSM   C17F12492   6.055   3.884   8.520  0.2008  0.2278  0.2150
  118OSM   H17F12493   6.152   3.835   8.497  1.2456  1.8354  1.0180
  118OSM   H17G12494   6.041   3.959   8.440 -0.5769 -0.7193 -0.5679
  118OSM   C18F12495   5.945   3.774   8.509 -0.3127  0.9011  0.5339
  118OSM   H18F12496   5.841   3.799   8.539 -1.0959  0.8124 -1.8996
  118OSM   H18G12497   5.970   3.677   8.556 -2.0021 -1.9580 -3.8560
  118OSM   H18H12498   5.948   3.756   8.400  1.6323 -0.3325  0.7478
  119OSM      N12499   4.752   2.650  11.045 -0.7785  0.0330  0.2628
  119OSM    C1512500   4.734   2.588  10.908  1.0940  0.1685 -0.2034
  119OSM   H15A12501   4.819   2.620  10.850  3.4161  0.0881  2.8756
  119OSM   H15B12502   4.639   2.611  10.864  0.3884 -0.5657  0.8612
  119OSM   H15C12503   4.749   2.482  10.922  0.5728  0.1207  0.0147
  119OSM    C1412504   4.784   2.795  11.031  0.2258 -0.1796 -0.0483
  119OSM   H14A12505   4.789   2.842  11.127  1.4812  1.6709 -0.9693
  119OSM   H14B12506   4.714   2.840  10.962  1.7682  1.4633 -0.5979
  119OSM   H14C12507   4.875   2.831  10.986  0.5987 -0.3802  0.5352
  119OSM    C1312508   4.615   2.635  11.101  0.6741 -0.2219  0.2004
  119OSM   H13A12509   4.593   2.530  11.108  0.4562 -0.1603  0.4334
  119OSM   H13B12510   4.549   2.688  11.034 -1.3061  0.7754  2.7953
  119OSM   H13C12511   4.606   2.670  11.203 -1.7242 -0.8629  0.2676
  119OSM    C1212512   4.866   2.577  11.118  0.3697  0.1207  0.9458
  119OSM   H12A12513   4.869   2.616  11.218  0.0433 -0.0625  1.0274
  119OSM   H12B12514   4.955   2.603  11.062 -1.0962  0.3391 -1.4498
  119OSM    C1112515   4.864   2.422  11.129  0.3976  0.0913  0.4496
  119OSM   H11A12516   4.766   2.398  11.174  0.5516  0.3709  0.9460
  119OSM   H11B12517   4.944   2.388  11.198 -0.1009 -0.2285  0.8739
  119OSM      P12518   5.022   2.308  10.944 -0.8261  0.0676 -0.1187
  119OSM    O1312519   5.125   2.404  10.991 -0.0454 -0.5492  0.5811
  119OSM    O1412520   5.039   2.165  10.978  0.0951  0.6694  0.0547
  119OSM    O1112521   4.988   2.336  10.791  0.0449  0.2704  0.2028
  119OSM    O1212522   4.877   2.351  11.002  0.9933  0.9424  0.9887
  119OSM    C1S12523   4.948   2.231  10.705  0.1984  0.0852 -0.5797
  119OSM    H1S12524   4.840   2.211  10.726 -0.1754  0.4823 -2.0317
  119OSM    H1T12525   5.013   2.142  10.720  2.5016  1.9017  0.9965
  119OSM     NF12526   4.909   2.149  10.462 -0.4369 -0.2703 -0.2515
  119OSM    HNF12527   4.979   2.103  10.407 -0.2415 -0.3973  0.1004
  119OSM    C2S12528   4.959   2.267  10.548  0.5022 -0.1013 -0.2377
  119OSM    H2S12529   4.900   2.360  10.532  2.7967  1.5270  0.3230
  119OSM    C3S12530   5.107   2.313  10.516  0.0375 -0.3979  0.0903
  119OSM    H3S12531   5.177   2.232  10.547  1.2833  0.8683  0.7116
  119OSM     O312532   5.154   2.419  10.601 -0.1295  0.1222 -0.4523
  119OSM    HO312533   5.098   2.434  10.678  0.5378  1.7711 -0.2470
  119OSM    C4S12534   5.143   2.350  10.374  0.0013  0.5833 -0.0184
  119OSM    H4S12535   5.217   2.289  10.321  0.2513  0.5049  0.4156
  119OSM    C5S12536   5.109   2.468  10.319  0.3577  0.5529 -0.2582
  119OSM    H5S12537   5.039   2.531  10.375  0.8646  1.0157 -0.1437
  119OSM    C6S12538   5.139   2.518  10.182 -0.4997  0.1342 -0.4572
  119OSM    H6S12539   5.213   2.598  10.203 -0.0729 -1.2811  4.7819
  119OSM    H6T12540   5.044   2.554  10.136 -1.0334  0.8937  1.1710
  119OSM    C7S12541   5.201   2.420  10.081  0.1399 -0.5571  0.6543
  119OSM    H7S12542   5.143   2.325  10.084 -2.6155  0.9023 -1.0435
  119OSM    H7T12543   5.306   2.396  10.106  0.1173 -1.0994  0.2548
  119OSM    C8S12544   5.190   2.484   9.942 -0.8013  0.3144  0.4732
  119OSM    H8S12545   5.268   2.558   9.916 -0.0125 -0.2572  1.1556
  119OSM    H8T12546   5.091   2.535   9.944 -0.5348  0.8617  2.8486
  119OSM    C9S12547   5.212   2.385   9.828  0.7039  0.0075 -0.3834
  119OSM    H9S12548   5.145   2.297   9.838  1.1783 -0.2580  0.6131
  119OSM    H9T12549   5.321   2.362   9.822  0.8710  0.1550  1.5041
  119OSM   C10S12550   5.167   2.445   9.690 -0.8156  0.4934 -0.2986
  119OSM   H10S12551   5.224   2.538   9.670  0.7532 -0.2135  0.6549
  119OSM   H10T12552   5.063   2.481   9.703 -0.8666 -0.1217  1.2339
  119OSM   C11S12553   5.180   2.346   9.568 -0.3471  0.1668 -0.4163
  119OSM   H11S12554   5.140   2.248   9.605  0.6043 -0.0565  0.0540
  119OSM   H11T12555   5.285   2.329   9.536 -1.0458 -2.7236 -1.5132
  119OSM   C12S12556   5.094   2.396   9.456 -0.3972  0.4172 -0.1164
  119OSM   H12S12557   5.116   2.504   9.436  1.2532  0.0269 -0.5610
  119OSM   H12T12558   4.986   2.399   9.481  0.0450  0.6794  1.9726
  119OSM   C13S12559   5.122   2.312   9.331 -0.4407 -0.1996  0.1954
  119OSM   H13S12560   5.085   2.209   9.349  1.9095 -0.8985  1.4748
  119OSM   H13T12561   5.231   2.307   9.312  0.0658 -0.4438  2.8331
  119OSM   C14S12562   5.053   2.371   9.209 -0.6808  0.3001  1.0204
  119OSM   H14S12563   5.109   2.467   9.195  0.5871 -0.5765 -0.1725
  119OSM   H14T12564   4.946   2.396   9.222 -1.0114 -1.3095  1.4983
  119OSM   C15S12565   5.067   2.285   9.084  0.2817 -0.0295  0.4203
  119OSM   H15S12566   5.001   2.198   9.102 -0.7145  0.2366 -1.6614
  119OSM   H15T12567   5.171   2.250   9.063 -0.5133 -1.1746 -2.0979
  119OSM   C16S12568   5.026   2.355   8.953  0.9321  0.4499  0.4623
  119OSM   H16S12569   5.106   2.424   8.921  0.9251 -0.0420 -0.6682
  119OSM   H16T12570   4.942   2.427   8.969  1.0849  0.7069  0.1107
  119OSM   C17S12571   4.992   2.261   8.835 -0.0880  0.2161 -0.2244
  119OSM   H17S12572   4.911   2.190   8.860  1.0829 -1.6331 -1.4107
  119OSM   H17T12573   5.080   2.196   8.813 -0.8235 -0.2270 -2.0303
  119OSM   C18S12574   4.960   2.334   8.703  0.1113  0.2927  0.3995
  119OSM   H18S12575   5.047   2.395   8.669 -0.1195  0.2617 -0.2644
  119OSM   H18T12576   4.886   2.417   8.715 -0.2299 -0.0682  0.7964
  119OSM   H18U12577   4.928   2.264   8.623  0.6321  0.4355  0.0586
  119OSM    C1F12578   4.777   2.125  10.450  0.6098 -0.0460 -0.0313
  119OSM     OF12579   4.696   2.188  10.520 -0.0910 -0.3642 -0.0672
  119OSM    C2F12580   4.729   2.026  10.349 -0.0196 -0.1135  0.0520
  119OSM    H2F12581   4.623   2.043  10.322  0.0263  0.1680  0.0521
  119OSM    H2G12582   4.722   1.929  10.403 -0.0560 -0.4001 -0.4586
  119OSM    C3F12583   4.812   2.001  10.219 -0.1335 -0.0489 -0.2079
  119OSM    H3F12584   4.772   1.907  10.175  2.5818 -1.5459  0.3208
  119OSM    H3G12585   4.914   1.976  10.256 -1.6066 -3.7163  1.9427
  119OSM    C4F12586   4.812   2.118  10.121  0.2341  0.1689 -0.5396
  119OSM    H4F12587   4.840   2.213  10.172  1.0842  1.0717 -2.5480
  119OSM    H4G12588   4.705   2.128  10.090 -0.6156  2.5831  2.6242
  119OSM    C5F12589   4.917   2.092  10.016  0.1188  0.3019  0.3149
  119OSM    H5F12590   4.913   1.986   9.985  1.7506 -0.5709  2.7426
  119OSM    H5G12591   5.015   2.083  10.069 -0.0689  0.0954  0.6346
  119OSM    C6F12592   4.910   2.177   9.886 -1.0687  0.2762  0.0624
  119OSM    H6F12593   4.999   2.153   9.823 -0.9505  1.2759 -0.1644
  119OSM    H6G12594   4.921   2.285   9.911 -1.8684 -0.1034  2.2152
  119OSM    C7F12595   4.785   2.158   9.803 -0.1727 -1.0949 -0.2007
  119OSM    H7F12596   4.775   2.236   9.725 -2.2668 -1.6153 -0.5205
  119OSM    H7G12597   4.701   2.181   9.872  1.1370 -0.2482  1.1717
  119OSM    C8F12598   4.755   2.019   9.743 -0.1576 -0.2762 -1.0324
  119OSM    H8F12599   4.648   2.030   9.715 -0.6024 -0.1974  0.6026
  119OSM    H8G12600   4.759   1.946   9.826 -0.5011  1.0143  0.1502
  119OSM    C9F12601   4.852   1.974   9.635 -0.9446 -0.3561 -0.0305
  119OSM    H9F12602   4.947   1.930   9.666 -0.5019  0.3841 -0.3183
  119OSM   C10F12603   4.834   2.001   9.503 -0.3644 -0.4862  0.5478
  119OSM   H10F12604   4.918   1.956   9.448  1.2018  0.8046  1.7790
  119OSM   C11F12605   4.714   2.079   9.444  0.6378 -0.0624 -0.7916
  119OSM   H11F12606   4.683   2.169   9.502 -1.8401  0.2821 -2.4650
  119OSM   H11G12607   4.629   2.009   9.434 -0.7715  1.3756  0.5961
  119OSM   C12F12608   4.744   2.146   9.303  0.5491 -0.3073 -0.5191
  119OSM   H12F12609   4.836   2.207   9.317  0.6088 -0.6612  0.8612
  119OSM   H12G12610   4.650   2.202   9.288 -0.0367 -0.8229  1.0587
  119OSM   C13F12611   4.770   2.040   9.194 -0.3982 -0.1214  0.0148
  119OSM   H13F12612   4.758   1.940   9.240 -1.7004 -0.4617 -0.9836
  119OSM   H13G12613   4.874   2.047   9.155 -0.9221 -0.6000 -1.5666
  119OSM   C14F12614   4.677   2.064   9.078 -0.3787  0.7274  0.1213
  119OSM   H14F12615   4.671   2.169   9.041  0.0533  1.1606  1.2287
  119OSM   H14G12616   4.576   2.061   9.125 -0.9679  2.0259 -0.9948
  119OSM   C15F12617   4.703   1.975   8.955 -0.3193 -0.3485 -0.7059
  119OSM   H15F12618   4.679   1.876   8.998 -0.0226  0.1880  0.7676
  119OSM   H15G12619   4.810   1.966   8.924  0.0863 -0.3317  0.6280
  119OSM   C16F12620   4.620   2.011   8.839 -0.7178  0.2912 -0.0056
  119OSM   H16F12621   4.656   2.113   8.814  2.6825 -0.4374  1.2954
  119OSM   H16G12622   4.515   2.027   8.871 -0.9969  4.1694 -2.1611
  119OSM   C17F12623   4.641   1.926   8.715  0.3028 -0.0611  0.6477
  119OSM   H17F12624   4.630   1.818   8.738  1.8642  0.2386  3.1716
  119OSM   H17G12625   4.747   1.933   8.684 -0.3719  2.0084 -1.4365
  119OSM   C18F12626   4.567   1.965   8.592  0.5454 -0.2216 -0.1183
  119OSM   H18F12627   4.601   1.905   8.505  1.5138  0.3773 -0.1594
  119OSM   H18G12628   4.598   2.066   8.556 -0.5432 -0.1719 -0.9745
  119OSM   H18H12629   4.457   1.948   8.598  0.1036  1.3230 -2.4601
  120OSM      N12630   5.242   0.669  10.697 -0.2660 -0.6267  0.1206
  120OSM    C1512631   5.247   0.813  10.751 -0.4019 -0.1347 -0.7437
  120OSM   H15A12632   5.165   0.871  10.710 -0.1128  1.3082  0.6373
  120OSM   H15B12633   5.335   0.868  10.720 -0.7302  0.7736 -0.1138
  120OSM   H15C12634   5.238   0.809  10.858 -0.7505  1.6835 -0.6676
  120OSM    C1412635   5.348   0.600  10.772 -0.3128  0.2672  0.3443
  120OSM   H14A12636   5.445   0.644  10.752 -0.6835  1.0366  0.1948
  120OSM   H14B12637   5.349   0.498  10.737  0.3020  0.1231  0.7560
  120OSM   H14C12638   5.346   0.610  10.879 -1.3536  0.8418  0.2808
  120OSM    C1312639   5.111   0.616  10.743 -1.3352  0.0389  0.1398
  120OSM   H13A12640   5.030   0.649  10.681 -1.4762 -0.4481  0.0642
  120OSM   H13B12641   5.082   0.642  10.844 -0.6777  0.8947  0.1234
  120OSM   H13C12642   5.112   0.508  10.741  3.2387 -0.1036 -2.2938
  120OSM    C1212643   5.260   0.646  10.542  0.2823 -0.7565 -0.4102
  120OSM   H12A12644   5.184   0.701  10.488 -0.5949 -0.5499  0.9967
  120OSM   H12B12645   5.236   0.543  10.521 -1.0511 -0.3054 -1.2392
  120OSM    C1112646   5.402   0.670  10.481 -0.2896 -0.5823 -0.7760
  120OSM   H11A12647   5.406   0.637  10.375 -0.9702  0.8925 -1.2856
  120OSM   H11B12648   5.475   0.595  10.519 -1.9682 -2.1292 -0.4346
  120OSM      P12649   5.561   0.852  10.583  0.3785  0.3603 -0.5007
  120OSM    O1312650   5.543   0.992  10.617  0.0617  0.0837  0.1596
  120OSM    O1412651   5.590   0.751  10.687  0.3206  0.4974  0.3451
  120OSM    O1112652   5.681   0.844  10.478  0.0704  0.0754 -0.9466
  120OSM    O1212653   5.440   0.810  10.492 -0.1064 -0.4576 -0.5533
  120OSM    C1S12654   5.661   0.809  10.341  0.3764  0.0895 -0.1863
  120OSM    H1S12655   5.578   0.866  10.294  1.3423  0.6386 -1.2676
  120OSM    H1T12656   5.643   0.701  10.324  1.8234 -0.0022 -1.3842
  120OSM     NF12657   5.772   0.810  10.135 -0.8113 -0.1201  0.0458
  120OSM    HNF12658   5.823   0.736  10.093  0.2050  0.1688  0.7234
  120OSM    C2S12659   5.789   0.847  10.272 -0.3844  0.6181 -0.8257
  120OSM    H2S12660   5.793   0.958  10.281  0.6686  0.5230  0.2761
  120OSM    C3S12661   5.923   0.778  10.333  0.8962  0.1560  0.2340
  120OSM    H3S12662   5.913   0.668  10.321  0.9161  0.3961 -2.6842
  120OSM     O312663   5.942   0.815  10.470  0.5331 -0.1188  0.4542
  120OSM    HO312664   5.861   0.864  10.488 -0.1471  0.0000 -2.4613
  120OSM    C4S12665   6.050   0.822  10.250  0.5907 -0.1031  0.1264
  120OSM    H4S12666   6.091   0.920  10.278  2.7375 -0.8605 -0.1404
  120OSM    C5S12667   6.110   0.740  10.162  0.0610 -0.2122 -0.0956
  120OSM    H5S12668   6.080   0.634  10.161  0.1357 -0.2335 -0.0548
  120OSM    C6S12669   6.225   0.767  10.078 -0.2920 -0.5073 -0.0276
  120OSM    H6S12670   6.294   0.680  10.085  0.9024  0.4696  0.5764
  120OSM    H6T12671   6.279   0.857  10.113 -2.9059  1.0447  0.2910
  120OSM    C7S12672   6.188   0.807   9.932 -0.7181 -0.1566 -0.0304
  120OSM    H7S12673   6.282   0.846   9.886 -1.5105  0.4242 -1.2087
  120OSM    H7T12674   6.134   0.904   9.932  0.1007  0.3230 -1.0075
  120OSM    C8S12675   6.135   0.699   9.829 -0.0513 -0.6535 -0.3967
  120OSM    H8S12676   6.051   0.637   9.868  0.6433 -1.1030  0.4150
  120OSM    H8T12677   6.217   0.628   9.806 -0.7902 -1.3466 -0.9655
  120OSM    C9S12678   6.085   0.761   9.705  0.1681  0.0099 -0.0628
  120OSM    H9S12679   6.158   0.832   9.660 -2.1855  1.2226 -2.2383
  120OSM    H9T12680   5.991   0.814   9.733 -0.3044 -1.4019  1.1372
  120OSM   C10S12681   6.035   0.661   9.599 -0.0609 -0.2166 -0.1317
  120OSM   H10S12682   5.946   0.620   9.652  1.0946 -0.4823  1.6754
  120OSM   H10T12683   6.109   0.582   9.576 -0.6260 -0.6279 -0.5838
  120OSM   C11S12684   6.004   0.726   9.464 -0.4457 -0.0423 -0.5746
  120OSM   H11S12685   6.109   0.754   9.442 -0.0142  0.3300  1.7333
  120OSM   H11T12686   5.939   0.816   9.474 -0.4786 -0.2427  1.3907
  120OSM   C12S12687   5.948   0.627   9.369  0.0432  1.2741 -0.1652
  120OSM   H12S12688   5.848   0.594   9.404  0.4243 -0.3179 -0.4890
  120OSM   H12T12689   6.011   0.537   9.382 -1.4618  0.3628  1.2580
  120OSM   C13S12690   5.939   0.672   9.230  0.8176 -0.0802  0.3700
  120OSM   H13S12691   5.904   0.777   9.235 -1.3104 -0.7718  1.6032
  120OSM   H13T12692   5.866   0.607   9.176  1.6233 -2.2288  1.7238
  120OSM   C14S12693   6.066   0.669   9.136  0.3736 -0.6250 -0.9526
  120OSM   H14S12694   6.107   0.568   9.158 -1.5675 -1.2130  0.1398
  120OSM   H14T12695   6.128   0.750   9.179 -0.1914 -1.6417  1.9860
  120OSM   C15S12696   6.035   0.681   8.992  0.2967 -0.9016  0.9262
  120OSM   H15S12697   5.989   0.781   8.981  1.0913 -0.6499 -0.2515
  120OSM   H15T12698   5.964   0.605   8.954 -0.5082  0.5851 -0.6852
  120OSM   C16S12699   6.163   0.664   8.903  0.0973 -0.3211  0.0314
  120OSM   H16S12700   6.201   0.559   8.907 -1.2344 -0.8744 -0.8519
  120OSM   H16T12701   6.237   0.738   8.941 -0.5029  0.5833 -0.5364
  120OSM   C17S12702   6.140   0.713   8.758  0.2527  0.0914  0.5458
  120OSM   H17S12703   6.119   0.822   8.766  0.8849  0.2346  0.3546
  120OSM   H17T12704   6.050   0.659   8.723  0.5575 -0.4227  0.5411
  120OSM   C18S12705   6.263   0.686   8.665  0.6758  0.7184 -0.3279
  120OSM   H18S12706   6.358   0.700   8.720  0.2247  1.0620  0.3918
  120OSM   H18T12707   6.252   0.751   8.575  0.6132  0.8155 -0.2496
  120OSM   H18U12708   6.258   0.578   8.639 -2.1244  0.6497  0.1331
  120OSM    C1F12709   5.684   0.865  10.052 -0.0614  0.9293 -0.1089
  120OSM     OF12710   5.607   0.950  10.087  0.4556 -0.2710 -0.0874
  120OSM    C2F12711   5.679   0.791   9.914  0.3186 -0.1779  0.6783
  120OSM    H2F12712   5.667   0.681   9.920  0.8425 -0.4262 -1.8075
  120OSM    H2G12713   5.776   0.817   9.865 -1.5542  0.5778 -3.0129
  120OSM    C3F12714   5.570   0.838   9.818  0.2908  0.7448 -0.1025
  120OSM    H3F12715   5.561   0.949   9.823 -1.9999  0.5574  3.1055
  120OSM    H3G12716   5.475   0.789   9.847  1.1905 -0.4904  0.8509
  120OSM    C4F12717   5.603   0.787   9.666 -0.8354  0.1866  0.3122
  120OSM    H4F12718   5.628   0.679   9.655 -0.5348  0.3339 -0.5383
  120OSM    H4G12719   5.691   0.844   9.631 -1.3505  1.3151  0.7959
  120OSM    C5F12720   5.486   0.823   9.571 -0.1676  0.5600 -0.8990
  120OSM    H5F12721   5.462   0.929   9.592  0.1459  0.5978 -0.7272
  120OSM    H5G12722   5.403   0.758   9.605  0.4016 -0.2337 -0.9918
  120OSM    C6F12723   5.515   0.799   9.424  0.6662 -0.0083  0.2962
  120OSM    H6F12724   5.412   0.816   9.387 -0.0860  0.3236  2.4209
  120OSM    H6G12725   5.565   0.702   9.401  1.8265  0.6908 -0.2207
  120OSM    C7F12726   5.601   0.901   9.360 -0.4449  0.4898  0.8438
  120OSM    H7F12727   5.702   0.867   9.389 -0.0259  2.0676  1.3582
  120OSM    H7G12728   5.571   1.004   9.391 -0.3794  0.8778 -0.3500
  120OSM    C8F12729   5.597   0.898   9.199 -0.1695  0.1219  0.1720
  120OSM    H8F12730   5.632   0.800   9.159  0.6169  0.5295 -0.1555
  120OSM    H8G12731   5.675   0.972   9.168 -1.5658  3.3986  3.6712
  120OSM    C9F12732   5.466   0.949   9.145  1.0186 -0.4282  0.0980
  120OSM    H9F12733   5.429   1.042   9.191  0.1497  0.6409 -2.5700
  120OSM   C10F12734   5.399   0.898   9.039  0.3903  0.7618 -0.3997
  120OSM   H10F12735   5.297   0.937   9.027  0.4240  1.3190  0.9844
  120OSM   C11F12736   5.450   0.779   8.972  0.4786  0.0505 -0.3326
  120OSM   H11F12737   5.453   0.697   9.046  1.4807  1.0218  0.7577
  120OSM   H11G12738   5.557   0.783   8.941  0.7964 -2.3757  0.3174
  120OSM   C12F12739   5.388   0.720   8.842 -0.4023  0.5858 -0.0563
  120OSM   H12F12740   5.430   0.619   8.824 -0.5247  0.7774 -1.5199
  120OSM   H12G12741   5.421   0.766   8.747  0.5477 -2.2422 -1.1994
  120OSM   C13F12742   5.231   0.719   8.857 -0.2204 -0.4146 -0.5514
  120OSM   H13F12743   5.209   0.826   8.881  0.6771 -0.6841  1.6456
  120OSM   H13G12744   5.211   0.668   8.954  1.0196  1.6824  0.9052
  120OSM   C14F12745   5.163   0.667   8.735  0.1089 -0.1140 -0.2950
  120OSM   H14F12746   5.053   0.674   8.748  0.1817  3.1999 -0.6805
  120OSM   H14G12747   5.187   0.560   8.714  3.1782  0.3752  0.2914
  120OSM   C15F12748   5.206   0.742   8.607  0.4529  0.3357  0.4664
  120OSM   H15F12749   5.300   0.710   8.558  1.3013  2.5219  0.6007
  120OSM   H15G12750   5.226   0.846   8.638  0.4474  0.0292  1.5564
  120OSM   C16F12751   5.089   0.748   8.509  0.0594 -0.1143  0.3430
  120OSM   H16F12752   5.009   0.806   8.559 -0.6139  0.5310 -1.3859
  120OSM   H16G12753   5.045   0.648   8.491  0.2040  0.4338 -4.5056
  120OSM   C17F12754   5.121   0.812   8.378  0.5622 -0.0960 -0.7105
  120OSM   H17F12755   5.197   0.754   8.321  0.0742 -0.9555 -0.5028
  120OSM   H17G12756   5.171   0.909   8.395 -3.1238  1.5232  2.3731
  120OSM   C18F12757   4.996   0.820   8.297  0.2714 -0.4219 -0.1019
  120OSM   H18F12758   4.953   0.724   8.260 -1.6759  0.9090 -1.5218
  120OSM   H18G12759   5.010   0.862   8.195  1.2715 -0.5139 -0.0148
  120OSM   H18H12760   4.920   0.881   8.350  0.2893 -0.6238  0.1566
  121OSM      N12761   4.738   1.683  10.884 -0.8988  0.0553  0.3271
  121OSM    C1512762   4.646   1.737  10.980 -0.6153  0.1640  1.0561
  121OSM   H15A12763   4.572   1.666  11.013 -0.7182  0.8266  2.3165
  121OSM   H15B12764   4.582   1.803  10.922 -1.8177 -0.5430  1.5480
  121OSM   H15C12765   4.694   1.790  11.061  0.9696 -0.2466  0.4203
  121OSM    C1412766   4.831   1.602  10.958 -0.4631  0.2906 -0.1286
  121OSM   H14A12767   4.788   1.514  11.005 -0.7726 -0.4474 -1.7104
  121OSM   H14B12768   4.884   1.645  11.041  1.2985  1.2589 -1.6712
  121OSM   H14C12769   4.912   1.568  10.895 -0.0297  1.2565 -0.1025
  121OSM    C1312770   4.661   1.610  10.786  0.1422 -0.0090 -0.4062
  121OSM   H13A12771   4.620   1.522  10.833  3.3256 -1.5431 -0.2074
  121OSM   H13B12772   4.731   1.577  10.710  0.9595  1.9804 -0.5918
  121OSM   H13C12773   4.593   1.680  10.740  0.7015  0.2441 -0.8656
  121OSM    C1212774   4.822   1.794  10.816  0.3893  1.0337 -0.2408
  121OSM   H12A12775   4.875   1.853  10.889 -0.0680  2.5370 -1.0976
  121OSM   H12B12776   4.748   1.857  10.770 -0.6782  0.8551  1.1568
  121OSM    C1112777   4.920   1.766  10.696  0.5063 -0.6247 -0.0340
  121OSM   H11A12778   4.954   1.862  10.653  0.5482 -0.2710  0.7877
  121OSM   H11B12779   4.867   1.714  10.613  1.8305 -0.5237 -0.9735
  121OSM      P12780   5.156   1.719  10.806  0.1501  0.5443  0.0726
  121OSM    O1312781   5.138   1.739  10.958 -0.1932  0.3538 -0.0809
  121OSM    O1412782   5.258   1.610  10.781 -0.0795  0.0811 -0.0799
  121OSM    O1112783   5.193   1.848  10.728  0.6167  0.5379 -0.1243
  121OSM    O1212784   5.026   1.676  10.728  0.0591  0.8589 -0.6992
  121OSM    C1S12785   5.232   1.842  10.594 -0.0292  0.1287  0.0850
  121OSM    H1S12786   5.143   1.840  10.527  0.2821  0.7825 -0.3595
  121OSM    H1T12787   5.307   1.760  10.587  0.0992  0.0242  2.2145
  121OSM     NF12788   5.334   1.950  10.402 -0.1297  0.4419  0.0941
  121OSM    HNF12789   5.428   1.933  10.376  0.0359  1.8212 -0.2725
  121OSM    C2S12790   5.301   1.968  10.540  0.9684 -0.3490 -0.1353
  121OSM    H2S12791   5.226   2.049  10.550  1.4741  0.2153 -0.8504
  121OSM    C3S12792   5.416   2.013  10.628 -0.3790 -0.2185 -0.2362
  121OSM    H3S12793   5.489   1.929  10.635  3.0794  2.5588 -0.3931
  121OSM     O312794   5.386   2.041  10.764  0.4412 -0.4006  0.6442
  121OSM    HO312795   5.305   1.994  10.784  0.0655  0.9125  2.4133
  121OSM    C4S12796   5.486   2.123  10.563  0.2744 -0.2009  0.0437
  121OSM    H4S12797   5.556   2.096  10.483 -0.7142  2.9547 -2.0383
  121OSM    C5S12798   5.472   2.257  10.577 -0.5129 -1.0328  0.1353
  121OSM    H5S12799   5.409   2.286  10.663  0.0065 -3.1526  1.2959
  121OSM    C6S12800   5.539   2.366  10.499 -0.2611 -0.8379  0.3940
  121OSM    H6S12801   5.598   2.429  10.569 -1.9947  0.3304  0.8666
  121OSM    H6T12802   5.454   2.423  10.456  0.8075 -1.3709 -2.7039
  121OSM    C7S12803   5.622   2.334  10.372 -0.0185  0.3720 -0.6364
  121OSM    H7S12804   5.685   2.245  10.391  0.9835  0.9499 -1.1712
  121OSM    H7T12805   5.704   2.406  10.351  1.7503 -0.8503  1.7069
  121OSM    C8S12806   5.544   2.326  10.241  0.2739  0.2284 -0.8017
  121OSM    H8S12807   5.507   2.430  10.230 -0.5728  0.2407  1.4592
  121OSM    H8T12808   5.468   2.245  10.241  1.8761 -1.3296 -1.1166
  121OSM    C9S12809   5.631   2.281  10.121  0.4286 -0.0364 -0.1865
  121OSM    H9S12810   5.667   2.180  10.151 -3.2731 -1.2603  0.6028
  121OSM    H9T12811   5.715   2.347  10.091  0.1912 -1.2723 -4.1733
  121OSM   C10S12812   5.556   2.270   9.983 -0.2460  0.0795  0.4083
  121OSM   H10S12813   5.513   2.369   9.958 -0.7304 -0.4587 -1.0356
  121OSM   H10T12814   5.470   2.202   9.999  0.5409 -0.9424  0.3900
  121OSM   C11S12815   5.647   2.224   9.868 -0.2818 -0.1356 -0.3733
  121OSM   H11S12816   5.678   2.120   9.891 -0.7753  0.4350  3.6494
  121OSM   H11T12817   5.738   2.288   9.875  0.5344 -1.4097  1.7047
  121OSM   C12S12818   5.576   2.251   9.728  0.0344  0.0553  0.0865
  121OSM   H12S12819   5.538   2.355   9.722 -2.0945 -0.6250  1.0848
  121OSM   H12T12820   5.489   2.185   9.710 -0.5403  0.7093  0.4007
  121OSM   C13S12821   5.686   2.225   9.619  1.2272 -0.1270 -0.8499
  121OSM   H13S12822   5.723   2.121   9.618 -0.9636 -0.9652 -1.0627
  121OSM   H13T12823   5.774   2.290   9.640  0.6600  0.4940 -0.3284
  121OSM   C14S12824   5.624   2.264   9.481  0.1591  0.1367  0.1177
  121OSM   H14S12825   5.519   2.229   9.483 -0.0909  0.8425 -0.4843
  121OSM   H14T12826   5.683   2.221   9.397 -2.2019  0.0203 -1.5913
  121OSM   C15S12827   5.610   2.416   9.463 -0.6906  0.1167  0.0819
  121OSM   H15S12828   5.703   2.460   9.505 -0.7616  0.4093 -0.0700
  121OSM   H15T12829   5.536   2.454   9.537  1.6006 -0.0197  2.6400
  121OSM   C16S12830   5.590   2.464   9.318  0.5764  0.0860  0.1708
  121OSM   H16S12831   5.534   2.394   9.254  2.4229 -0.6809 -0.6699
  121OSM   H16T12832   5.692   2.476   9.275 -0.1124  0.9356 -1.3270
  121OSM   C17S12833   5.520   2.604   9.317 -0.1301 -0.2957 -0.2746
  121OSM   H17S12834   5.508   2.650   9.216 -0.3342  0.8339  0.2397
  121OSM   H17T12835   5.587   2.670   9.377 -0.0436 -1.0979  0.5357
  121OSM   C18S12836   5.378   2.603   9.383 -0.4897  0.3837 -0.0223
  121OSM   H18S12837   5.391   2.623   9.491 -0.1987  0.6669 -0.1061
  121OSM   H18T12838   5.315   2.515   9.359  2.1739 -0.9788 -2.6728
  121OSM   H18U12839   5.327   2.694   9.345  1.1962  0.6513 -1.8509
  121OSM    C1F12840   5.241   1.955  10.306  0.1124  0.5634  0.2867
  121OSM     OF12841   5.139   2.014  10.326 -0.3647 -0.7612 -0.3257
  121OSM    C2F12842   5.255   1.886  10.182  0.1730  0.2700  0.0842
  121OSM    H2F12843   5.163   1.830  10.157  1.2017 -0.8674 -1.3422
  121OSM    H2G12844   5.339   1.813  10.179  1.0658  1.2811 -0.2223
  121OSM    C3F12845   5.292   1.980  10.066  0.3542 -0.5735 -0.0526
  121OSM    H3F12846   5.401   2.001  10.067 -0.2487  3.2705  0.5248
  121OSM    H3G12847   5.245   2.081  10.064  0.4364 -0.5288  0.3009
  121OSM    C4F12848   5.266   1.907   9.931 -0.4444 -0.7324  0.1968
  121OSM    H4F12849   5.156   1.896   9.922 -0.3074 -2.7374  0.5930
  121OSM    H4G12850   5.322   1.811   9.930  0.4754 -0.2090 -0.5073
  121OSM    C5F12851   5.312   1.994   9.813  0.5291 -0.7164 -0.3307
  121OSM    H5F12852   5.423   2.009   9.814  0.7118 -1.4102 -3.3253
  121OSM    H5G12853   5.269   2.096   9.820 -0.1129 -0.7344 -2.9961
  121OSM    C6F12854   5.288   1.920   9.684 -0.4936  0.4003 -0.1318
  121OSM    H6F12855   5.180   1.931   9.658 -0.6232 -0.5689 -0.0456
  121OSM    H6G12856   5.320   1.815   9.703  0.0297  0.3296 -1.3310
  121OSM    C7F12857   5.374   1.969   9.570 -0.3900  0.3655 -0.6374
  121OSM    H7F12858   5.482   1.967   9.594  1.2709 -1.3858 -6.6885
  121OSM    H7G12859   5.362   2.077   9.546  4.6090  1.6761  1.4314
  121OSM    C8F12860   5.352   1.895   9.443 -0.4367 -0.3306 -0.2062
  121OSM    H8F12861   5.254   1.843   9.442 -0.0916 -1.0022  0.5286
  121OSM    H8G12862   5.433   1.821   9.454  1.2964  1.4367 -0.4362
  121OSM    C9F12863   5.386   1.974   9.317 -0.5731 -0.4008  0.5567
  121OSM    H9F12864   5.491   2.008   9.310  0.0835 -2.6119 -2.9206
  121OSM   C10F12865   5.296   1.994   9.218 -0.2589  0.8315 -0.2044
  121OSM   H10F12866   5.343   2.033   9.126  0.8905  1.2640  0.5447
  121OSM   C11F12867   5.158   1.942   9.216  0.0387  0.0687  0.0799
  121OSM   H11F12868   5.087   2.027   9.217  0.9349  0.8328 -0.1825
  121OSM   H11G12869   5.122   1.896   9.311  0.2361  0.2918  0.2626
  121OSM   C12F12870   5.132   1.853   9.093 -0.1253 -0.0374 -0.0837
  121OSM   H12F12871   5.030   1.817   9.120  0.4866 -0.8037  1.3046
  121OSM   H12G12872   5.194   1.761   9.090  0.0743  0.0927  0.0340
  121OSM   C13F12873   5.141   1.914   8.960 -0.0723  0.0631 -0.0018
  121OSM   H13F12874   5.247   1.935   8.934 -0.6061  0.2471 -2.2297
  121OSM   H13G12875   5.083   2.009   8.952  0.3228  0.1345 -4.2610
  121OSM   C14F12876   5.092   1.815   8.854 -0.2801 -0.1088  0.0301
  121OSM   H14F12877   4.993   1.775   8.883 -0.2674 -0.7548 -0.7673
  121OSM   H14G12878   5.165   1.730   8.849 -1.1178 -0.8129 -0.5502
  121OSM   C15F12879   5.079   1.871   8.711 -0.2893 -0.3612  0.9025
  121OSM   H15F12880   5.181   1.882   8.667 -0.7391 -0.3423 -0.1768
  121OSM   H15G12881   5.041   1.974   8.702  1.0918  0.1133  0.0456
  121OSM   C16F12882   4.998   1.772   8.613 -1.0038  0.5858 -0.4415
  121OSM   H16F12883   4.896   1.756   8.655 -0.9562  1.4298  0.0144
  121OSM   H16G12884   5.056   1.677   8.617  1.1503  1.8692  0.0992
  121OSM   C17F12885   4.984   1.841   8.473 -0.4624 -0.5258  0.5866
  121OSM   H17F12886   5.082   1.842   8.420 -1.9107 -0.6063 -2.3199
  121OSM   H17G12887   4.965   1.951   8.480  0.6841 -0.2741  0.0936
  121OSM   C18F12888   4.873   1.773   8.383 -1.2436  0.0968 -0.2030
  121OSM   H18F12889   4.893   1.788   8.275 -0.2150  2.2603  0.2256
  121OSM   H18G12890   4.775   1.820   8.409 -0.0180  1.7478  1.7892
  121OSM   H18H12891   4.868   1.667   8.414 -1.0729 -0.0015 -0.5105
  122OSM      N12892   6.646   0.031  10.824  0.9784 -0.2097  0.7853
  122OSM    C1512893   6.631  -0.025  10.685  0.2135  0.3203 -0.1830
  122OSM   H15A12894   6.530  -0.057  10.664  1.2675 -1.6949 -2.6553
  122OSM   H15B12895   6.696  -0.110  10.674  0.8025  0.9674 -2.0091
  122OSM   H15C12896   6.656   0.037  10.600 -1.3069  2.1212  0.6110
  122OSM    C1412897   6.595  -0.066  10.930 -0.1508  0.4628 -0.3546
  122OSM   H14A12898   6.489  -0.087  10.923 -0.8796  2.9858  1.4844
  122OSM   H14B12899   6.619  -0.029  11.029  3.2063 -0.2770 -0.7668
  122OSM   H14C12900   6.647  -0.160  10.916  0.4712  0.7322  0.1139
  122OSM    C1312901   6.790   0.056  10.838  0.1154 -0.0039  0.2508
  122OSM   H13A12902   6.843   0.118  10.768  3.2312 -0.5164  1.9731
  122OSM   H13B12903   6.847  -0.036  10.842  1.9990  1.1452  1.4564
  122OSM   H13C12904   6.807   0.107  10.932  3.0341  0.2463 -0.3023
  122OSM    C1212905   6.573   0.163  10.823 -0.1157  0.0495 -0.6615
  122OSM   H12A12906   6.615   0.231  10.750  1.9136  1.9157  2.0272
  122OSM   H12B12907   6.576   0.209  10.921 -0.8366 -3.0643  0.9855
  122OSM    C1112908   6.422   0.151  10.807  0.0027  0.0587 -0.0559
  122OSM   H11A12909   6.380   0.109  10.901 -1.7509  2.7142  0.4714
  122OSM   H11B12910   6.382   0.098  10.718 -1.1090  2.3699 -1.0421
  122OSM      P12911   6.244   0.329  10.736 -0.0832 -0.2496  0.0269
  122OSM    O1312912   6.137   0.227  10.771  0.3429  0.2415  0.1730
  122OSM    O1412913   6.215   0.471  10.761  0.0700 -0.1648  0.0460
  122OSM    O1112914   6.267   0.302  10.582 -0.3228  0.0669  0.4597
  122OSM    O1212915   6.384   0.286  10.800  0.3843 -0.4121  0.7726
  122OSM    C1S12916   6.390   0.332  10.515 -0.2197 -0.7306  0.3851
  122OSM    H1S12917   6.472   0.273  10.561 -0.3330 -1.5820 -0.4797
  122OSM    H1T12918   6.417   0.440  10.517  0.8062 -0.9615 -0.3740
  122OSM     NF12919   6.516   0.280  10.317 -0.2872  0.6919  0.4768
  122OSM    HNF12920   6.546   0.371  10.289 -2.0733  1.2515  0.1982
  122OSM    C2S12921   6.382   0.283  10.367 -0.2042 -0.4067  0.0394
  122OSM    H2S12922   6.344   0.178  10.372  0.5779 -0.7248 -0.4767
  122OSM    C3S12923   6.282   0.371  10.288  0.5721 -0.3811 -0.3152
  122OSM    H3S12924   6.322   0.474  10.274  0.9641 -0.5147 -0.1883
  122OSM     O312925   6.150   0.387  10.348  0.6808  0.4011  0.0679
  122OSM    HO312926   6.175   0.384  10.441  4.0386  3.0817 -0.5217
  122OSM    C4S12927   6.280   0.316  10.146  0.0325 -0.8979  0.6430
  122OSM    H4S12928   6.353   0.361  10.077  1.1671 -0.6640  1.9642
  122OSM    C5S12929   6.188   0.229  10.097  0.2732 -0.5452  0.1831
  122OSM    H5S12930   6.100   0.217  10.161 -1.0202 -0.5827 -1.5548
  122OSM    C6S12931   6.181   0.163   9.962 -0.5107  0.0005 -0.4250
  122OSM    H6S12932   6.076   0.143   9.931  0.1870 -1.3564 -1.9974
  122OSM    H6T12933   6.209   0.057   9.976  0.0554  0.2555  0.4123
  122OSM    C7S12934   6.241   0.242   9.849 -0.1386  0.1681  0.7903
  122OSM    H7S12935   6.351   0.234   9.860 -0.2033  0.3653  1.6638
  122OSM    H7T12936   6.216   0.350   9.855  2.0624  1.0358 -2.9288
  122OSM    C8S12937   6.190   0.191   9.711  0.1910  0.5645  0.5467
  122OSM    H8S12938   6.081   0.206   9.704 -0.1811 -2.2207 -0.9182
  122OSM    H8T12939   6.192   0.080   9.705 -4.0244  0.3766 -0.3081
  122OSM    C9S12940   6.247   0.261   9.588  0.1502 -0.0853 -0.0779
  122OSM    H9S12941   6.357   0.252   9.600 -0.1544 -2.9215  1.5148
  122OSM    H9T12942   6.213   0.367   9.582 -0.6549 -0.2411  1.3653
  122OSM   C10S12943   6.200   0.189   9.460  0.4749 -0.0118  0.0976
  122OSM   H10S12944   6.092   0.204   9.439  0.4407 -0.7591 -0.3214
  122OSM   H10T12945   6.224   0.081   9.470 -1.0997 -0.3160  0.8814
  122OSM   C11S12946   6.276   0.235   9.338 -0.6376  0.1879  0.0765
  122OSM   H11S12947   6.384   0.221   9.357 -0.5365  2.5156  1.7236
  122OSM   H11T12948   6.253   0.344   9.327 -1.2911 -0.1414 -2.3043
  122OSM   C12S12949   6.238   0.165   9.208 -0.5884 -0.0970  0.3688
  122OSM   H12S12950   6.128   0.148   9.206 -0.7112  0.2898  2.2450
  122OSM   H12T12951   6.282   0.064   9.215 -2.0019 -0.7688 -0.0751
  122OSM   C13S12952   6.267   0.248   9.084  0.2457 -0.5561  0.0658
  122OSM   H13S12953   6.377   0.261   9.090  0.0386  0.8155  1.9300
  122OSM   H13T12954   6.233   0.350   9.110 -0.1922 -1.3071  2.8431
  122OSM   C14S12955   6.231   0.184   8.951 -0.0815  0.3097  0.1527
  122OSM   H14S12956   6.120   0.179   8.946 -0.0310 -1.8078  0.3683
  122OSM   H14T12957   6.258   0.077   8.951 -2.2022 -0.2898 -0.9523
  122OSM   C15S12958   6.292   0.250   8.835 -0.7081 -0.2131 -0.5010
  122OSM   H15S12959   6.401   0.228   8.837 -1.0335 -2.0338 -1.1683
  122OSM   H15T12960   6.282   0.360   8.847  0.1716 -0.3463  2.0263
  122OSM   C16S12961   6.237   0.213   8.697  0.1166 -0.3659 -0.0219
  122OSM   H16S12962   6.137   0.261   8.691  0.0210 -0.2448  1.9458
  122OSM   H16T12963   6.227   0.104   8.678 -0.6632 -0.4503  0.7953
  122OSM   C17S12964   6.309   0.287   8.573  0.1816 -0.6199 -1.0537
  122OSM   H17S12965   6.420   0.281   8.582  0.4984  0.5409 -3.3677
  122OSM   H17T12966   6.283   0.392   8.597 -0.4592 -1.1568  0.7997
  122OSM   C18S12967   6.261   0.223   8.446 -0.3537 -0.7621 -0.6140
  122OSM   H18S12968   6.296   0.271   8.352  1.0230 -1.7894 -0.6625
  122OSM   H18T12969   6.151   0.228   8.454 -0.2600  2.1572  0.1513
  122OSM   H18U12970   6.308   0.123   8.432 -0.1126 -1.0975  2.1090
  122OSM    C1F12971   6.600   0.173  10.346  0.4064 -0.1204  0.4410
  122OSM     OF12972   6.552   0.064  10.378 -0.4898  0.1645  0.3023
  122OSM    C2F12973   6.747   0.197  10.330  0.0889  0.7205 -0.4756
  122OSM    H2F12974   6.788   0.162  10.427  1.3802  0.8092 -0.9583
  122OSM    H2G12975   6.767   0.304  10.309 -0.7035  0.3331 -3.8890
  122OSM    C3F12976   6.801   0.102  10.217 -0.1451  0.1325 -0.8866
  122OSM    H3F12977   6.778  -0.005  10.239  0.7530  0.2523  0.7821
  122OSM    H3G12978   6.911   0.115  10.223  0.1568 -2.4839  0.6101
  122OSM    C4F12979   6.756   0.134  10.069 -0.0685 -0.6550  0.3042
  122OSM    H4F12980   6.649   0.109  10.052 -0.0932 -1.8789  2.0833
  122OSM    H4G12981   6.817   0.072   9.999  0.7397 -2.0004  2.1401
  122OSM    C5F12982   6.787   0.276  10.016  0.4734 -0.2529  0.1705
  122OSM    H5F12983   6.890   0.293  10.053  0.9341 -1.1301 -0.6781
  122OSM    H5G12984   6.742   0.359  10.075  0.8301 -0.7112  1.0975
  122OSM    C6F12985   6.775   0.295   9.862 -0.2569 -0.2129  0.2456
  122OSM    H6F12986   6.788   0.196   9.814  0.8735  0.5811 -1.1514
  122OSM    H6G12987   6.849   0.367   9.821 -0.2874 -2.0884 -3.4645
  122OSM    C7F12988   6.639   0.339   9.813  0.3757  0.3447  0.2922
  122OSM    H7F12989   6.565   0.300   9.886  0.0125  0.9485  0.2563
  122OSM    H7G12990   6.604   0.311   9.712  4.3654  1.9955 -1.7826
  122OSM    C8F12991   6.634   0.487   9.807 -0.0603  0.2693  0.1552
  122OSM    H8F12992   6.723   0.530   9.758  0.2493 -1.1714 -0.5891
  122OSM    H8G12993   6.639   0.514   9.915 -1.7603  0.7467  0.1455
  122OSM    C9F12994   6.501   0.537   9.754  0.5230 -0.4271  0.5932
  122OSM    H9F12995   6.415   0.524   9.820  0.4132 -0.7753  0.3828
  122OSM   C10F12996   6.473   0.577   9.630  0.0500  0.0931  0.1135
  122OSM   H10F12997   6.381   0.633   9.605  1.7281  2.9067 -0.2839
  122OSM   C11F12998   6.571   0.566   9.517 -0.0426 -0.0133  0.1334
  122OSM   H11F12999   6.633   0.474   9.524  0.0292  0.1553  2.4082
  122OSM   H11G13000   6.646   0.648   9.520  1.0010 -0.9352 -0.2325
  122OSM   C12F13001   6.510   0.573   9.377  0.1354 -0.4620  0.1919
  122OSM   H12F13002   6.465   0.673   9.361 -1.2509 -1.1843 -0.6570
  122OSM   H12G13003   6.429   0.497   9.366 -0.1994  0.0841 -1.2996
  122OSM   C13F13004   6.621   0.545   9.270  0.3990 -0.7982  0.0235
  122OSM   H13F13005   6.692   0.468   9.308  0.8663 -0.0452  0.6961
  122OSM   H13G13006   6.681   0.637   9.260  0.3353 -0.4311  2.5288
  122OSM   C14F13007   6.564   0.524   9.133 -0.2697  0.0836 -0.3808
  122OSM   H14F13008   6.472   0.583   9.115 -0.6786 -0.3677  0.1763
  122OSM   H14G13009   6.534   0.417   9.138  1.0311 -0.2436  1.5379
  122OSM   C15F13010   6.662   0.532   9.015 -0.0168  0.3172 -0.1185
  122OSM   H15F13011   6.742   0.456   9.029 -1.8994 -1.3704  2.3710
  122OSM   H15G13012   6.709   0.632   9.007 -0.0384  0.2796 -0.8499
  122OSM   C16F13013   6.579   0.517   8.887 -0.0458 -0.1643 -0.3203
  122OSM   H16F13014   6.480   0.559   8.913  0.1918 -0.3525  0.9413
  122OSM   H16G13015   6.556   0.409   8.870 -1.7533  0.1924 -0.3999
  122OSM   C17F13016   6.652   0.578   8.769 -0.3210 -0.4253  0.2826
  122OSM   H17F13017   6.683   0.680   8.797  0.8574 -0.5438 -0.5252
  122OSM   H17G13018   6.588   0.590   8.680  0.4673 -1.2967 -0.4260
  122OSM   C18F13019   6.776   0.495   8.724  0.3419 -0.3219 -0.0213
  122OSM   H18F13020   6.850   0.481   8.807  0.0293  0.5219  0.4144
  122OSM   H18G13021   6.814   0.543   8.631 -1.6125 -1.4166 -1.4491
  122OSM   H18H13022   6.743   0.398   8.683 -0.8197 -0.5754  1.4350
  123OSM      N13023   3.930   6.383   5.797  0.2603 -0.1603 -0.6469
  123OSM    C1513024   3.804   6.345   5.738  0.3392 -0.0156 -0.1577
  123OSM   H15A13025   3.758   6.273   5.805  1.4118 -0.5103  0.0620
  123OSM   H15B13026   3.824   6.299   5.642 -0.0072  0.4291 -0.4455
  123OSM   H15C13027   3.732   6.426   5.731  2.1085  1.4933 -1.6586
  123OSM    C1413028   4.016   6.260   5.816 -0.4154 -0.0294 -0.0782
  123OSM   H14A13029   4.114   6.280   5.858 -0.8938 -2.3109  2.4404
  123OSM   H14B13030   4.035   6.205   5.726  0.1617 -0.3328  0.2305
  123OSM   H14C13031   3.978   6.197   5.895  0.9520  3.2548  3.5718
  123OSM    C1313032   4.002   6.467   5.690 -0.7569  0.3427 -0.6072
  123OSM   H13A13033   3.947   6.557   5.668 -0.7293  0.8470  1.2322
  123OSM   H13B13034   4.018   6.414   5.597  0.3205 -2.3304  0.9877
  123OSM   H13C13035   4.094   6.514   5.723 -0.1536 -0.3484 -1.2739
  123OSM    C1213036   3.911   6.459   5.924 -0.4926 -0.4281 -0.8868
  123OSM   H12A13037   3.834   6.534   5.916 -2.3013 -2.2336 -1.2374
  123OSM   H12B13038   4.007   6.507   5.934 -1.0869  0.9770 -1.5997
  123OSM    C1113039   3.864   6.391   6.055 -0.0525  0.4008  0.1206
  123OSM   H11A13040   3.876   6.468   6.135  0.4832 -0.1391  0.5721
  123OSM   H11B13041   3.921   6.298   6.076  1.2177  1.3359  1.0023
  123OSM      P13042   3.623   6.480   6.084  0.3057 -0.1674  0.4760
  123OSM    O1313043   3.637   6.599   5.995  0.0632  0.0780  0.4385
  123OSM    O1413044   3.484   6.422   6.084  0.1238  0.0272 -0.2837
  123OSM    O1113045   3.667   6.518   6.231 -0.2363 -0.4200  0.2002
  123OSM    O1213046   3.725   6.366   6.043 -0.3489  0.9366 -0.0619
  123OSM    C1S13047   3.573   6.543   6.338  0.6056  0.3087  0.2101
  123OSM    H1S13048   3.520   6.448   6.361  0.5971  0.1236 -0.5431
  123OSM    H1T13049   3.499   6.623   6.314 -0.3870 -0.4585  0.6701
  123OSM     NF13050   3.540   6.640   6.572  0.9331 -0.5722 -0.1518
  123OSM    HNF13051   3.508   6.734   6.562  2.6612 -0.0684 -1.4119
  123OSM    C2S13052   3.639   6.600   6.471  0.6715  0.2590 -0.0533
  123OSM    H2S13053   3.704   6.519   6.511 -0.3402 -0.4592  0.1692
  123OSM    C3S13054   3.731   6.718   6.426  0.6544 -0.1579 -0.1061
  123OSM    H3S13055   3.678   6.771   6.344 -1.5803 -0.6864  0.9068
  123OSM     O313056   3.855   6.681   6.368 -1.1808 -0.0184 -0.0639
  123OSM    HO313057   3.843   6.597   6.323  3.0296  0.5325 -2.7744
  123OSM    C4S13058   3.772   6.799   6.548  0.1327 -0.0162 -0.2795
  123OSM    H4S13059   3.728   6.900   6.544  0.0613  0.0024  0.8392
  123OSM    C5S13060   3.845   6.784   6.663 -0.0995  0.3581  0.6525
  123OSM    H5S13061   3.892   6.686   6.684  1.1546  0.7325 -0.3079
  123OSM    C6S13062   3.879   6.891   6.765 -0.1607 -0.0576  0.2332
  123OSM    H6S13063   3.888   6.989   6.714 -0.5581  0.0458  0.3527
  123OSM    H6T13064   3.978   6.868   6.809  0.4146  3.0642  0.8286
  123OSM    C7S13065   3.773   6.916   6.870 -0.1070 -0.2559  0.1122
  123OSM    H7S13066   3.768   6.822   6.931 -0.4216 -1.6492 -1.9614
  123OSM    H7T13067   3.676   6.925   6.817 -1.1221  0.7694  2.0622
  123OSM    C8S13068   3.785   7.042   6.961  0.0457 -0.9601 -0.7485
  123OSM    H8S13069   3.697   7.039   7.029  0.1986 -2.3803 -0.5807
  123OSM    H8T13070   3.787   7.135   6.901  0.9486  0.0487  0.7826
  123OSM    C9S13071   3.916   7.047   7.041  0.1286 -1.2000 -0.3396
  123OSM    H9S13072   3.935   7.151   7.075  0.2702 -0.3168 -2.9334
  123OSM    H9T13073   4.002   7.028   6.973  1.1447 -0.2710  0.6396
  123OSM   C10S13074   3.920   6.966   7.172  0.2398 -0.6529  0.0713
  123OSM   H10S13075   3.884   6.861   7.165  0.0935 -0.6805  1.1238
  123OSM   H10T13076   3.853   7.017   7.244  1.6811 -0.3536  1.2660
  123OSM   C11S13077   4.062   6.950   7.234  0.1112 -0.1886 -0.6847
  123OSM   H11S13078   4.101   7.052   7.253 -0.0630 -0.1465 -0.5547
  123OSM   H11T13079   4.129   6.898   7.162  1.6197 -2.0098  1.8515
  123OSM   C12S13080   4.065   6.889   7.374 -0.5257  0.0612 -0.0345
  123OSM   H12S13081   4.165   6.905   7.419  0.2079 -0.1298 -1.5205
  123OSM   H12T13082   4.038   6.782   7.382  0.3015 -0.2800 -1.4048
  123OSM   C13S13083   3.969   6.965   7.470 -0.1093  0.4298 -0.3227
  123OSM   H13S13084   3.862   6.947   7.444  0.0524  1.0714 -1.4845
  123OSM   H13T13085   4.001   7.071   7.459 -0.1173  0.4569 -0.0872
  123OSM   C14S13086   3.992   6.924   7.615 -0.2998  0.4173  0.7346
  123OSM   H14S13087   4.098   6.904   7.640  0.4911  1.8114 -1.2380
  123OSM   H14T13088   3.940   6.830   7.643 -1.0862  0.7369  0.3948
  123OSM   C15S13089   3.933   7.025   7.711  0.5429 -0.0586  0.0062
  123OSM   H15S13090   3.822   7.024   7.708  0.4491  2.6091 -0.0731
  123OSM   H15T13091   3.965   7.127   7.680  0.2649 -0.8146 -2.9872
  123OSM   C16S13092   3.987   7.008   7.858 -0.8485 -0.2349 -0.6396
  123OSM   H16S13093   3.954   7.094   7.919  0.2667 -0.6378  0.5862
  123OSM   H16T13094   4.097   7.023   7.850 -1.1431  2.7680  0.0098
  123OSM   C17S13095   3.949   6.882   7.931 -0.2527  0.5349  0.2511
  123OSM   H17S13096   3.975   6.799   7.862 -0.6205  2.7651 -2.7602
  123OSM   H17T13097   3.838   6.879   7.943 -0.3388  1.9669 -0.0585
  123OSM   C18S13098   4.020   6.857   8.067 -0.4277 -0.4844 -0.2157
  123OSM   H18S13099   3.952   6.900   8.144 -0.9811  0.3134 -1.1439
  123OSM   H18T13100   4.116   6.912   8.078 -0.2756 -1.0994  2.0830
  123OSM   H18U13101   4.043   6.749   8.079 -1.6823 -0.5280  2.5286
  123OSM    C1F13102   3.468   6.549   6.627  0.9365 -0.2422 -0.4439
  123OSM     OF13103   3.495   6.433   6.625  0.3158  0.0699  0.1084
  123OSM    C2F13104   3.345   6.603   6.700 -0.0287  0.1847 -0.4833
  123OSM    H2F13105   3.280   6.638   6.617  2.1940 -1.5389 -3.1374
  123OSM    H2G13106   3.387   6.693   6.749 -0.6125 -0.8025  1.9364
  123OSM    C3F13107   3.276   6.498   6.793 -0.3382  0.0359  0.2491
  123OSM    H3F13108   3.346   6.465   6.873  1.9290  0.9837 -1.2313
  123OSM    H3G13109   3.246   6.406   6.739 -0.2614  0.5799 -0.7444
  123OSM    C4F13110   3.147   6.543   6.869  0.2443  1.1356  0.3548
  123OSM    H4F13111   3.069   6.569   6.795  0.3460  1.3935  0.3382
  123OSM    H4G13112   3.166   6.633   6.932 -1.9625  1.4814  0.5822
  123OSM    C5F13113   3.079   6.440   6.963  0.4356 -0.3387  0.2066
  123OSM    H5F13114   3.083   6.348   6.901  2.0616  0.5795 -1.1271
  123OSM    H5G13115   2.973   6.467   6.983  0.2930 -1.8306  1.7470
  123OSM    C6F13116   3.156   6.396   7.084  0.3698 -0.0213  0.0441
  123OSM    H6F13117   3.263   6.382   7.061  0.4491  1.5664 -0.6467
  123OSM    H6G13118   3.111   6.297   7.111 -0.1614  0.7105  2.0538
  123OSM    C7F13119   3.154   6.485   7.206  0.1973 -0.1622 -0.1779
  123OSM    H7F13120   3.054   6.532   7.219 -1.3543 -3.6149  1.9388
  123OSM    H7G13121   3.236   6.557   7.189  1.0306 -1.2652 -0.9939
  123OSM    C8F13122   3.203   6.413   7.338 -0.2584  0.2493  0.0222
  123OSM    H8F13123   3.210   6.498   7.410  1.7934  2.6788 -2.7682
  123OSM    H8G13124   3.307   6.375   7.333 -0.1838  0.2270  1.3022
  123OSM    C9F13125   3.108   6.318   7.400  0.5257 -0.7122 -0.5417
  123OSM    H9F13126   3.012   6.299   7.348 -0.9588 -0.3481  1.9079
  123OSM   C10F13127   3.109   6.258   7.517 -0.1599  0.5910 -0.5722
  123OSM   H10F13128   3.025   6.199   7.556  2.6321 -1.9742  2.1422
  123OSM   C11F13129   3.223   6.266   7.622 -0.0234 -0.4231  0.4044
  123OSM   H11F13130   3.330   6.279   7.595  0.3245 -1.7970  1.0565
  123OSM   H11G13131   3.225   6.177   7.688  0.7205 -1.0478 -0.4417
  123OSM   C12F13132   3.189   6.384   7.714  0.8232  0.2865  0.0643
  123OSM   H12F13133   3.082   6.377   7.741  1.1444 -2.4058  0.8963
  123OSM   H12G13134   3.214   6.478   7.660 -0.0973  1.5169  1.7020
  123OSM   C13F13135   3.264   6.408   7.849 -0.0410  0.2015 -0.3651
  123OSM   H13F13136   3.256   6.513   7.883  0.3290 -0.0306  0.4489
  123OSM   H13G13137   3.369   6.383   7.824 -0.0445  1.5468 -1.9303
  123OSM   C14F13138   3.214   6.322   7.963 -0.6889  0.4192  0.0990
  123OSM   H14F13139   3.228   6.216   7.933 -0.4084  1.2558 -3.0935
  123OSM   H14G13140   3.107   6.333   7.991 -1.7771  1.6188 -3.8825
  123OSM   C15F13141   3.297   6.356   8.089  0.6946 -0.0760  0.5943
  123OSM   H15F13142   3.258   6.454   8.121  0.0699  1.0410 -3.0593
  123OSM   H15G13143   3.405   6.355   8.061  0.4628 -0.5443 -0.3343
  123OSM   C16F13144   3.274   6.240   8.191 -0.6103 -0.0851 -0.1534
  123OSM   H16F13145   3.326   6.152   8.147  1.7535  1.2511 -0.1900
  123OSM   H16G13146   3.166   6.220   8.206 -1.0521  1.7414 -0.6940
  123OSM   C17F13147   3.350   6.261   8.327 -0.4064 -0.2054 -0.4085
  123OSM   H17F13148   3.330   6.358   8.378  3.5638  1.4831 -1.7146
  123OSM   H17G13149   3.458   6.268   8.305 -0.5814 -0.1851 -1.2712
  123OSM   C18F13150   3.342   6.149   8.425  0.4012 -0.1013  0.1430
  123OSM   H18F13151   3.242   6.116   8.460  0.0658  1.9583  1.3036
  123OSM   H18G13152   3.406   6.175   8.513 -1.7099 -0.8045  1.9633
  123OSM   H18H13153   3.384   6.058   8.377  1.5444  0.8451 -0.7188
  124OSM      N13154   3.500   3.739   5.955 -0.1387  0.6876 -1.0166
  124OSM    C1513155   3.372   3.731   5.891 -0.8446  1.1909 -0.1778
  124OSM   H15A13156   3.331   3.826   5.860 -0.2522  1.4128 -0.3158
  124OSM   H15B13157   3.306   3.670   5.951  0.8454  1.1910  1.8162
  124OSM   H15C13158   3.390   3.674   5.801  2.1726 -3.6067  3.0141
  124OSM    C1413159   3.560   3.602   5.947 -0.2453  1.2894  0.1455
  124OSM   H14A13160   3.585   3.575   5.846  1.6103 -2.2200  1.3639
  124OSM   H14B13161   3.494   3.524   5.981  0.7934 -0.8171 -2.3710
  124OSM   H14C13162   3.652   3.607   6.004 -0.6022 -0.0016  0.8715
  124OSM    C1313163   3.574   3.850   5.884  0.8280 -0.1847 -0.6211
  124OSM   H13A13164   3.657   3.885   5.943  2.4177 -0.6368 -2.5077
  124OSM   H13B13165   3.506   3.933   5.873 -0.3167 -1.0927 -0.6396
  124OSM   H13C13166   3.611   3.824   5.786 -0.0390  0.5993 -1.1717
  124OSM    C1213167   3.497   3.771   6.103 -0.2373  0.3297 -0.0388
  124OSM   H12A13168   3.417   3.716   6.149  1.6387 -2.0557  0.6295
  124OSM   H12B13169   3.456   3.870   6.117  0.5318  0.5601  0.6904
  124OSM    C1113170   3.626   3.760   6.196 -0.1317  0.3450 -0.2385
  124OSM   H11A13171   3.663   3.656   6.209  2.9242  1.6637  3.9037
  124OSM   H11B13172   3.607   3.777   6.304  0.3747  0.9876 -0.2371
  124OSM      P13173   3.747   3.985   6.198  0.2666  0.2076 -0.2964
  124OSM    O1313174   3.863   4.057   6.145  0.4835 -0.6710  0.0023
  124OSM    O1413175   3.623   4.057   6.171  0.4310  0.6252 -0.2672
  124OSM    O1113176   3.753   3.969   6.354 -0.3920 -0.2244 -0.6388
  124OSM    O1213177   3.736   3.836   6.141  1.2346 -0.0795 -0.5854
  124OSM    C1S13178   3.716   4.076   6.440 -0.3635  0.7706 -0.3054
  124OSM    H1S13179   3.610   4.102   6.423 -0.1245  0.2349 -3.2283
  124OSM    H1T13180   3.784   4.164   6.432  1.1185 -0.2802  0.2410
  124OSM     NF13181   3.684   4.123   6.672 -0.2316  0.4835 -0.3133
  124OSM    HNF13182   3.743   4.187   6.721  0.6991  0.0852 -0.8833
  124OSM    C2S13183   3.742   4.027   6.583 -0.0695  0.4035  0.1019
  124OSM    H2S13184   3.704   3.923   6.591 -0.0653  0.0967 -2.8131
  124OSM    C3S13185   3.898   3.999   6.613  0.7169  0.1349  0.5954
  124OSM    H3S13186   3.948   4.098   6.620  0.0988  0.3194  2.8911
  124OSM     O313187   3.967   3.921   6.514  0.4820  0.1316 -0.6546
  124OSM    HO313188   3.904   3.924   6.441  0.6893  0.9174 -0.8127
  124OSM    C4S13189   3.897   3.933   6.748  0.0626 -0.4273  0.7925
  124OSM    H4S13190   3.875   4.001   6.833  2.0574  0.5135  0.6129
  124OSM    C5S13191   3.918   3.806   6.783 -0.3790  1.1066 -0.3414
  124OSM    H5S13192   3.936   3.734   6.701  1.8431 -0.4906  1.4088
  124OSM    C6S13193   3.916   3.751   6.923  0.0904 -0.4735 -0.7968
  124OSM    H6S13194   4.008   3.699   6.957 -0.4932 -0.5461  0.7207
  124OSM    H6T13195   3.828   3.688   6.946  0.7991 -1.0980  0.2325
  124OSM    C7S13196   3.906   3.867   7.025  0.9897 -0.4593 -0.9941
  124OSM    H7S13197   3.812   3.924   7.009 -0.4149 -2.5752 -0.6819
  124OSM    H7T13198   3.991   3.937   7.011 -0.1961  1.2596  0.0082
  124OSM    C8S13199   3.924   3.818   7.168  0.3694  0.4821 -0.0251
  124OSM    H8S13200   3.945   3.914   7.220 -1.0565  0.5515  0.4662
  124OSM    H8T13201   4.005   3.745   7.190 -2.0761 -1.5150  3.2073
  124OSM    C9S13202   3.799   3.762   7.235  0.8108 -0.1382  0.9445
  124OSM    H9S13203   3.790   3.663   7.186 -1.7347 -0.1439  1.2799
  124OSM    H9T13204   3.709   3.826   7.228 -0.3922 -1.9091 -1.0335
  124OSM   C10S13205   3.816   3.742   7.382 -0.9969  0.8792  0.0685
  124OSM   H10S13206   3.921   3.715   7.404 -0.8546  1.3470 -0.0340
  124OSM   H10T13207   3.755   3.659   7.424  0.6215  0.0805  0.9301
  124OSM   C11S13208   3.753   3.857   7.472 -0.4569  0.8231  0.1770
  124OSM   H11S13209   3.660   3.891   7.422  0.5530  2.8254 -0.4629
  124OSM   H11T13210   3.824   3.942   7.461  1.5548 -0.7591  0.2659
  124OSM   C12S13211   3.747   3.823   7.628  0.7747 -0.9892  0.3577
  124OSM   H12S13212   3.839   3.765   7.651  1.2870 -0.7249 -0.9627
  124OSM   H12T13213   3.664   3.751   7.636  0.0894 -0.3414 -0.6943
  124OSM   C13S13214   3.725   3.954   7.707 -0.6262 -0.1604 -0.3615
  124OSM   H13S13215   3.623   3.990   7.682 -0.7942 -0.8395 -0.6876
  124OSM   H13T13216   3.804   4.030   7.691  1.2387 -1.3241  2.5011
  124OSM   C14S13217   3.703   3.935   7.856  0.3650  0.4121  0.2632
  124OSM   H14S13218   3.799   3.892   7.894  0.0853 -1.9600 -1.4532
  124OSM   H14T13219   3.627   3.855   7.866 -0.1445  0.8172 -0.3544
  124OSM   C15S13220   3.657   4.063   7.940 -0.4419 -0.7368 -0.2703
  124OSM   H15S13221   3.559   4.103   7.908 -0.7153  0.3096  1.7643
  124OSM   H15T13222   3.742   4.134   7.941 -0.4066 -0.7742 -0.4940
  124OSM   C16S13223   3.636   4.012   8.081  0.6594  0.8670 -0.3279
  124OSM   H16S13224   3.722   3.949   8.112  0.1295  0.1573 -0.2866
  124OSM   H16T13225   3.545   3.948   8.091  1.2116  0.1104 -0.0709
  124OSM   C17S13226   3.637   4.115   8.188  0.7216 -0.8488  0.1025
  124OSM   H17S13227   3.544   4.173   8.169 -0.4534 -2.5186  0.5388
  124OSM   H17T13228   3.728   4.173   8.162  0.3573 -0.7171 -0.9031
  124OSM   C18S13229   3.635   4.069   8.336  0.0191  0.1975 -0.1893
  124OSM   H18S13230   3.546   4.012   8.370 -0.3628  0.7714 -0.2161
  124OSM   H18T13231   3.659   4.155   8.402 -0.1371 -0.9987  1.4965
  124OSM   H18U13232   3.713   3.990   8.345  0.6099  0.3556 -3.0192
  124OSM    C1F13233   3.559   4.118   6.701 -0.1464 -0.3639 -0.1439
  124OSM     OF13234   3.478   4.028   6.665 -0.4364 -0.9843 -0.1589
  124OSM    C2F13235   3.526   4.230   6.798 -1.5123  0.3564 -0.0945
  124OSM    H2F13236   3.419   4.227   6.828 -1.8229 -1.2592 -1.2287
  124OSM    H2G13237   3.538   4.333   6.759  1.6840 -0.4286 -1.4755
  124OSM    C3F13238   3.608   4.234   6.926 -0.3064  0.3110 -1.0371
  124OSM    H3F13239   3.582   4.331   6.975  1.5067  0.2094  0.2088
  124OSM    H3G13240   3.716   4.243   6.903 -0.5808  0.8477 -2.1761
  124OSM    C4F13241   3.585   4.115   7.032  0.2018  0.3962  0.0121
  124OSM    H4F13242   3.615   4.014   6.997 -0.5556  0.6640 -1.4579
  124OSM    H4G13243   3.474   4.111   7.038  0.1756 -0.7822 -0.8201
  124OSM    C5F13244   3.662   4.135   7.167  0.4083  0.2935  0.2916
  124OSM    H5F13245   3.730   4.222   7.155 -0.9980  1.1283 -2.5226
  124OSM    H5G13246   3.716   4.042   7.196  1.7532  0.8707 -0.3135
  124OSM    C6F13247   3.562   4.169   7.278  0.2265 -0.0993  0.1325
  124OSM    H6F13248   3.490   4.086   7.293 -1.0591  0.6228 -1.5959
  124OSM    H6G13249   3.511   4.265   7.253 -1.1002 -0.7663  0.1577
  124OSM    C7F13250   3.636   4.206   7.410  0.1034  0.6320  0.1499
  124OSM    H7F13251   3.715   4.277   7.378 -0.4539  1.1203 -0.1918
  124OSM    H7G13252   3.680   4.108   7.435  0.2708  0.4304 -0.9151
  124OSM    C8F13253   3.541   4.251   7.519 -0.4738 -0.2984  0.6550
  124OSM    H8F13254   3.464   4.172   7.534  1.5698 -2.3444  0.8319
  124OSM    H8G13255   3.496   4.346   7.482  2.9776  1.2162  0.0017
  124OSM    C9F13256   3.625   4.280   7.642  0.1540 -0.9371 -1.0086
  124OSM    H9F13257   3.726   4.236   7.641  0.7772  0.2639  1.3959
  124OSM   C10F13258   3.585   4.357   7.745 -0.4863 -0.5552 -1.1674
  124OSM   H10F13259   3.657   4.377   7.826 -0.9919 -0.0165 -0.8438
  124OSM   C11F13260   3.450   4.425   7.754  0.4593  0.0663 -0.8495
  124OSM   H11F13261   3.370   4.359   7.794  1.6353  0.4799  2.4799
  124OSM   H11G13262   3.425   4.453   7.650 -0.1224  0.8520 -0.5083
  124OSM   C12F13263   3.442   4.562   7.825  0.5562 -0.6565  0.1687
  124OSM   H12F13264   3.369   4.620   7.766 -0.6184 -2.6134 -0.3904
  124OSM   H12G13265   3.537   4.620   7.833 -0.5366  1.1074  0.7263
  124OSM   C13F13266   3.400   4.551   7.973  1.6484  0.4028 -0.1054
  124OSM   H13F13267   3.292   4.529   7.980  2.1297 -2.2587 -0.0441
  124OSM   H13G13268   3.416   4.644   8.032 -0.8765  1.9447 -1.6548
  124OSM   C14F13269   3.469   4.433   8.050  0.7506 -0.3243 -0.3831
  124OSM   H14F13270   3.579   4.439   8.034  0.4750  1.3692 -1.9376
  124OSM   H14G13271   3.437   4.332   8.019  0.3004 -0.5078  0.6245
  124OSM   C15F13272   3.430   4.434   8.203  0.1022  0.0193  0.6389
  124OSM   H15F13273   3.472   4.341   8.245  0.6025  1.3309  3.2584
  124OSM   H15G13274   3.319   4.439   8.209  0.1219  0.6721  0.5493
  124OSM   C16F13275   3.484   4.554   8.281  0.0274 -0.3342 -0.3461
  124OSM   H16F13276   3.434   4.649   8.254 -0.6145 -1.0802 -1.9581
  124OSM   H16G13277   3.587   4.576   8.245  1.5737  1.0906  4.2863
  124OSM   C17F13278   3.517   4.530   8.430 -0.0455 -0.0505 -0.2384
  124OSM   H17F13279   3.606   4.464   8.428  0.2928  0.3052 -4.0428
  124OSM   H17G13280   3.436   4.470   8.478  1.9325 -1.6457  1.2924
  124OSM   C18F13281   3.561   4.647   8.512  0.2006 -0.6555 -0.0616
  124OSM   H18F13282   3.470   4.709   8.527  1.0904  1.1159 -1.5077
  124OSM   H18G13283   3.643   4.701   8.460 -0.0589 -0.0062  0.2003
  124OSM   H18H13284   3.592   4.614   8.613 -2.4218  2.6856  2.0483
  125OSM      N13285   5.872   6.025   6.096  0.0238  0.1662  0.6639
  125OSM    C1513286   5.939   5.916   6.019 -0.0145  0.9329 -0.2585
  125OSM   H15A13287   5.902   5.819   6.047  0.0163  0.7776 -0.7490
  125OSM   H15B13288   6.046   5.916   6.016  0.0678 -0.1504  1.4923
  125OSM   H15C13289   5.909   5.939   5.917  0.2547  1.2439 -0.2712
  125OSM    C1413290   5.895   5.999   6.244 -0.3095 -0.4068 -0.4412
  125OSM   H14A13291   5.999   5.986   6.271  0.2257  0.2196 -2.0745
  125OSM   H14B13292   5.829   5.921   6.277 -0.6335 -0.2833 -0.7952
  125OSM   H14C13293   5.858   6.081   6.304  0.5107  0.8184 -1.5396
  125OSM    C1313294   5.935   6.150   6.044  0.7243  0.2458 -0.0404
  125OSM   H13A13295   5.901   6.167   5.942  0.0858  1.4294  0.3548
  125OSM   H13B13296   6.043   6.144   6.035  0.9044  1.8713  0.6454
  125OSM   H13C13297   5.902   6.235   6.102  0.2319 -0.7981  1.2514
  125OSM    C1213298   5.720   6.016   6.075 -0.1360 -0.1290  0.2882
  125OSM   H12A13299   5.693   5.924   6.126 -1.4847  0.1154  0.0372
  125OSM   H12B13300   5.688   5.998   5.973  1.4706  1.7493 -0.6108
  125OSM    C1113301   5.643   6.135   6.124 -0.5024 -0.2309 -0.4472
  125OSM   H11A13302   5.659   6.221   6.055  0.4716 -0.6730 -0.7982
  125OSM   H11B13303   5.676   6.160   6.227  0.9485 -0.2613 -0.8843
  125OSM      P13304   5.427   5.992   6.194  0.1859  0.6902  0.5215
  125OSM    O1313305   5.280   6.014   6.196 -0.0876 -0.3486 -0.6714
  125OSM    O1413306   5.471   5.864   6.134 -0.0438 -0.3950 -0.1299
  125OSM    O1113307   5.484   6.002   6.343 -0.1840  0.0481  0.6125
  125OSM    O1213308   5.501   6.114   6.123  0.1370 -0.0884 -0.2957
  125OSM    C1S13309   5.454   6.120   6.413  0.3351 -0.4349  0.2501
  125OSM    H1S13310   5.345   6.142   6.415  0.0563 -1.5742 -0.7858
  125OSM    H1T13311   5.513   6.209   6.384 -1.9136  0.6527 -1.3153
  125OSM     NF13312   5.421   6.209   6.653 -0.3738  0.0011  0.1697
  125OSM    HNF13313   5.481   6.279   6.691  1.1113 -0.7956 -0.6413
  125OSM    C2S13314   5.486   6.101   6.571 -0.1653 -0.0733  0.1609
  125OSM    H2S13315   5.447   6.003   6.605 -0.5401  0.3801  1.0630
  125OSM    C3S13316   5.637   6.100   6.597  0.4425 -0.3685 -0.9593
  125OSM    H3S13317   5.674   6.205   6.596  2.0593 -0.7994  2.2153
  125OSM     O313318   5.704   6.030   6.490  0.3016  0.3197 -0.0979
  125OSM    HO313319   5.623   6.017   6.440 -1.2987  4.6787  0.9344
  125OSM    C4S13320   5.668   6.061   6.741 -0.1007  1.0662  0.5589
  125OSM    H4S13321   5.704   6.142   6.807  1.5251 -0.2838  1.4047
  125OSM    C5S13322   5.674   5.928   6.786  0.5957 -0.3340  0.5191
  125OSM    H5S13323   5.641   5.857   6.709 -0.3296  1.3066 -0.6578
  125OSM    C6S13324   5.690   5.874   6.924 -0.0474  0.1864  0.0266
  125OSM    H6S13325   5.795   5.894   6.955  0.2107  0.0387 -0.7161
  125OSM    H6T13326   5.668   5.766   6.934  0.6795  0.2285  2.9513
  125OSM    C7S13327   5.604   5.942   7.031 -0.2890  0.6627  0.1836
  125OSM    H7S13328   5.499   5.928   6.998 -0.0565  1.9655 -1.2126
  125OSM    H7T13329   5.601   6.053   7.026  0.2762  0.7837  1.9444
  125OSM    C8S13330   5.631   5.882   7.171 -0.1119  0.2681  0.5320
  125OSM    H8S13331   5.741   5.889   7.186 -0.0148  1.1108 -0.5151
  125OSM    H8T13332   5.606   5.774   7.167  1.1343 -0.0057 -0.6886
  125OSM    C9S13333   5.557   5.966   7.279  0.2246  0.2334  0.7298
  125OSM    H9S13334   5.451   5.974   7.248  0.2343 -0.8734  0.3571
  125OSM    H9T13335   5.600   6.068   7.274  0.3709  0.0950 -1.8075
  125OSM   C10S13336   5.579   5.903   7.416  0.6109  0.6577  0.0250
  125OSM   H10S13337   5.657   5.959   7.471 -0.0737  0.1877  1.5119
  125OSM   H10T13338   5.606   5.796   7.400 -1.0228  0.4769 -2.0599
  125OSM   C11S13339   5.455   5.914   7.513  0.2118  0.4582  0.6283
  125OSM   H11S13340   5.358   5.888   7.466  1.0821  1.3576 -1.8110
  125OSM   H11T13341   5.441   6.022   7.536 -0.0608  0.4813  0.3606
  125OSM   C12S13342   5.466   5.840   7.645 -0.9496  0.4579 -0.3204
  125OSM   H12S13343   5.542   5.892   7.708 -3.3266  2.5443  0.9880
  125OSM   H12T13344   5.478   5.730   7.637 -0.0353  0.2931  2.2369
  125OSM   C13S13345   5.344   5.847   7.729  0.0308  0.4806  0.3629
  125OSM   H13S13346   5.362   5.769   7.807  1.1262  0.1882 -0.1557
  125OSM   H13T13347   5.260   5.833   7.658  1.2251  2.2198 -1.5008
  125OSM   C14S13348   5.329   5.982   7.802 -0.0918  0.2443 -0.0949
  125OSM   H14S13349   5.322   6.064   7.727  3.7141  1.5953  0.7694
  125OSM   H14T13350   5.421   6.011   7.859  1.9214 -2.2942 -1.7972
  125OSM   C15S13351   5.207   5.982   7.900 -0.4032 -0.4073  0.2957
  125OSM   H15S13352   5.119   5.959   7.835  0.1263 -1.7137  0.0223
  125OSM   H15T13353   5.186   6.083   7.943 -0.2497  0.9489 -2.5109
  125OSM   C16S13354   5.235   5.883   8.009  0.2467 -0.3225  0.2945
  125OSM   H16S13355   5.340   5.874   8.047  0.6793  1.0694 -0.5079
  125OSM   H16T13356   5.213   5.783   7.965 -0.4919  0.9161 -2.3632
  125OSM   C17S13357   5.134   5.909   8.125  0.2146 -0.0567  0.2525
  125OSM   H17S13358   5.150   6.015   8.155  0.9612 -0.1278  0.1103
  125OSM   H17T13359   5.162   5.841   8.208 -1.9717  0.0492  1.1521
  125OSM   C18S13360   4.987   5.882   8.089  0.6144 -0.1286  0.1038
  125OSM   H18S13361   4.972   5.773   8.079  0.3143 -0.0110 -0.8370
  125OSM   H18T13362   4.942   5.918   7.994  0.5387 -1.2133 -0.2833
  125OSM   H18U13363   4.933   5.914   8.181  1.8392 -0.1862  0.8594
  125OSM    C1F13364   5.290   6.209   6.665  0.5903  0.0079  0.2415
  125OSM     OF13365   5.219   6.113   6.627  0.1037 -0.1194 -0.2479
  125OSM    C2F13366   5.228   6.338   6.711 -0.4047 -0.1741  0.4794
  125OSM    H2F13367   5.147   6.360   6.638  0.0671 -0.6226 -0.1872
  125OSM    H2G13368   5.304   6.419   6.712  1.4972 -1.8654  0.6865
  125OSM    C3F13369   5.164   6.312   6.849 -0.3984 -0.2696  0.4805
  125OSM    H3F13370   5.093   6.226   6.845  0.6570 -1.2121  1.3263
  125OSM    H3G13371   5.104   6.404   6.863  0.4188  0.4131 -0.3383
  125OSM    C4F13372   5.283   6.296   6.950  0.7774 -0.1848  0.1067
  125OSM    H4F13373   5.328   6.397   6.962 -2.5614  1.3606  0.9614
  125OSM    H4G13374   5.354   6.217   6.919  0.7892 -0.0179 -0.3036
  125OSM    C5F13375   5.243   6.258   7.095 -0.0124  0.3203 -0.6336
  125OSM    H5F13376   5.209   6.152   7.101 -0.9215  0.5875 -0.8974
  125OSM    H5G13377   5.158   6.325   7.121 -1.6710 -1.5908 -0.9142
  125OSM    C6F13378   5.360   6.268   7.190 -0.1809  0.0781  0.6335
  125OSM    H6F13379   5.394   6.373   7.195  0.8671 -0.2312  0.1094
  125OSM    H6G13380   5.437   6.198   7.153 -0.6831  0.1602 -0.6134
  125OSM    C7F13381   5.343   6.233   7.337  0.5509 -0.4003 -0.4699
  125OSM    H7F13382   5.445   6.252   7.378 -0.1677  0.8018  0.8742
  125OSM    H7G13383   5.324   6.124   7.342  1.4304 -0.5775 -0.8869
  125OSM    C8F13384   5.230   6.307   7.416  0.3103  0.0546  0.5256
  125OSM    H8F13385   5.218   6.251   7.511  1.4219 -0.6289  0.2847
  125OSM    H8G13386   5.141   6.288   7.352 -1.0006 -2.1268  2.8373
  125OSM    C9F13387   5.264   6.453   7.424 -0.2278 -0.2542 -0.5777
  125OSM    H9F13388   5.263   6.500   7.325  0.0932  0.2731 -0.3380
  125OSM   C10F13389   5.291   6.524   7.537  0.8111  0.0497 -0.4489
  125OSM   H10F13390   5.310   6.632   7.532 -2.5992  0.8438  0.7603
  125OSM   C11F13391   5.300   6.469   7.671 -0.0390  0.2943 -0.5355
  125OSM   H11F13392   5.286   6.359   7.674  0.1421  0.2709  2.6759
  125OSM   H11G13393   5.214   6.517   7.723 -0.8658  0.2650 -1.8257
  125OSM   C12F13394   5.439   6.502   7.740 -0.4035  0.6377  0.2501
  125OSM   H12F13395   5.469   6.608   7.725 -0.2492  0.4657 -0.7501
  125OSM   H12G13396   5.516   6.442   7.687 -1.8063 -0.8370 -0.1830
  125OSM   C13F13397   5.464   6.455   7.883 -0.4454  0.5393 -0.9444
  125OSM   H13F13398   5.395   6.514   7.946  0.6458  1.5945 -0.6915
  125OSM   H13G13399   5.567   6.463   7.925 -0.7631 -2.4359  0.6682
  125OSM   C14F13400   5.430   6.305   7.900  0.2611  0.7529  0.3372
  125OSM   H14F13401   5.486   6.243   7.826  1.2734 -1.0145  2.4736
  125OSM   H14G13402   5.322   6.300   7.878  0.3644  0.0584 -0.0302
  125OSM   C15F13403   5.450   6.248   8.044 -0.1097 -0.0215 -0.3599
  125OSM   H15F13404   5.552   6.273   8.078 -0.6266 -0.7087  1.8680
  125OSM   H15G13405   5.428   6.139   8.033 -2.5189  0.4743 -1.0286
  125OSM   C16F13406   5.353   6.315   8.150  0.3515  0.0575 -0.1700
  125OSM   H16F13407   5.254   6.279   8.116 -0.2704  1.5156  0.0324
  125OSM   H16G13408   5.377   6.422   8.132  1.7919  0.3851  3.0688
  125OSM   C17F13409   5.372   6.270   8.296 -0.2796 -0.6765  0.2585
  125OSM   H17F13410   5.304   6.334   8.355 -1.2740  0.4379 -1.9864
  125OSM   H17G13411   5.471   6.302   8.337 -0.7603  1.9214 -0.4746
  125OSM   C18F13412   5.357   6.124   8.335 -0.2057  0.0116 -0.4709
  125OSM   H18F13413   5.402   6.104   8.435  0.7025  0.1237 -0.8506
  125OSM   H18G13414   5.431   6.069   8.272  0.5590 -0.8560  1.1223
  125OSM   H18H13415   5.253   6.087   8.325 -0.8632  1.2352  1.3101
  126OSM      N13416   2.732   4.501   6.422 -0.3555 -0.1619  0.0634
  126OSM    C1513417   2.808   4.570   6.315 -0.2767 -0.1907  0.0846
  126OSM   H15A13418   2.909   4.535   6.308 -0.2162 -0.5123  1.9658
  126OSM   H15B13419   2.824   4.676   6.332  0.4234 -0.2371 -0.2446
  126OSM   H15C13420   2.760   4.565   6.218  0.6111  0.9232 -0.4282
  126OSM    C1413421   2.608   4.585   6.456 -0.3139 -0.0854  0.5868
  126OSM   H14A13422   2.553   4.607   6.366 -2.1220  0.7332  1.8309
  126OSM   H14B13423   2.637   4.685   6.485  0.8390  0.5648 -2.4346
  126OSM   H14C13424   2.547   4.535   6.530  1.5647 -3.4575  0.0748
  126OSM    C1313425   2.688   4.365   6.367  0.0574 -0.2694  0.4869
  126OSM   H13A13426   2.666   4.372   6.262 -0.8916  1.0100  0.7437
  126OSM   H13B13427   2.605   4.325   6.423  0.1376 -1.2657 -0.0986
  126OSM   H13C13428   2.778   4.306   6.376  1.3727  1.5281 -0.3690
  126OSM    C1213429   2.818   4.489   6.548  0.4677 -0.8781  0.0158
  126OSM   H12A13430   2.771   4.435   6.629  1.0762 -1.1539  0.1943
  126OSM   H12B13431   2.821   4.587   6.594 -1.2178 -0.1554 -1.2801
  126OSM    C1113432   2.952   4.432   6.542 -0.7846  0.4846  0.0322
  126OSM   H11A13433   3.008   4.456   6.635  0.2590  0.1411 -0.4961
  126OSM   H11B13434   3.012   4.480   6.461 -0.9902 -0.2780 -0.5817
  126OSM      P13435   3.001   4.184   6.585  0.2612  0.0983 -0.5289
  126OSM    O1313436   2.954   4.061   6.515 -0.0835  0.0677 -0.2023
  126OSM    O1413437   3.144   4.209   6.596  0.0013  0.4873  0.3270
  126OSM    O1113438   2.926   4.202   6.723  0.2782 -0.4065  0.8051
  126OSM    O1213439   2.927   4.294   6.509 -0.0858 -0.3488  0.3828
  126OSM    C1S13440   2.814   4.125   6.759  0.5675  0.3457  0.4780
  126OSM    H1S13441   2.843   4.019   6.770  1.2557  0.4271 -0.4661
  126OSM    H1T13442   2.734   4.134   6.683  0.8065 -1.1419  0.0355
  126OSM     NF13443   2.645   4.093   6.937 -0.1575  0.7939  0.0835
  126OSM    HNF13444   2.562   4.144   6.959 -0.5070  1.0766 -1.7202
  126OSM    C2S13445   2.759   4.177   6.900  0.3732  0.7828  0.7315
  126OSM    H2S13446   2.836   4.159   6.978 -1.1340  0.3499  2.1681
  126OSM    C3S13447   2.727   4.333   6.900 -0.6189  0.5590  0.2029
  126OSM    H3S13448   2.650   4.345   6.821 -0.8099  0.7001  0.4100
  126OSM     O313449   2.843   4.413   6.855  0.3071 -0.0983 -0.3979
  126OSM    HO313450   2.905   4.358   6.806  1.7806 -0.4402  1.7085
  126OSM    C4S13451   2.678   4.382   7.029 -0.0502  0.2223 -0.2915
  126OSM    H4S13452   2.572   4.413   7.033  0.0955  0.6690  0.7677
  126OSM    C5S13453   2.748   4.399   7.146 -0.3696 -0.2391  0.5944
  126OSM    H5S13454   2.856   4.376   7.146 -0.0902  0.6777 -2.6380
  126OSM    C6S13455   2.688   4.455   7.266  0.9037  0.2026  0.3534
  126OSM    H6S13456   2.599   4.516   7.239 -0.1665 -1.8452 -1.0160
  126OSM    H6T13457   2.756   4.522   7.324  2.0661 -1.6278  1.1990
  126OSM    C7S13458   2.650   4.347   7.376 -0.5190  0.0240  0.1423
  126OSM    H7S13459   2.561   4.289   7.340  0.3031  0.2225 -2.4497
  126OSM    H7T13460   2.615   4.394   7.470 -2.7623 -0.0880 -0.5802
  126OSM    C8S13461   2.758   4.252   7.397  0.7425  0.1469 -0.2716
  126OSM    H8S13462   2.848   4.302   7.438  1.9015 -2.0218 -0.0238
  126OSM    H8T13463   2.790   4.196   7.306 -1.1324  0.2666 -1.0347
  126OSM    C9S13464   2.734   4.145   7.498 -0.0536 -0.5561  0.5867
  126OSM    H9S13465   2.799   4.055   7.494  0.3605 -0.2669  0.8579
  126OSM    H9T13466   2.629   4.108   7.493 -0.6561  1.2060 -1.1217
  126OSM   C10S13467   2.736   4.203   7.642 -0.0771  0.3586  0.2899
  126OSM   H10S13468   2.668   4.291   7.642 -1.4752 -0.6247 -1.6406
  126OSM   H10T13469   2.839   4.232   7.670  1.1536 -0.7441 -2.6352
  126OSM   C11S13470   2.697   4.105   7.756 -0.2046 -0.7578 -0.3734
  126OSM   H11S13471   2.779   4.032   7.769 -0.7465 -0.9600  2.6184
  126OSM   H11T13472   2.606   4.047   7.730 -1.2099 -0.3023  1.9188
  126OSM   C12S13473   2.662   4.195   7.878  0.4334 -0.4917 -0.6359
  126OSM   H12S13474   2.582   4.266   7.847  0.0199 -0.5232  0.3192
  126OSM   H12T13475   2.751   4.256   7.903 -0.4836 -0.4217  3.1531
  126OSM   C13S13476   2.621   4.128   8.009 -0.5815 -0.3111 -0.1211
  126OSM   H13S13477   2.686   4.041   8.030  0.1157  0.1357 -0.3888
  126OSM   H13T13478   2.515   4.100   8.024 -0.5952  0.4561  1.3914
  126OSM   C14S13479   2.654   4.226   8.124  0.2956  0.0404  0.0364
  126OSM   H14S13480   2.595   4.319   8.109 -1.3620 -1.3292 -2.8836
  126OSM   H14T13481   2.763   4.248   8.119  0.6536 -1.6998 -0.4148
  126OSM   C15S13482   2.614   4.176   8.265 -0.2850 -0.9739 -0.4150
  126OSM   H15S13483   2.631   4.262   8.334  0.0998  0.2603 -1.9874
  126OSM   H15T13484   2.687   4.099   8.298  0.5854 -0.3952 -0.9418
  126OSM   C16S13485   2.475   4.120   8.284  0.1100  0.5020  0.3018
  126OSM   H16S13486   2.465   4.068   8.382 -1.4599 -0.7304 -0.4695
  126OSM   H16T13487   2.462   4.034   8.215 -1.2791 -1.0008  2.3033
  126OSM   C17S13488   2.362   4.222   8.286  0.2874 -0.5500  0.2055
  126OSM   H17S13489   2.366   4.270   8.186  0.5620 -4.7424 -1.9851
  126OSM   H17T13490   2.373   4.304   8.360  0.1902 -0.5138  0.1797
  126OSM   C18S13491   2.228   4.148   8.291  0.3841 -0.7785  0.2645
  126OSM   H18S13492   2.230   4.066   8.215  3.1330 -0.8247  0.2804
  126OSM   H18T13493   2.146   4.218   8.266 -0.0531 -1.0626  0.8917
  126OSM   H18U13494   2.209   4.104   8.391 -2.3342 -1.0740 -0.3088
  126OSM    C1F13495   2.651   3.966   6.974 -0.0903  0.8823  0.0620
  126OSM     OF13496   2.755   3.901   6.971  0.2115  0.1857 -0.6998
  126OSM    C2F13497   2.519   3.903   7.018 -0.2803  0.6245 -0.3196
  126OSM    H2F13498   2.450   3.903   6.931 -1.9688 -1.1555  0.9403
  126OSM    H2G13499   2.468   3.970   7.091 -0.9095  2.2294 -2.1302
  126OSM    C3F13500   2.535   3.753   7.068 -0.3843  0.5763 -0.1821
  126OSM    H3F13501   2.589   3.688   6.996 -1.5320 -1.6134  0.8408
  126OSM    H3G13502   2.431   3.717   7.078 -0.3689  0.9106  1.5972
  126OSM    C4F13503   2.610   3.730   7.198  0.0180  0.8417 -0.6680
  126OSM    H4F13504   2.709   3.781   7.192  0.9033 -0.7595 -0.1486
  126OSM    H4G13505   2.635   3.626   7.226 -1.5798  0.9206  1.3248
  126OSM    C5F13506   2.537   3.789   7.320 -0.0300  0.1350 -0.4406
  126OSM    H5F13507   2.429   3.768   7.303 -1.3067  4.2590  1.4042
  126OSM    H5G13508   2.552   3.899   7.311 -0.5252  0.2275 -0.1192
  126OSM    C6F13509   2.581   3.721   7.453  0.6981  0.5480 -0.6658
  126OSM    H6F13510   2.685   3.741   7.487  0.6105  2.4202 -1.3881
  126OSM    H6G13511   2.569   3.613   7.429  0.9834  0.3242  0.1485
  126OSM    C7F13512   2.478   3.748   7.569  0.0132  0.5701  0.5114
  126OSM    H7F13513   2.383   3.782   7.522  0.1723 -0.2495 -0.4141
  126OSM    H7G13514   2.522   3.840   7.612  0.0068  0.8006  0.0315
  126OSM    C8F13515   2.472   3.626   7.662 -0.0922  0.3511  0.6831
  126OSM    H8F13516   2.571   3.584   7.692 -0.6886 -0.1582  2.0147
  126OSM    H8G13517   2.415   3.545   7.611  1.0566  0.6620 -1.1574
  126OSM    C9F13518   2.404   3.668   7.790  0.1200 -0.6862 -0.2455
  126OSM    H9F13519   2.295   3.682   7.789 -0.1295 -2.3813  0.1243
  126OSM   C10F13520   2.467   3.688   7.908  0.6627 -0.4321 -0.5966
  126OSM   H10F13521   2.407   3.716   7.996  0.3679 -2.1276 -0.2248
  126OSM   C11F13522   2.608   3.663   7.945  0.4425 -0.7149  0.3257
  126OSM   H11F13523   2.673   3.712   7.869  0.0264 -0.7449 -0.0546
  126OSM   H11G13524   2.626   3.556   7.965  1.5233 -0.3894  1.1850
  126OSM   C12F13525   2.635   3.744   8.076  0.3184  0.0133  0.2321
  126OSM   H12F13526   2.612   3.853   8.076  0.4764  0.0461  0.3090
  126OSM   H12G13527   2.745   3.732   8.085  0.6537  0.4865 -2.4350
  126OSM   C13F13528   2.573   3.690   8.206  0.5948  0.2961 -0.4755
  126OSM   H13F13529   2.565   3.579   8.204 -3.7331  0.4173  0.4947
  126OSM   H13G13530   2.470   3.730   8.216  0.0974 -0.5524 -1.8391
  126OSM   C14F13531   2.659   3.725   8.324  0.5151 -0.0324 -0.7852
  126OSM   H14F13532   2.670   3.834   8.341  1.3508 -0.2904  0.4265
  126OSM   H14G13533   2.758   3.673   8.323  0.8705  0.5904  0.4750
  126OSM   C15F13534   2.598   3.684   8.463  0.0885  0.3024  0.5353
  126OSM   H15F13535   2.579   3.575   8.470  2.8269 -0.4225 -1.6200
  126OSM   H15G13536   2.497   3.730   8.472 -0.4194 -0.0523 -2.4002
  126OSM   C16F13537   2.685   3.709   8.590  0.4207 -0.3260  0.1228
  126OSM   H16F13538   2.626   3.676   8.678 -2.1112  0.3628 -1.2026
  126OSM   H16G13539   2.696   3.819   8.605  0.6690 -0.2393 -0.6150
  126OSM   C17F13540   2.825   3.655   8.566 -0.3064  0.0173  0.3270
  126OSM   H17F13541   2.878   3.721   8.494 -0.4641  0.4724  0.6172
  126OSM   H17G13542   2.817   3.563   8.505 -1.6866 -0.9499  1.8801
  126OSM   C18F13543   2.905   3.634   8.698 -0.0330 -0.8739 -0.2350
  126OSM   H18F13544   3.009   3.607   8.671 -0.4253 -0.8089 -1.9670
  126OSM   H18G13545   2.860   3.548   8.750 -0.5464 -0.7705 -0.4957
  126OSM   H18H13546   2.882   3.720   8.765 -2.1866 -0.6724 -1.1455
  127OSM      N13547   2.543   3.090   6.253  1.0791  0.2027  0.1730
  127OSM    C1513548   2.509   3.149   6.121 -0.5009  0.3223  0.2203
  127OSM   H15A13549   2.503   3.080   6.038  0.0146 -0.8826  1.1375
  127OSM   H15B13550   2.594   3.201   6.079 -0.7877 -0.6665 -1.7004
  127OSM   H15C13551   2.424   3.215   6.117  0.0470  0.9811 -1.0406
  127OSM    C1413552   2.664   3.008   6.244  0.3430  0.5786  0.3087
  127OSM   H14A13553   2.743   3.067   6.201  0.2268  0.8149  0.4195
  127OSM   H14B13554   2.641   2.926   6.177 -2.2707  1.4966 -0.0230
  127OSM   H14C13555   2.695   2.963   6.338  3.2704  1.2211 -0.2393
  127OSM    C1313556   2.583   3.198   6.350 -0.4670 -0.7638  0.0088
  127OSM   H13A13557   2.589   3.162   6.451 -1.3744 -1.3123 -0.1188
  127OSM   H13B13558   2.514   3.279   6.328  2.0401  1.0715 -1.6982
  127OSM   H13C13559   2.679   3.243   6.329  0.6561 -1.4439  3.2486
  127OSM    C1213560   2.426   3.020   6.323  0.1952 -0.3437  1.1689
  127OSM   H12A13561   2.340   3.085   6.316  0.9210  0.5354 -0.1946
  127OSM   H12B13562   2.440   3.003   6.428 -1.7711  1.2103  1.7457
  127OSM    C1113563   2.381   2.891   6.251 -0.3884 -0.3813  0.1897
  127OSM   H11A13564   2.349   2.915   6.148 -2.2291 -0.3280  0.7353
  127OSM   H11B13565   2.286   2.862   6.302 -1.8088 -0.6720 -2.4856
  127OSM      P13566   2.452   2.636   6.247  0.5281  0.1866  0.0222
  127OSM    O1313567   2.337   2.610   6.162  0.2011 -0.2320  0.0902
  127OSM    O1413568   2.585   2.571   6.223 -0.4796  0.5876 -0.3823
  127OSM    O1113569   2.407   2.606   6.397 -0.3578 -0.3682 -0.2063
  127OSM    O1213570   2.482   2.788   6.260  0.3864  0.4272 -0.1063
  127OSM    C1S13571   2.503   2.615   6.504  0.2388 -0.0187 -0.2096
  127OSM    H1S13572   2.558   2.711   6.497  1.7921 -0.7063  1.5900
  127OSM    H1T13573   2.569   2.525   6.503 -2.2846 -2.0114  0.8460
  127OSM     NF13574   2.532   2.628   6.753 -0.2747 -0.4445  0.0014
  127OSM    HNF13575   2.549   2.550   6.812 -1.2344 -1.1517 -0.6280
  127OSM    C2S13576   2.433   2.612   6.648 -0.0448  0.0481  0.8464
  127OSM    H2S13577   2.373   2.705   6.647  0.1175  0.1510  0.4783
  127OSM    C3S13578   2.347   2.479   6.661  0.3393  0.1909 -0.8082
  127OSM    H3S13579   2.409   2.388   6.648 -0.8218 -0.4261 -2.2374
  127OSM     O313580   2.242   2.471   6.572  0.1731  0.2950  0.1800
  127OSM    HO313581   2.246   2.552   6.522 -0.8286  0.6630  0.6758
  127OSM    C4S13582   2.280   2.473   6.796  0.3138 -0.1080 -0.1030
  127OSM    H4S13583   2.181   2.519   6.805  0.4981  0.3633 -0.4856
  127OSM    C5S13584   2.324   2.397   6.898  0.1238  1.2450 -0.4099
  127OSM    H5S13585   2.412   2.333   6.883 -0.8799 -0.4213  0.4749
  127OSM    C6S13586   2.238   2.377   7.027 -0.1440  0.1219  0.6354
  127OSM    H6S13587   2.171   2.464   7.044 -0.6078 -0.3420  1.2503
  127OSM    H6T13588   2.309   2.387   7.111  1.7065 -0.1401 -0.8313
  127OSM    C7S13589   2.156   2.248   7.015 -0.0905 -0.8923  0.9161
  127OSM    H7S13590   2.081   2.272   6.937 -0.4840  0.0639  1.5650
  127OSM    H7T13591   2.107   2.212   7.108  0.2455 -2.9506  0.3542
  127OSM    C8S13592   2.242   2.127   6.968  0.8157 -0.7600  0.1753
  127OSM    H8S13593   2.290   2.155   6.872 -2.7237  0.7783 -1.3417
  127OSM    H8T13594   2.168   2.045   6.962  0.8551 -0.7624 -0.2799
  127OSM    C9S13595   2.343   2.057   7.058  0.2602 -0.2011 -0.0072
  127OSM    H9S13596   2.418   2.137   7.075 -0.3277  0.1126  1.2457
  127OSM    H9T13597   2.403   1.978   7.008  0.1277 -0.3880  0.1287
  127OSM   C10S13598   2.285   1.998   7.189  0.4918 -0.1594  0.8229
  127OSM   H10S13599   2.214   1.916   7.167 -0.4060  0.1040  2.5696
  127OSM   H10T13600   2.239   2.083   7.245  1.0952  0.6222  0.1633
  127OSM   C11S13601   2.403   1.937   7.263  0.4337  0.6235 -0.2102
  127OSM   H11S13602   2.481   2.006   7.301  1.5293 -1.4521  1.5177
  127OSM   H11T13603   2.437   1.849   7.205  0.2487 -0.3751  1.1521
  127OSM   C12S13604   2.350   1.876   7.390 -0.5027  0.1935  0.2107
  127OSM   H12S13605   2.271   1.801   7.365  0.5935 -0.8738 -0.1798
  127OSM   H12T13606   2.302   1.960   7.443 -0.2305 -0.8486  2.2092
  127OSM   C13S13607   2.458   1.812   7.485 -0.2418 -0.2532 -0.7704
  127OSM   H13S13608   2.549   1.873   7.502 -0.8545  0.3715  0.4026
  127OSM   H13T13609   2.510   1.725   7.441  2.1413  0.0997  1.1403
  127OSM   C14S13610   2.400   1.813   7.634 -0.4095  0.1039  0.4818
  127OSM   H14S13611   2.295   1.776   7.625  0.5458 -2.4823 -1.3445
  127OSM   H14T13612   2.414   1.914   7.676  1.2035  0.3537 -0.5906
  127OSM   C15S13613   2.478   1.716   7.721  0.4402 -0.2420  1.2678
  127OSM   H15S13614   2.587   1.732   7.715  0.1450  1.6216 -0.2792
  127OSM   H15T13615   2.478   1.623   7.660 -1.4132  1.6240 -1.9022
  127OSM   C16S13616   2.429   1.703   7.862  0.1177 -0.0013 -0.2494
  127OSM   H16S13617   2.321   1.683   7.872  0.2318 -0.9490 -0.8232
  127OSM   H16T13618   2.438   1.804   7.907 -0.1216  0.4501 -1.1814
  127OSM   C17S13619   2.509   1.597   7.945  0.1662  0.0370  0.2136
  127OSM   H17S13620   2.617   1.621   7.944 -0.3251  2.6872 -2.0061
  127OSM   H17T13621   2.494   1.489   7.920  0.4121 -0.1755  0.9509
  127OSM   C18S13622   2.450   1.606   8.093  0.3603  0.2657 -0.5908
  127OSM   H18S13623   2.339   1.595   8.090  0.5744 -2.5534 -1.1681
  127OSM   H18T13624   2.476   1.709   8.125  0.8846  1.2990 -3.9571
  127OSM   H18U13625   2.489   1.525   8.159 -1.9040 -0.6294 -0.2562
  127OSM    C1F13626   2.607   2.737   6.768 -0.3176  0.3963  0.0729
  127OSM     OF13627   2.589   2.845   6.724 -0.3427  0.3305 -0.2844
  127OSM    C2F13628   2.720   2.720   6.861  0.7945  0.2040 -0.4344
  127OSM    H2F13629   2.799   2.654   6.819  0.8884  0.1581 -0.1876
  127OSM    H2G13630   2.689   2.677   6.959 -0.1082  1.8352  0.0238
  127OSM    C3F13631   2.785   2.853   6.894 -0.5575 -0.8890 -0.1694
  127OSM    H3F13632   2.711   2.931   6.921  1.0748  0.8042 -0.3178
  127OSM    H3G13633   2.831   2.899   6.804 -2.5457  0.2510 -0.6705
  127OSM    C4F13634   2.891   2.838   7.008  0.3788 -0.3603  0.6995
  127OSM    H4F13635   2.940   2.935   7.029 -1.8423  0.6535  1.5564
  127OSM    H4G13636   2.962   2.757   6.980 -0.8940 -1.2960  0.0548
  127OSM    C5F13637   2.829   2.792   7.148 -0.5083 -0.1883  1.4713
  127OSM    H5F13638   2.819   2.682   7.145 -1.6929 -0.0671 -0.6546
  127OSM    H5G13639   2.726   2.832   7.163 -1.4689 -1.3477 -1.3503
  127OSM    C6F13640   2.925   2.830   7.260  0.5360 -0.5485 -0.1903
  127OSM    H6F13641   2.916   2.940   7.268  0.0661 -0.6710  1.2495
  127OSM    H6G13642   3.031   2.799   7.243  0.5082 -1.1879  0.7184
  127OSM    C7F13643   2.892   2.767   7.397 -0.5589 -0.1894 -1.1120
  127OSM    H7F13644   2.888   2.657   7.385 -2.1221 -0.2485 -0.3823
  127OSM    H7G13645   2.789   2.790   7.433 -0.7317 -1.7454 -0.5492
  127OSM    C8F13646   3.005   2.794   7.506  0.1005 -0.1603  0.0278
  127OSM    H8F13647   3.101   2.756   7.466 -0.5711 -1.4542 -0.4237
  127OSM    H8G13648   2.979   2.722   7.587  1.6778  0.8994  1.5479
  127OSM    C9F13649   3.030   2.936   7.560  0.3904  0.7186  0.6743
  127OSM    H9F13650   3.068   2.999   7.479  1.9955  0.3376  1.0980
  127OSM   C10F13651   3.022   2.991   7.677 -0.5359 -0.5038  0.8609
  127OSM   H10F13652   3.041   3.098   7.689  1.3404 -0.6779 -0.0773
  127OSM   C11F13653   3.003   2.912   7.804  0.0639  0.0207  0.2894
  127OSM   H11F13654   3.035   2.806   7.795 -0.5956 -0.1325 -0.4500
  127OSM   H11G13655   2.898   2.900   7.838  1.0691 -2.2042  2.9689
  127OSM   C12F13656   3.101   2.976   7.905 -0.4949  0.6440  0.2890
  127OSM   H12F13657   3.098   3.087   7.901 -1.5043  0.5961 -1.8139
  127OSM   H12G13658   3.198   2.925   7.889 -0.1381  1.3740  0.0973
  127OSM   C13F13659   3.074   2.942   8.054 -0.1975  0.4597 -0.1694
  127OSM   H13F13660   3.149   2.974   8.130 -2.5731 -1.1687  3.1014
  127OSM   H13G13661   3.052   2.834   8.067  1.1057 -0.0920 -2.1409
  127OSM   C14F13662   2.949   3.016   8.100  0.3621 -0.0621  0.2827
  127OSM   H14F13663   2.886   3.031   8.009  0.6773 -1.1944 -0.1430
  127OSM   H14G13664   2.976   3.121   8.124 -1.0622  0.4939 -0.4120
  127OSM   C15F13665   2.873   2.958   8.220  0.1767 -0.4653 -0.5808
  127OSM   H15F13666   2.823   2.869   8.176 -3.4303  1.7002 -1.2471
  127OSM   H15G13667   2.785   3.022   8.242 -0.0669 -0.8438 -0.4447
  127OSM   C16F13668   2.949   2.919   8.343  0.2095  0.2433 -0.2489
  127OSM   H16F13669   3.022   3.000   8.363  2.6547 -1.8309 -0.3532
  127OSM   H16G13670   3.014   2.836   8.311 -0.2870 -0.1323 -0.3000
  127OSM   C17F13671   2.867   2.890   8.463  0.9282  0.5164 -0.2907
  127OSM   H17F13672   2.820   2.790   8.450  1.9137  0.0248 -0.1955
  127OSM   H17G13673   2.781   2.960   8.455  2.2203  2.0566 -1.1569
  127OSM   C18F13674   2.943   2.905   8.601 -0.2501  0.5935  0.1297
  127OSM   H18F13675   2.867   2.885   8.681 -0.2775 -0.1142 -0.0731
  127OSM   H18G13676   2.965   3.011   8.628 -1.5957  0.3389  2.5459
  127OSM   H18H13677   3.037   2.848   8.614 -0.5409 -0.3539 -1.5939
  128OSM      N13678   0.634   6.524   6.063  0.3101 -0.3213 -0.1192
  128OSM    C1513679   0.704   6.493   6.193 -0.5938  0.4748 -0.1498
  128OSM   H15A13680   0.742   6.392   6.198 -4.1262 -0.9484  3.3095
  128OSM   H15B13681   0.635   6.496   6.276 -1.7470 -0.3840 -1.0387
  128OSM   H15C13682   0.782   6.567   6.199  1.1391 -1.2838 -0.0995
  128OSM    C1413683   0.706   6.501   5.939  0.4975  0.8880 -0.2492
  128OSM   H14A13684   0.746   6.402   5.922  1.9400  1.5062 -0.6085
  128OSM   H14B13685   0.793   6.566   5.934  0.5285  0.8306 -0.4559
  128OSM   H14C13686   0.649   6.531   5.853  0.6632 -0.4141 -0.8468
  128OSM    C1313687   0.508   6.435   6.056  0.3663  0.2648  0.0352
  128OSM   H13A13688   0.457   6.454   5.962  1.3155  1.6590 -0.2390
  128OSM   H13B13689   0.439   6.460   6.135 -0.0448 -2.2603  0.5753
  128OSM   H13C13690   0.538   6.331   6.064  0.5178  0.2534 -0.5793
  128OSM    C1213691   0.587   6.672   6.069  0.7091  0.1460  0.4242
  128OSM   H12A13692   0.539   6.699   5.976 -0.8523 -0.8003  0.9185
  128OSM   H12B13693   0.677   6.729   6.082  1.6896 -1.1562 -0.4203
  128OSM    C1113694   0.495   6.708   6.187 -0.3950  0.5193 -0.3374
  128OSM   H11A13695   0.491   6.818   6.199  1.6962  0.6738 -0.6586
  128OSM   H11B13696   0.546   6.692   6.285  0.4167 -2.0570 -1.1169
  128OSM      P13697   0.242   6.740   6.146 -0.5307  0.1611  0.0661
  128OSM    O1313698   0.273   6.823   6.030 -0.4055  0.2695  0.2967
  128OSM    O1413699   0.115   6.667   6.141 -0.1537  0.2775 -0.0518
  128OSM    O1113700   0.248   6.834   6.278 -0.2125 -0.2306  0.3215
  128OSM    O1213701   0.362   6.643   6.182  0.7054  0.2651 -0.3481
  128OSM    C1S13702   0.153   6.937   6.268 -0.0204 -0.5897  0.4902
  128OSM    H1S13703   0.054   6.903   6.229 -0.3949 -0.0003  0.9048
  128OSM    H1T13704   0.191   7.023   6.208  0.5244 -1.7356 -0.8491
  128OSM     NF13705  -0.001   7.094   6.404 -0.3478 -0.2775 -0.2797
  128OSM    HNF13706   0.009   7.192   6.384 -1.4901 -0.1699 -0.4209
  128OSM    C2S13707   0.113   7.003   6.410 -1.0108 -0.4035 -0.1417
  128OSM    H2S13708   0.102   6.910   6.470  1.5955 -2.0286 -1.9220
  128OSM    C3S13709   0.238   7.075   6.455 -0.9138 -0.5239 -0.8773
  128OSM    H3S13710   0.256   7.162   6.387  0.4251 -1.7067 -2.1078
  128OSM     O313711   0.364   7.004   6.450  0.3031  0.1704  0.0265
  128OSM    HO313712   0.335   6.924   6.406 -2.5034  1.7021 -1.1425
  128OSM    C4S13713   0.214   7.134   6.591  0.3866  0.2966 -0.0800
  128OSM    H4S13714   0.157   7.228   6.585  1.4773  0.9510 -0.5282
  128OSM    C5S13715   0.241   7.086   6.716 -0.2490 -0.4117  1.0897
  128OSM    H5S13716   0.304   6.996   6.727 -0.7804 -1.1834 -1.4034
  128OSM    C6S13717   0.217   7.165   6.835  0.8821  0.1989  0.7189
  128OSM    H6S13718   0.129   7.126   6.892  1.4095 -1.4764  0.4513
  128OSM    H6T13719   0.184   7.269   6.818 -1.3374 -0.3069  1.5750
  128OSM    C7S13720   0.337   7.178   6.931  0.3151  0.0035 -0.4105
  128OSM    H7S13721   0.427   7.213   6.875  1.4785 -1.9166  0.1452
  128OSM    H7T13722   0.356   7.075   6.969 -1.2485  0.5469  2.0377
  128OSM    C8S13723   0.299   7.273   7.043 -0.1651  0.4244  0.1421
  128OSM    H8S13724   0.200   7.264   7.093  0.2783 -1.2553  0.8078
  128OSM    H8T13725   0.293   7.371   6.992  1.7329  0.9050  0.7324
  128OSM    C9S13726   0.405   7.290   7.151  0.3593  0.0149  0.2174
  128OSM    H9S13727   0.492   7.330   7.095  1.4444  1.7590  2.9301
  128OSM    H9T13728   0.419   7.191   7.198 -2.2429 -1.0419 -1.0290
  128OSM   C10S13729   0.357   7.398   7.253  0.4891  0.4871 -0.3040
  128OSM   H10S13730   0.266   7.379   7.314 -0.0161  4.2402  0.3651
  128OSM   H10T13731   0.344   7.490   7.192  0.3187  0.5087 -0.2342
  128OSM   C11S13732   0.465   7.431   7.348  0.2158  0.1656 -0.5865
  128OSM   H11S13733   0.563   7.422   7.295 -0.9904  0.2424 -2.9554
  128OSM   H11T13734   0.472   7.356   7.429 -1.0833  0.1963 -0.4342
  128OSM   C12S13735   0.454   7.571   7.415 -0.0026 -1.0113  0.7271
  128OSM   H12S13736   0.349   7.593   7.444 -0.3029 -2.9037  1.1929
  128OSM   H12T13737   0.488   7.657   7.353 -0.9344 -0.9594  0.2720
  128OSM   C13S13738   0.540   7.582   7.546 -0.0359 -0.5627 -0.9023
  128OSM   H13S13739   0.569   7.688   7.562 -1.2250 -0.2879 -0.4357
  128OSM   H13T13740   0.633   7.524   7.526  0.6310 -0.6086  2.0005
  128OSM   C14S13741   0.484   7.526   7.678  0.3764 -0.0492 -0.1783
  128OSM   H14S13742   0.442   7.427   7.652 -1.0953  0.5941 -0.3200
  128OSM   H14T13743   0.407   7.590   7.727  1.2426  0.2988  0.7785
  128OSM   C15S13744   0.604   7.509   7.779  0.3426  0.0804  0.2555
  128OSM   H15S13745   0.659   7.605   7.785  3.4728 -1.4227 -1.8651
  128OSM   H15T13746   0.680   7.438   7.740 -0.9638 -0.8803 -0.6198
  128OSM   C16S13747   0.559   7.456   7.918  0.3508 -0.1876 -0.3583
  128OSM   H16S13748   0.513   7.357   7.895 -2.8188  1.2014 -0.4898
  128OSM   H16T13749   0.482   7.521   7.964 -0.5978 -0.3609 -1.6510
  128OSM   C17S13750   0.685   7.446   8.010  0.3958  0.3187 -0.2666
  128OSM   H17S13751   0.714   7.552   8.028  0.8144  0.6295 -2.4794
  128OSM   H17T13752   0.765   7.395   7.953  1.6496  1.8315  0.0448
  128OSM   C18S13753   0.655   7.367   8.144 -0.4401  0.2168 -0.6720
  128OSM   H18S13754   0.600   7.274   8.117  0.1583 -0.1834 -0.5160
  128OSM   H18T13755   0.590   7.437   8.201 -2.2347 -1.5148 -0.4749
  128OSM   H18U13756   0.747   7.344   8.201 -1.4201  0.5495  1.1268
  128OSM    C1F13757  -0.119   7.042   6.405  0.9433  0.1196 -0.3700
  128OSM     OF13758  -0.135   6.918   6.398  0.1108  0.2360  0.0419
  128OSM    C2F13759  -0.239   7.146   6.404 -0.2503 -0.3594  0.2397
  128OSM    H2F13760  -0.278   7.151   6.301 -1.4259 -1.7280  0.6000
  128OSM    H2G13761  -0.206   7.250   6.430  2.8486 -0.7504 -1.5733
  128OSM    C3F13762  -0.362   7.099   6.498 -0.4259  0.7807 -0.8203
  128OSM    H3F13763  -0.326   7.090   6.602  2.2280  2.7755 -1.4800
  128OSM    H3G13764  -0.399   7.002   6.457  2.4276 -0.6450 -0.2521
  128OSM    C4F13765  -0.474   7.200   6.479  0.1795 -0.0217  0.3073
  128OSM    H4F13766  -0.501   7.178   6.374 -1.1715 -1.0982  0.8416
  128OSM    H4G13767  -0.442   7.306   6.488 -0.1026  0.0290  0.7774
  128OSM    C5F13768  -0.603   7.179   6.561  0.1145 -0.4376 -0.3493
  128OSM    H5F13769  -0.608   7.068   6.566 -0.7258 -0.4391 -1.0666
  128OSM    H5G13770  -0.693   7.221   6.511  0.6638 -0.0313 -1.0032
  128OSM    C6F13771  -0.593   7.240   6.699  0.1445  0.1251  0.2029
  128OSM    H6F13772  -0.563   7.347   6.689  2.0930 -0.2054  1.8377
  128OSM    H6G13773  -0.515   7.187   6.757  0.8127  0.0350 -0.7735
  128OSM    C7F13774  -0.730   7.233   6.767 -0.1969 -0.2583 -0.3242
  128OSM    H7F13775  -0.746   7.131   6.807 -2.2913 -0.2915 -1.1091
  128OSM    H7G13776  -0.813   7.246   6.695 -1.1310  0.8064  0.9128
  128OSM    C8F13777  -0.746   7.329   6.888  0.3425 -0.1777  0.2565
  128OSM    H8F13778  -0.686   7.279   6.966 -1.8227  0.2547  2.3148
  128OSM    H8G13779  -0.849   7.324   6.928  0.5374 -0.9411  0.6776
  128OSM    C9F13780  -0.697   7.473   6.868  1.1196  0.1981  0.0744
  128OSM    H9F13781  -0.758   7.516   6.786  0.9705 -0.8222 -0.3601
  128OSM   C10F13782  -0.601   7.536   6.924  0.3933 -0.0824 -0.2201
  128OSM   H10F13783  -0.598   7.642   6.893 -0.2267  0.3681  1.1716
  128OSM   C11F13784  -0.500   7.497   7.028 -0.2848  0.5181  0.5525
  128OSM   H11F13785  -0.407   7.558   7.026 -0.0697  0.1758 -0.8699
  128OSM   H11G13786  -0.464   7.394   7.007 -0.0665  0.8995 -1.1007
  128OSM   C12F13787  -0.556   7.491   7.175 -0.3367 -0.2695  0.5846
  128OSM   H12F13788  -0.619   7.400   7.183 -1.2303 -0.3327 -4.2713
  128OSM   H12G13789  -0.628   7.576   7.174 -0.6847 -0.5273 -2.1150
  128OSM   C13F13790  -0.456   7.528   7.282  0.0680  0.3552  0.0586
  128OSM   H13F13791  -0.375   7.591   7.239  1.9944 -1.8217  0.2810
  128OSM   H13G13792  -0.407   7.429   7.299 -2.3120 -0.9816 -0.3769
  128OSM   C14F13793  -0.509   7.605   7.407  0.5085 -0.5669 -0.2593
  128OSM   H14F13794  -0.560   7.543   7.483  0.6821  0.2596  0.5497
  128OSM   H14G13795  -0.577   7.684   7.367  2.2911  1.0324 -0.3103
  128OSM   C15F13796  -0.398   7.677   7.478  0.2023 -0.1060  0.1122
  128OSM   H15F13797  -0.359   7.757   7.411 -1.9360 -0.0361 -1.1465
  128OSM   H15G13798  -0.311   7.611   7.500  0.9066  1.1595  1.3470
  128OSM   C16F13799  -0.441   7.743   7.606  0.8283  1.0164 -0.7305
  128OSM   H16F13800  -0.474   7.660   7.671  0.9747  1.3105 -0.2698
  128OSM   H16G13801  -0.521   7.819   7.595 -0.3522  0.0948  1.0239
  128OSM   C17F13802  -0.309   7.792   7.680  0.3102 -0.3578 -0.0700
  128OSM   H17F13803  -0.248   7.849   7.608 -0.4761  0.4682 -0.1091
  128OSM   H17G13804  -0.243   7.705   7.699 -0.3142 -0.4504  1.8942
  128OSM   C18F13805  -0.327   7.863   7.816  0.2746 -0.1280 -0.2469
  128OSM   H18F13806  -0.235   7.917   7.847  0.9888 -1.3352 -0.2210
  128OSM   H18G13807  -0.342   7.783   7.892 -1.2303 -0.6649 -1.0719
  128OSM   H18H13808  -0.419   7.927   7.818 -1.1562 -2.0943 -0.3494
  129OSM      N13809   2.510   3.786   5.925 -0.3365  0.0637 -0.6636
  129OSM    C1513810   2.510   3.738   5.780 -0.7014 -0.3141 -0.4257
  129OSM   H15A13811   2.492   3.632   5.771  0.7618 -0.5427 -0.9132
  129OSM   H15B13812   2.607   3.754   5.736 -0.2387 -0.1784  0.6242
  129OSM   H15C13813   2.441   3.788   5.715  1.1639  3.1976  0.0773
  129OSM    C1413814   2.634   3.739   5.991 -1.5598  0.1211 -0.1289
  129OSM   H14A13815   2.629   3.760   6.096 -2.5986 -1.6974  0.2150
  129OSM   H14B13816   2.721   3.790   5.952 -0.2099 -0.4912  1.9188
  129OSM   H14C13817   2.625   3.632   5.990 -0.6050 -0.1362  3.7950
  129OSM    C1313818   2.514   3.941   5.923  0.4370  0.2907  0.6652
  129OSM   H13A13819   2.427   3.989   5.881 -0.4064 -1.2187  0.5945
  129OSM   H13B13820   2.596   3.973   5.861 -0.8810  1.2161 -0.6713
  129OSM   H13C13821   2.533   3.977   6.023 -2.4554 -1.4280  1.9697
  129OSM    C1213822   2.383   3.740   5.991 -0.2327 -0.0959 -0.2979
  129OSM   H12A13823   2.378   3.632   5.986 -1.8654 -0.0460 -0.4584
  129OSM   H12B13824   2.295   3.768   5.935 -0.1499 -1.2043 -1.0102
  129OSM    C1113825   2.350   3.777   6.143  0.1451  0.1499  0.7981
  129OSM   H11A13826   2.262   3.714   6.171 -0.6826  1.1201  0.4619
  129OSM   H11B13827   2.319   3.883   6.146  0.1197  0.1607  0.2810
  129OSM      P13828   2.474   3.623   6.322 -0.2055 -0.4896 -0.2304
  129OSM    O1313829   2.465   3.503   6.236  0.1682  0.5134  0.3031
  129OSM    O1413830   2.597   3.637   6.408  0.0528 -0.1811  0.4849
  129OSM    O1113831   2.350   3.628   6.420 -0.0511  0.0899  0.7594
  129OSM    O1213832   2.459   3.756   6.235 -0.2359 -0.4336  0.2707
  129OSM    C1S13833   2.327   3.506   6.495 -0.3582  0.2104 -0.0233
  129OSM    H1S13834   2.414   3.444   6.525 -0.1682  1.0907  1.3076
  129OSM    H1T13835   2.263   3.439   6.434  1.1858 -1.1525 -0.2236
  129OSM     NF13836   2.271   3.451   6.735  0.0654 -1.2646 -0.9746
  129OSM    HNF13837   2.203   3.383   6.763  0.8489 -0.7678  2.6473
  129OSM    C2S13838   2.248   3.541   6.623  0.2013 -0.2590  0.1828
  129OSM    H2S13839   2.282   3.643   6.653 -2.6056  0.7359  0.3411
  129OSM    C3S13840   2.087   3.559   6.591  0.1017  0.2537  0.3143
  129OSM    H3S13841   2.059   3.458   6.556  0.1341  1.2866 -3.0015
  129OSM     O313842   2.060   3.644   6.480  0.1912  0.0937 -0.0612
  129OSM    HO313843   2.145   3.680   6.454 -0.9410  3.9031  0.8928
  129OSM    C4S13844   2.002   3.605   6.708 -0.2310  0.4472 -0.0609
  129OSM    H4S13845   1.944   3.524   6.754 -2.3337  2.9888  2.1054
  129OSM    C5S13846   1.987   3.729   6.756  0.4259  0.2144  0.7079
  129OSM    H5S13847   2.033   3.816   6.707  0.0787  1.6311  2.7966
  129OSM    C6S13848   1.912   3.754   6.884 -0.1675  0.1939 -0.4961
  129OSM    H6S13849   1.884   3.660   6.937 -1.1617  0.7633  0.0245
  129OSM    H6T13850   1.814   3.806   6.875  0.2376  2.2371  4.0017
  129OSM    C7S13851   2.000   3.843   6.978 -0.9879 -0.1721 -0.0006
  129OSM    H7S13852   1.939   3.864   7.069  0.2241  1.3639  0.4914
  129OSM    H7T13853   2.017   3.942   6.931  0.8842 -0.6384 -0.3665
  129OSM    C8S13854   2.132   3.781   7.031  0.4245 -0.0393 -0.0656
  129OSM    H8S13855   2.193   3.859   7.081  1.0624 -0.6433  0.1095
  129OSM    H8T13856   2.195   3.759   6.943  0.1950 -0.6401 -0.0869
  129OSM    C9S13857   2.131   3.655   7.124  0.4934  0.0229 -0.1004
  129OSM    H9S13858   2.241   3.640   7.123  0.6509  1.0547 -1.6343
  129OSM    H9T13859   2.075   3.575   7.070 -1.9500  0.5359  1.5139
  129OSM   C10S13860   2.074   3.687   7.258 -0.0223  0.2977  0.2778
  129OSM   H10S13861   1.974   3.733   7.240  0.6525  1.6742 -0.1369
  129OSM   H10T13862   2.140   3.761   7.308 -1.2784  0.5876  1.5686
  129OSM   C11S13863   2.073   3.559   7.345  0.3033  0.9221 -0.0152
  129OSM   H11S13864   2.178   3.520   7.346 -0.5610 -1.6206  1.1582
  129OSM   H11T13865   2.019   3.480   7.289  2.1938 -0.0768 -0.5206
  129OSM   C12S13866   2.038   3.583   7.490 -0.6237 -0.5927 -0.9003
  129OSM   H12S13867   1.935   3.621   7.511 -0.5042 -0.9476  0.4333
  129OSM   H12T13868   2.105   3.663   7.526 -1.1189  0.2334 -1.7704
  129OSM   C13S13869   2.076   3.466   7.585 -0.5284  0.2604  0.2546
  129OSM   H13S13870   2.181   3.431   7.574 -0.3164 -0.0667  2.7826
  129OSM   H13T13871   2.015   3.378   7.553  3.4156 -1.9917 -1.9216
  129OSM   C14S13872   2.053   3.482   7.737  0.4840 -0.4761  0.3013
  129OSM   H14S13873   1.956   3.535   7.752 -0.0515 -1.0198 -0.9868
  129OSM   H14T13874   2.145   3.529   7.777  2.5952 -1.7103 -2.7416
  129OSM   C15S13875   2.039   3.353   7.807  0.2869  0.0035 -0.4493
  129OSM   H15S13876   2.138   3.303   7.802  0.3025  0.1585 -2.0239
  129OSM   H15T13877   1.972   3.289   7.745  1.6862 -1.5945 -0.4058
  129OSM   C16S13878   1.995   3.373   7.951 -0.2322  0.0677 -0.9291
  129OSM   H16S13879   1.898   3.426   7.953 -1.9020 -2.8325  0.4564
  129OSM   H16T13880   2.073   3.439   7.995 -1.4510  1.4515 -0.7604
  129OSM   C17S13881   1.961   3.246   8.033  0.1977  0.1805 -0.1637
  129OSM   H17S13882   1.881   3.192   7.979 -0.1558  0.7170 -0.1795
  129OSM   H17T13883   1.902   3.274   8.122  0.0373  1.6195 -0.7003
  129OSM   C18S13884   2.084   3.154   8.073  0.5140  0.1404 -0.7488
  129OSM   H18S13885   2.162   3.202   8.136  2.2477 -0.5421 -2.2803
  129OSM   H18T13886   2.123   3.123   7.974 -0.4076  3.9867 -2.4904
  129OSM   H18U13887   2.051   3.068   8.136 -0.6768 -0.5467 -2.2469
  129OSM    C1F13888   2.383   3.449   6.816 -1.0589 -0.7101 -0.4382
  129OSM     OF13889   2.473   3.541   6.810  0.0166  0.6550  0.1977
  129OSM    C2F13890   2.391   3.333   6.921 -0.5772 -0.4900  0.2855
  129OSM    H2F13891   2.382   3.235   6.870  0.9489 -0.8492  0.6494
  129OSM    H2G13892   2.308   3.337   6.995 -2.6569 -1.1108 -1.8900
  129OSM    C3F13893   2.524   3.333   7.011  1.2020 -0.4176 -0.3959
  129OSM    H3F13894   2.547   3.436   7.047  2.4333 -0.3730 -1.2806
  129OSM    H3G13895   2.618   3.300   6.962  0.1879 -0.2811 -2.5666
  129OSM    C4F13896   2.517   3.237   7.135  0.2532  1.0037  0.4129
  129OSM    H4F13897   2.522   3.133   7.097 -0.5619  0.4909  1.6532
  129OSM    H4G13898   2.419   3.247   7.185 -0.2668  0.6778 -0.5130
  129OSM    C5F13899   2.626   3.275   7.242  0.4582  0.7348 -0.4185
  129OSM    H5F13900   2.594   3.377   7.270 -1.5368  0.6484 -2.1367
  129OSM    H5G13901   2.728   3.285   7.198  0.4597  1.8436 -0.1859
  129OSM    C6F13902   2.622   3.187   7.368 -0.2356 -0.2214 -0.5505
  129OSM    H6F13903   2.717   3.189   7.425 -0.8032 -2.6704  0.5749
  129OSM    H6G13904   2.606   3.084   7.331  0.1250 -0.4355 -0.1162
  129OSM    C7F13905   2.510   3.217   7.470  0.2146  0.0080  0.6498
  129OSM    H7F13906   2.411   3.218   7.420  0.0409  0.5758  0.9949
  129OSM    H7G13907   2.529   3.320   7.507  0.0944  0.0987  0.4563
  129OSM    C8F13908   2.498   3.118   7.587  0.8649  0.9749 -0.7441
  129OSM    H8F13909   2.455   3.022   7.553  0.9421 -0.5729  3.0491
  129OSM    H8G13910   2.416   3.155   7.652 -0.0833 -0.0579 -1.3275
  129OSM    C9F13911   2.629   3.103   7.657 -0.3734  0.3059 -0.6561
  129OSM    H9F13912   2.698   3.037   7.602  2.8006  1.4913  1.6314
  129OSM   C10F13913   2.678   3.159   7.768 -0.2611  0.1301  0.0969
  129OSM   H10F13914   2.779   3.132   7.802 -0.1485  0.8050  0.3122
  129OSM   C11F13915   2.605   3.260   7.853  0.3226  0.3052 -0.0762
  129OSM   H11F13916   2.510   3.295   7.808  0.0772  0.0260  0.2238
  129OSM   H11G13917   2.668   3.352   7.858 -0.8642  1.4847 -3.5104
  129OSM   C12F13918   2.589   3.224   8.003  0.0244  0.3788  0.3284
  129OSM   H12F13919   2.690   3.240   8.048  0.2408  1.7910 -0.6039
  129OSM   H12G13920   2.571   3.114   8.009  0.3057  0.2368 -1.0456
  129OSM   C13F13921   2.473   3.299   8.070  0.0456 -0.0451  0.3235
  129OSM   H13F13922   2.380   3.263   8.022  0.5367 -0.5120 -0.3054
  129OSM   H13G13923   2.479   3.407   8.043  0.5963  0.8192  3.4152
  129OSM   C14F13924   2.475   3.275   8.219  0.1120 -0.1825  0.0938
  129OSM   H14F13925   2.397   3.337   8.267  0.7143  0.0786  0.7472
  129OSM   H14G13926   2.571   3.317   8.255 -0.1199  2.0596 -1.6507
  129OSM   C15F13927   2.455   3.124   8.252 -0.1657  0.1941  0.1594
  129OSM   H15F13928   2.552   3.075   8.273 -0.5280 -0.6654 -0.0921
  129OSM   H15G13929   2.411   3.075   8.163 -0.0863  1.8710 -0.8524
  129OSM   C16F13930   2.353   3.104   8.369 -0.4125 -0.0988  0.6073
  129OSM   H16F13931   2.262   3.166   8.359 -1.1222 -0.8603  1.9859
  129OSM   H16G13932   2.406   3.147   8.457 -0.1581  0.9067 -0.0203
  129OSM   C17F13933   2.316   2.959   8.408  0.0170 -0.5333 -0.3244
  129OSM   H17F13934   2.233   2.977   8.480  1.0622 -0.4580  0.8766
  129OSM   H17G13935   2.410   2.922   8.453  1.4207 -0.2674 -2.8433
  129OSM   C18F13936   2.277   2.866   8.297 -0.3121  0.2599 -0.2313
  129OSM   H18F13937   2.195   2.910   8.236 -1.7432 -1.5096  0.3073
  129OSM   H18G13938   2.236   2.768   8.332 -1.2805  0.2804 -1.2278
  129OSM   H18H13939   2.363   2.847   8.229 -1.3079  3.9109 -2.8276
  130OSM      N13940   5.318   6.436   5.885 -0.6332 -0.2516 -0.1695
  130OSM    C1513941   5.421   6.333   5.919  0.6390 -0.6001  0.0098
  130OSM   H15A13942   5.522   6.352   5.884  0.2915  0.2022 -0.5957
  130OSM   H15B13943   5.394   6.237   5.877 -1.0077  1.1991 -3.4913
  130OSM   H15C13944   5.419   6.316   6.025 -2.8861 -1.1609 -0.0324
  130OSM    C1413945   5.305   6.440   5.736 -1.2090 -1.2426  0.9019
  130OSM   H14A13946   5.390   6.484   5.685 -0.4917 -1.6089  1.7676
  130OSM   H14B13947   5.221   6.495   5.697 -0.6639 -2.0625 -1.6428
  130OSM   H14C13948   5.288   6.340   5.700 -2.2391 -0.2681 -1.5684
  130OSM    C1313949   5.193   6.397   5.945 -0.7245  0.8554 -0.0980
  130OSM   H13A13950   5.209   6.373   6.050  0.1307  1.8212  0.0062
  130OSM   H13B13951   5.156   6.306   5.899  1.8488 -0.4950  0.3068
  130OSM   H13C13952   5.112   6.468   5.946 -1.5365  0.0032  2.0929
  130OSM    C1213953   5.355   6.568   5.942 -0.4726  0.5167  0.2301
  130OSM   H12A13954   5.269   6.630   5.923 -1.5207 -1.0904 -0.5171
  130OSM   H12B13955   5.439   6.609   5.889 -1.1336  1.9851  0.2712
  130OSM    C1113956   5.386   6.572   6.092  0.4704  0.7166 -0.5843
  130OSM   H11A13957   5.301   6.535   6.154  0.6521  1.2475  0.0014
  130OSM   H11B13958   5.396   6.676   6.131 -2.4945  0.1011  2.2245
  130OSM      P13959   5.649   6.574   6.094 -0.1701 -0.1380  0.2852
  130OSM    O1313960   5.688   6.523   5.962 -0.7464  0.2691 -0.2282
  130OSM    O1413961   5.642   6.724   6.109 -0.3999  0.2154  0.3051
  130OSM    O1113962   5.748   6.518   6.206  0.5881 -0.0978  0.1245
  130OSM    O1213963   5.510   6.502   6.124 -0.1795 -0.4454 -0.2152
  130OSM    C1S13964   5.747   6.573   6.341  0.4715  0.0661  0.0453
  130OSM    H1S13965   5.657   6.630   6.374  0.8238 -0.3355  1.7886
  130OSM    H1T13966   5.820   6.657   6.345  1.3605 -0.4972 -2.3043
  130OSM     NF13967   5.742   6.527   6.573  0.2748  0.0726 -0.3596
  130OSM    HNF13968   5.819   6.577   6.613 -2.2275  1.8311  2.6947
  130OSM    C2S13969   5.777   6.464   6.448  0.3395 -0.4279  0.0329
  130OSM    H2S13970   5.726   6.366   6.430  1.0309 -0.6962 -0.4872
  130OSM    C3S13971   5.922   6.420   6.438  0.9038 -0.9068  0.0183
  130OSM    H3S13972   5.978   6.516   6.434 -0.3697  0.0099  2.1639
  130OSM     O313973   5.941   6.346   6.314  0.2451  0.5676 -0.3671
  130OSM    HO313974   5.890   6.403   6.255  0.4723 -0.4788 -1.5918
  130OSM    C4S13975   5.965   6.334   6.554 -0.6437  0.2480 -0.5690
  130OSM    H4S13976   5.943   6.230   6.527 -2.7758  0.4554  0.1359
  130OSM    C5S13977   6.023   6.373   6.666 -0.2231 -0.0910 -0.6239
  130OSM    H5S13978   6.045   6.480   6.682 -0.6106  0.0886 -1.2645
  130OSM    C6S13979   6.067   6.284   6.790 -0.0472  0.2179  0.4319
  130OSM    H6S13980   6.171   6.305   6.823 -0.2946  2.0619  0.1415
  130OSM    H6T13981   6.061   6.178   6.761  2.2077  0.1033  0.2292
  130OSM    C7S13982   5.969   6.297   6.904  0.5241  0.4065 -0.2474
  130OSM    H7S13983   5.871   6.271   6.859  0.1760 -0.5120  1.0016
  130OSM    H7T13984   5.957   6.389   6.965 -0.7206  0.3954 -0.4583
  130OSM    C8S13985   5.992   6.178   6.996  0.4121  0.4942 -0.0636
  130OSM    H8S13986   6.099   6.179   7.022  0.3586 -1.0484  0.2698
  130OSM    H8T13987   5.983   6.077   6.953  1.2190  0.8823 -1.1917
  130OSM    C9S13988   5.901   6.171   7.124  0.1153  0.0379 -0.3176
  130OSM    H9S13989   5.948   6.092   7.186  0.7520  0.1127 -0.7037
  130OSM    H9T13990   5.796   6.141   7.101 -0.5023  0.3060  1.8771
  130OSM   C10S13991   5.916   6.300   7.213 -0.0381  0.4925 -0.6149
  130OSM   H10S13992   5.895   6.400   7.170  1.0198  1.1256  0.2826
  130OSM   H10T13993   6.027   6.305   7.221 -0.0025 -0.9396  0.0070
  130OSM   C11S13994   5.851   6.285   7.353 -0.0399 -0.1956  0.1770
  130OSM   H11S13995   5.741   6.297   7.344  0.0664  0.6051 -0.1860
  130OSM   H11T13996   5.871   6.375   7.415  1.9153 -0.7060  0.3316
  130OSM   C12S13997   5.883   6.163   7.440  0.7567  0.2341  0.1773
  130OSM   H12S13998   5.850   6.076   7.378  0.2176  1.2118 -0.9563
  130OSM   H12T13999   5.817   6.158   7.529  0.0026  1.7409 -0.2583
  130OSM   C13S14000   6.034   6.154   7.458  0.3970  0.5069 -0.0713
  130OSM   H13S14001   6.071   6.235   7.526  0.8833  0.4163 -0.2286
  130OSM   H13T14002   6.075   6.168   7.356 -1.0403  1.1063 -0.5842
  130OSM   C14S14003   6.072   6.019   7.522 -0.1374 -0.3333  0.1955
  130OSM   H14S14004   6.166   5.998   7.467 -1.0196  0.2528 -1.6272
  130OSM   H14T14005   5.997   5.940   7.502 -3.7312  2.8867 -0.1300
  130OSM   C15S14006   6.099   6.027   7.671  0.4605  0.1989  0.3422
  130OSM   H15S14007   6.181   6.097   7.695  0.3718  1.0418 -1.5812
  130OSM   H15T14008   6.132   5.927   7.706  0.1988 -0.1745 -0.4496
  130OSM   C16S14009   5.972   6.059   7.754  0.1743  0.0788  0.2198
  130OSM   H16S14010   5.925   6.150   7.711  1.1459  1.9919  2.8808
  130OSM   H16T14011   6.017   6.089   7.852  1.2380 -0.8791  0.0444
  130OSM   C17S14012   5.881   5.943   7.764  0.7078  0.0052 -0.3649
  130OSM   H17S14013   5.930   5.844   7.780  0.0557  0.1260  3.1672
  130OSM   H17T14014   5.820   5.919   7.675 -1.1785 -3.1505  1.5598
  130OSM   C18S14015   5.770   5.961   7.862 -0.3257  0.2398  0.0020
  130OSM   H18S14016   5.708   6.048   7.832 -0.8576 -0.3402 -0.6026
  130OSM   H18T14017   5.803   5.978   7.967 -1.0659 -2.7595  0.8368
  130OSM   H18U14018   5.706   5.870   7.860  0.9895 -0.7192  0.1206
  130OSM    C1F14019   5.615   6.548   6.613  0.3409  0.3731 -0.5921
  130OSM     OF14020   5.518   6.479   6.572  0.2099 -0.1398 -0.2416
  130OSM    C2F14021   5.593   6.658   6.706 -0.4149 -0.2389 -0.3007
  130OSM    H2F14022   5.514   6.722   6.661 -0.4623  0.6810  1.0359
  130OSM    H2G14023   5.685   6.719   6.720 -2.1434  2.3794  0.3855
  130OSM    C3F14024   5.540   6.609   6.846  0.3081  0.2103  0.0678
  130OSM    H3F14025   5.583   6.518   6.893  0.1886  0.2825  0.3210
  130OSM    H3G14026   5.430   6.592   6.843  0.4179 -0.4206 -0.6504
  130OSM    C4F14027   5.548   6.715   6.960  0.0710  0.0901 -0.1900
  130OSM    H4F14028   5.516   6.808   6.909 -1.9856 -0.5970 -0.2466
  130OSM    H4G14029   5.655   6.732   6.983  0.1936 -0.1993 -0.5395
  130OSM    C5F14030   5.453   6.692   7.079  0.7352  0.6529 -0.0110
  130OSM    H5F14031   5.413   6.589   7.076 -2.1398  1.6537  0.5629
  130OSM    H5G14032   5.370   6.765   7.066  2.2921  2.5299  0.2219
  130OSM    C6F14033   5.527   6.719   7.209  0.3274 -0.4140  0.0406
  130OSM    H6F14034   5.446   6.709   7.285 -1.3736 -1.4355 -1.7807
  130OSM    H6G14035   5.550   6.827   7.201 -2.7540  0.2968 -0.7748
  130OSM    C7F14036   5.650   6.635   7.243 -0.5178  0.4315 -0.0043
  130OSM    H7F14037   5.749   6.680   7.223  0.7079 -1.8364  0.6737
  130OSM    H7G14038   5.653   6.537   7.191 -2.0805  0.2050  0.2805
  130OSM    C8F14039   5.663   6.607   7.394  0.6998  0.3529  0.5295
  130OSM    H8F14040   5.735   6.523   7.396  0.7127  0.0265 -4.2329
  130OSM    H8G14041   5.567   6.576   7.442 -0.1777  3.4478  1.0165
  130OSM    C9F14042   5.714   6.716   7.475 -0.4972 -0.0845  0.8145
  130OSM    H9F14043   5.689   6.818   7.443  0.3712  0.4796  1.8608
  130OSM   C10F14044   5.809   6.703   7.574 -0.2194  0.5750  0.2429
  130OSM   H10F14045   5.859   6.798   7.596  1.4298 -0.4604  1.1454
  130OSM   C11F14046   5.870   6.578   7.626  0.1173  0.2975  0.9018
  130OSM   H11F14047   5.968   6.561   7.575  0.4976 -2.4726  2.3648
  130OSM   H11G14048   5.815   6.488   7.590 -2.0188  1.5721  0.8373
  130OSM   C12F14049   5.888   6.576   7.777 -0.3409  0.2636 -0.0806
  130OSM   H12F14050   5.817   6.637   7.837 -0.8406 -0.1120 -0.2866
  130OSM   H12G14051   5.988   6.620   7.797 -1.3727  2.5486  0.3939
  130OSM   C13F14052   5.885   6.436   7.839  0.1502 -0.2713 -0.5045
  130OSM   H13F14053   5.985   6.390   7.824 -0.2694 -1.2898 -0.2600
  130OSM   H13G14054   5.808   6.364   7.806 -0.5189  0.1487  0.1169
  130OSM   C14F14055   5.862   6.438   7.989  0.6237  0.6813 -0.0382
  130OSM   H14F14056   5.755   6.458   8.013  0.0002 -2.7597  0.6461
  130OSM   H14G14057   5.924   6.520   8.032 -0.6354  1.8812 -0.4200
  130OSM   C15F14058   5.900   6.307   8.060  0.3135 -0.7506  0.1640
  130OSM   H15F14059   6.009   6.296   8.043  0.9322  1.1491  2.4654
  130OSM   H15G14060   5.852   6.222   8.006  1.8261 -1.3498 -0.2914
  130OSM   C16F14061   5.880   6.309   8.213  0.5484  0.1972 -0.3779
  130OSM   H16F14062   5.800   6.377   8.248  0.1827  0.0522 -0.9205
  130OSM   H16G14063   5.970   6.362   8.254 -0.0480  1.4782 -0.6613
  130OSM   C17F14064   5.861   6.163   8.266  0.5270 -0.0952 -0.0114
  130OSM   H17F14065   5.909   6.156   8.366 -0.2716 -3.8077  0.2578
  130OSM   H17G14066   5.916   6.097   8.196  0.0861  0.6770 -1.1038
  130OSM   C18F14067   5.712   6.112   8.283 -0.3094  0.2747  0.5545
  130OSM   H18F14068   5.661   6.142   8.377  1.2387 -0.2913  1.6119
  130OSM   H18G14069   5.721   6.002   8.291  1.6263  0.1825 -1.8797
  130OSM   H18H14070   5.647   6.111   8.193 -0.1093 -0.8569  0.4099
  131OSM      N14071   4.955   2.181   5.662 -0.2876  0.4341 -0.3993
  131OSM    C1514072   4.840   2.209   5.570  0.3863  0.8472  0.2456
  131OSM   H15A14073   4.838   2.313   5.539 -0.3130  0.8851  0.3982
  131OSM   H15B14074   4.750   2.177   5.621 -0.4465 -1.1380 -2.2682
  131OSM   H15C14075   4.843   2.134   5.493 -0.8676  0.7926  0.2307
  131OSM    C1414076   4.959   2.037   5.688  0.1915 -0.2703  0.2316
  131OSM   H14A14077   4.978   1.975   5.601 -2.1168 -1.6652  0.6322
  131OSM   H14B14078   4.871   1.988   5.725  1.6452 -2.7756  0.6320
  131OSM   H14C14079   5.043   2.011   5.751  1.3488  3.9929  0.7572
  131OSM    C1314080   5.085   2.216   5.588  0.1583 -0.3981 -0.6987
  131OSM   H13A14081   5.097   2.159   5.497 -2.1813  0.5985 -1.7386
  131OSM   H13B14082   5.164   2.185   5.654 -0.1672 -0.2603 -0.2352
  131OSM   H13C14083   5.082   2.316   5.546 -0.0581 -0.4194 -0.7350
  131OSM    C1214084   4.941   2.255   5.794 -0.0422  0.3282  0.3330
  131OSM   H12A14085   4.970   2.357   5.772 -1.0392  0.3321 -1.0852
  131OSM   H12B14086   5.016   2.222   5.865  0.5863 -0.1733 -0.5451
  131OSM    C1114087   4.802   2.246   5.865  0.4579  0.1536 -0.0284
  131OSM   H11A14088   4.724   2.286   5.795  0.6513 -1.3642 -1.1556
  131OSM   H11B14089   4.802   2.311   5.955  0.4339 -0.0844  0.1415
  131OSM      P14090   4.821   2.045   6.034 -0.1291 -0.0307 -0.0348
  131OSM    O1314091   4.739   1.929   6.067 -0.2122  0.5475 -0.1100
  131OSM    O1414092   4.965   2.016   6.011 -0.1173 -0.0440  0.1438
  131OSM    O1114093   4.813   2.163   6.141  0.1238 -0.0885  0.0675
  131OSM    O1214094   4.758   2.116   5.902  0.0938  0.0884 -0.3989
  131OSM    C1S14095   4.874   2.151   6.271  0.0777 -0.8942 -0.6996
  131OSM    H1S14096   4.978   2.188   6.258 -0.4241  0.7980 -0.2479
  131OSM    H1T14097   4.871   2.050   6.316 -2.3672  0.4793  2.7032
  131OSM     NF14098   4.871   2.236   6.499 -0.6101 -0.1772 -0.2740
  131OSM    HNF14099   4.827   2.186   6.573  0.5226 -0.9283 -0.0738
  131OSM    C2S14100   4.801   2.241   6.375  0.0175 -0.4427  0.0748
  131OSM    H2S14101   4.783   2.345   6.341 -2.9023 -0.6234  0.8871
  131OSM    C3S14102   4.659   2.186   6.398 -0.0940  0.2416 -0.5008
  131OSM    H3S14103   4.665   2.085   6.444  0.1878  0.2253 -0.5734
  131OSM     O314104   4.584   2.165   6.278  0.3691 -0.3980 -0.0215
  131OSM    HO314105   4.642   2.174   6.202 -0.5766 -1.0165 -0.8519
  131OSM    C4S14106   4.586   2.266   6.511  0.3472  0.0386  0.0815
  131OSM    H4S14107   4.601   2.230   6.614  0.0874 -3.1853 -0.8852
  131OSM    C5S14108   4.513   2.376   6.491 -0.2456 -0.7119 -1.1086
  131OSM    H5S14109   4.499   2.417   6.390 -2.5006  1.7351  0.0839
  131OSM    C6S14110   4.458   2.466   6.604 -0.8628  0.1022 -0.3106
  131OSM    H6S14111   4.350   2.453   6.579 -0.5422 -1.7294 -0.9377
  131OSM    H6T14112   4.480   2.572   6.582 -2.5603  0.0818 -2.4562
  131OSM    C7S14113   4.488   2.433   6.748  0.1603  0.8046 -0.1208
  131OSM    H7S14114   4.599   2.439   6.751  0.2097  2.1649 -2.4890
  131OSM    H7T14115   4.459   2.329   6.774 -0.3243  0.5540 -1.5577
  131OSM    C8S14116   4.446   2.534   6.851  0.0377 -0.3214 -0.3259
  131OSM    H8S14117   4.335   2.544   6.847 -0.3744 -2.4841  2.6316
  131OSM    H8T14118   4.488   2.636   6.836 -1.6921  0.2413 -1.6331
  131OSM    C9S14119   4.479   2.475   6.987 -0.6165  0.6833  0.8822
  131OSM    H9S14120   4.585   2.444   6.992 -0.7326 -0.5970 -2.2543
  131OSM    H9T14121   4.419   2.383   7.006 -1.4043  0.9921  0.0012
  131OSM   C10S14122   4.449   2.562   7.100 -0.0679  0.0071  0.0688
  131OSM   H10S14123   4.344   2.599   7.099  0.3692  1.3277  1.0927
  131OSM   H10T14124   4.516   2.649   7.084 -1.4821  1.3629  1.1877
  131OSM   C11S14125   4.471   2.501   7.240 -0.2309  0.0020 -0.9709
  131OSM   H11S14126   4.580   2.482   7.246 -0.1460  0.8149  0.3522
  131OSM   H11T14127   4.412   2.407   7.244  0.1911 -0.2542 -0.6905
  131OSM   C12S14128   4.428   2.602   7.353  0.3276  0.0736  0.1813
  131OSM   H12S14129   4.317   2.606   7.344  0.1362  2.8777  2.2109
  131OSM   H12T14130   4.455   2.708   7.331  0.6753 -0.0119  0.1988
  131OSM   C13S14131   4.469   2.558   7.491  0.1320  0.7236 -0.2062
  131OSM   H13S14132   4.579   2.572   7.502  0.2169  0.2980 -0.4939
  131OSM   H13T14133   4.447   2.453   7.519 -0.4804  1.2025  1.2016
  131OSM   C14S14134   4.393   2.641   7.601 -0.2219 -0.3786 -0.0488
  131OSM   H14S14135   4.285   2.616   7.606 -0.1677 -0.7099 -0.4764
  131OSM   H14T14136   4.387   2.748   7.573 -1.9349  0.0091  1.5885
  131OSM   C15S14137   4.463   2.633   7.737 -0.8598 -0.4351  0.9842
  131OSM   H15S14138   4.436   2.719   7.801 -0.6120  0.5698 -0.2104
  131OSM   H15T14139   4.565   2.650   7.696 -3.1924  2.2300 -4.9186
  131OSM   C16S14140   4.444   2.506   7.804 -0.6197 -0.4819  0.3025
  131OSM   H16S14141   4.488   2.427   7.740  1.6393  0.6758  0.3102
  131OSM   H16T14142   4.339   2.487   7.835 -0.7199  0.4706  0.5957
  131OSM   C17S14143   4.524   2.502   7.930  0.1276  0.3435  0.4069
  131OSM   H17S14144   4.491   2.580   8.002  0.2219  0.8013 -0.0395
  131OSM   H17T14145   4.633   2.514   7.916  0.6932 -3.7818  0.0746
  131OSM   C18S14146   4.499   2.369   7.998 -0.1518 -0.3464 -0.2979
  131OSM   H18S14147   4.565   2.360   8.087  2.0456 -0.5166 -1.8522
  131OSM   H18T14148   4.518   2.277   7.939  1.6470 -1.3217  1.6197
  131OSM   H18U14149   4.392   2.359   8.025  0.0719 -0.7301  0.4861
  131OSM    C1F14150   4.986   2.303   6.512  0.4936  0.1756 -0.1162
  131OSM     OF14151   5.023   2.368   6.422 -0.4510 -0.0007  0.0346
  131OSM    C2F14152   5.054   2.285   6.642  0.2072 -0.1281 -0.0983
  131OSM    H2F14153   5.073   2.177   6.660  2.0322  0.3364  0.9688
  131OSM    H2G14154   4.992   2.322   6.727 -0.1745  0.1398 -0.4902
  131OSM    C3F14155   5.188   2.355   6.653 -0.8524  0.2450  0.0313
  131OSM    H3F14156   5.181   2.459   6.617 -1.7496  0.5055  0.9011
  131OSM    H3G14157   5.270   2.311   6.591 -0.6099  0.1276  0.4289
  131OSM    C4F14158   5.248   2.349   6.799 -0.0568 -0.9044  0.1247
  131OSM    H4F14159   5.329   2.275   6.814 -0.4907 -1.0146  2.1058
  131OSM    H4G14160   5.161   2.316   6.859  0.1289  1.1050  1.5913
  131OSM    C5F14161   5.293   2.483   6.851 -0.1857 -0.1358  0.3129
  131OSM    H5F14162   5.222   2.556   6.806  2.2642  1.2863 -1.5243
  131OSM    H5G14163   5.394   2.509   6.811 -0.9792  1.9604 -0.4394
  131OSM    C6F14164   5.313   2.502   7.002 -0.1748  0.0419 -0.1636
  131OSM    H6F14165   5.397   2.439   7.038  0.2898 -0.6739 -2.3525
  131OSM    H6G14166   5.215   2.490   7.054  0.2962  0.1206  0.7507
  131OSM    C7F14167   5.348   2.649   7.025 -0.3004 -0.2097 -0.2011
  131OSM    H7F14168   5.289   2.708   6.952 -0.4977 -1.4559 -1.0685
  131OSM    H7G14169   5.451   2.648   6.984 -0.5143 -2.2449 -0.7837
  131OSM    C8F14170   5.348   2.696   7.173 -0.3688  0.2913 -0.4886
  131OSM    H8F14171   5.364   2.604   7.234  0.0137 -0.6906 -1.9963
  131OSM    H8G14172   5.247   2.734   7.197 -0.3575 -0.6725  1.2245
  131OSM    C9F14173   5.452   2.800   7.208 -0.3450 -0.1008 -0.5948
  131OSM    H9F14174   5.552   2.782   7.165 -0.5154 -1.5589 -0.4531
  131OSM   C10F14175   5.435   2.923   7.273  0.0888  0.3292 -0.1265
  131OSM   H10F14176   5.525   2.986   7.279  1.0485 -0.9675 -0.2277
  131OSM   C11F14177   5.309   2.983   7.333 -0.5519 -0.8007  0.2178
  131OSM   H11F14178   5.224   2.933   7.282 -1.5505  0.3873  0.6669
  131OSM   H11G14179   5.297   3.091   7.311 -0.4192 -0.9716 -0.7078
  131OSM   C12F14180   5.280   2.952   7.482 -0.0048  0.3519  0.3421
  131OSM   H12F14181   5.352   2.995   7.555  0.8766 -0.0365 -0.2812
  131OSM   H12G14182   5.288   2.842   7.499 -1.0399  0.4632  1.7277
  131OSM   C13F14183   5.140   3.001   7.526  0.6115 -0.3459 -0.7808
  131OSM   H13F14184   5.067   2.959   7.454  0.8847 -1.9947 -0.1231
  131OSM   H13G14185   5.138   3.112   7.538  1.3048 -0.4058 -0.0067
  131OSM   C14F14186   5.093   2.948   7.667 -0.2302 -0.0563  0.1325
  131OSM   H14F14187   5.160   2.985   7.748 -1.1202  2.8072 -0.3150
  131OSM   H14G14188   5.086   2.837   7.673 -2.7758  0.1274  1.8346
  131OSM   C15F14189   4.951   2.986   7.694 -0.0824  0.0301  0.3176
  131OSM   H15F14190   4.880   2.944   7.620  0.5757  1.1143 -0.9775
  131OSM   H15G14191   4.953   3.097   7.686  0.9251 -0.1078 -2.4527
  131OSM   C16F14192   4.908   2.959   7.841 -0.0263  0.5987  0.2628
  131OSM   H16F14193   4.987   2.997   7.910 -0.1864  2.3880 -0.4918
  131OSM   H16G14194   4.901   2.849   7.850 -0.6006  0.1614 -3.7329
  131OSM   C17F14195   4.785   3.028   7.889 -0.1833 -0.3422 -0.1278
  131OSM   H17F14196   4.703   3.011   7.815 -1.9758  0.2936  1.6480
  131OSM   H17G14197   4.809   3.134   7.908  1.1166 -0.6560  0.1068
  131OSM   C18F14198   4.720   2.961   8.017 -0.8889  0.0014  0.7874
  131OSM   H18F14199   4.632   3.017   8.055 -2.6279 -3.0088  1.4421
  131OSM   H18G14200   4.803   2.966   8.091  1.4087  1.2189 -1.6614
  131OSM   H18H14201   4.687   2.856   8.006  1.6505 -1.0150  2.0941
  132OSM      N14202   4.422   4.365   6.031 -0.2357  0.2490 -0.0775
  132OSM    C1514203   4.351   4.455   6.126 -1.1043  0.0505 -0.4074
  132OSM   H15A14204   4.260   4.502   6.093 -0.8292  1.5160  0.7856
  132OSM   H15B14205   4.419   4.536   6.147 -1.6286  0.5780 -0.7317
  132OSM   H15C14206   4.327   4.400   6.216 -0.7330 -2.0113 -1.5111
  132OSM    C1414207   4.350   4.239   6.001 -0.0092  0.5507  0.1022
  132OSM   H14A14208   4.254   4.253   5.952  0.5833  0.0492 -1.2681
  132OSM   H14B14209   4.318   4.176   6.082  0.6244 -1.1861 -0.9289
  132OSM   H14C14210   4.404   4.167   5.941  1.5759 -0.3282  2.4761
  132OSM    C1314211   4.427   4.446   5.910  0.5574  0.2466 -0.5140
  132OSM   H13A14212   4.474   4.542   5.924 -0.1880  0.5532 -0.0160
  132OSM   H13B14213   4.324   4.455   5.878 -0.2058 -0.3440  1.5896
  132OSM   H13C14214   4.479   4.397   5.830  1.0121 -0.4823  0.2081
  132OSM    C1214215   4.563   4.338   6.089 -0.3888 -0.4111 -0.0976
  132OSM   H12A14216   4.612   4.434   6.095  0.7082 -0.9450 -0.3957
  132OSM   H12B14217   4.617   4.279   6.016 -0.2461 -1.4911  0.8548
  132OSM    C1114218   4.569   4.259   6.223 -0.2097 -1.5435  0.1689
  132OSM   H11A14219   4.496   4.306   6.291 -1.5768  0.8589 -2.7237
  132OSM   H11B14220   4.669   4.261   6.271 -1.2376  1.5772  2.4671
  132OSM      P14221   4.652   4.019   6.148 -0.3258  0.4607 -0.0629
  132OSM    O1314222   4.572   3.912   6.085 -0.7490 -0.3111 -0.3300
  132OSM    O1414223   4.748   4.092   6.065  0.0838 -0.4308  0.2889
  132OSM    O1114224   4.715   3.963   6.278  0.2383 -0.5616  0.2314
  132OSM    O1214225   4.547   4.120   6.208  0.1513 -0.3047  0.6744
  132OSM    C1S14226   4.653   3.958   6.404  0.4516 -0.1465  0.7922
  132OSM    H1S14227   4.549   3.921   6.392 -1.2427  3.9354  1.2720
  132OSM    H1T14228   4.642   4.058   6.452 -2.2592  0.2782 -0.5116
  132OSM     NF14229   4.679   3.920   6.643 -0.8113  0.1906 -0.3557
  132OSM    HNF14230   4.736   3.987   6.690  2.2373 -0.4974 -2.6935
  132OSM    C2S14231   4.734   3.886   6.517 -0.8488 -0.0811 -0.3066
  132OSM    H2S14232   4.722   3.777   6.496 -0.0207 -0.3508  0.5559
  132OSM    C3S14233   4.886   3.924   6.508 -0.7730  0.2728 -1.0846
  132OSM    H3S14234   4.898   4.025   6.550 -1.3246  0.0068 -0.2506
  132OSM     O314235   4.956   3.913   6.377  0.5666 -0.0759 -0.0315
  132OSM    HO314236   4.896   3.932   6.304  0.0391  1.1542  0.6854
  132OSM    C4S14237   4.976   3.843   6.598 -0.7029 -0.2347 -0.7945
  132OSM    H4S14238   4.972   3.735   6.581 -3.0597 -0.2565 -0.4576
  132OSM    C5S14239   5.053   3.891   6.703  0.9063  0.5186  0.4231
  132OSM    H5S14240   5.055   3.998   6.726  1.9038  1.9421 -4.9032
  132OSM    C6S14241   5.143   3.807   6.786 -0.2634  0.1298 -0.1246
  132OSM    H6S14242   5.186   3.869   6.868 -0.1379  0.3077 -0.3243
  132OSM    H6T14243   5.232   3.770   6.730 -1.0671 -2.4688  0.1841
  132OSM    C7S14244   5.091   3.680   6.850 -0.4495 -0.1338 -0.1601
  132OSM    H7S14245   5.056   3.610   6.771 -0.6561 -0.6873  0.4225
  132OSM    H7T14246   5.015   3.711   6.925  2.8638  0.6480  3.1370
  132OSM    C8S14247   5.197   3.600   6.927  0.6496  0.7286 -0.0010
  132OSM    H8S14248   5.277   3.672   6.957  1.0727 -0.4840  1.9496
  132OSM    H8T14249   5.246   3.519   6.868 -0.2521  0.6350 -0.6280
  132OSM    C9S14250   5.140   3.542   7.060  0.3299  0.1194 -1.0792
  132OSM    H9S14251   5.210   3.465   7.100 -0.6418 -1.0005 -1.4890
  132OSM    H9T14252   5.047   3.486   7.039  0.1438  0.2835 -0.7046
  132OSM   C10S14253   5.128   3.645   7.172  0.5271 -0.7471  0.1646
  132OSM   H10S14254   5.053   3.725   7.154 -0.1587 -1.1312  1.2844
  132OSM   H10T14255   5.228   3.694   7.182  0.1716  0.2251 -0.7811
  132OSM   C11S14256   5.088   3.577   7.299  0.4837 -0.0919 -0.4302
  132OSM   H11S14257   5.179   3.535   7.347 -0.6600 -0.4926  1.5378
  132OSM   H11T14258   5.014   3.495   7.286  0.2485  0.1097 -0.3764
  132OSM   C12S14259   5.038   3.674   7.409 -0.5806  0.1674  0.0011
  132OSM   H12S14260   4.946   3.717   7.364  0.6035  1.3955 -1.3297
  132OSM   H12T14261   5.116   3.751   7.426 -0.2623 -0.4156  1.3079
  132OSM   C13S14262   5.010   3.600   7.540  0.2220  0.1013  0.0502
  132OSM   H13S14263   5.110   3.556   7.560  0.7042  0.7848 -0.7620
  132OSM   H13T14264   4.933   3.523   7.522 -0.1964  0.4199  0.4737
  132OSM   C14S14265   4.966   3.687   7.655 -0.6378 -0.9802 -0.3665
  132OSM   H14S14266   4.876   3.745   7.623 -1.0325 -0.9064  0.8453
  132OSM   H14T14267   5.044   3.764   7.671 -0.2022 -2.0323  3.3859
  132OSM   C15S14268   4.941   3.620   7.780  0.2781 -0.4827 -0.2444
  132OSM   H15S14269   4.954   3.685   7.870 -1.4906 -0.1931 -0.1500
  132OSM   H15T14270   5.017   3.542   7.799 -0.2937 -1.1806 -0.8059
  132OSM   C16S14271   4.794   3.566   7.791  0.3506 -0.8552 -0.2246
  132OSM   H16S14272   4.766   3.524   7.692  0.5054 -2.0008  0.2037
  132OSM   H16T14273   4.713   3.641   7.804  1.2648  0.7136 -2.7574
  132OSM   C17S14274   4.792   3.461   7.896 -0.1647 -0.2672 -0.0046
  132OSM   H17S14275   4.826   3.515   7.987 -0.2386  0.1876 -0.2425
  132OSM   H17T14276   4.874   3.388   7.878 -0.6723 -0.5713 -1.2101
  132OSM   C18S14277   4.658   3.395   7.902 -0.3847  0.5500 -0.6909
  132OSM   H18S14278   4.636   3.336   7.810 -0.5398  0.1153 -0.3820
  132OSM   H18T14279   4.576   3.468   7.916 -1.0023  0.1683 -2.1546
  132OSM   H18U14280   4.666   3.322   7.986  2.8366 -1.9307 -2.8762
  132OSM    C1F14281   4.563   3.869   6.691 -0.1715 -0.0936 -0.1150
  132OSM     OF14282   4.516   3.769   6.644  0.1400 -0.8127  0.3056
  132OSM    C2F14283   4.495   3.947   6.804  0.1986  0.1760  0.0066
  132OSM    H2F14284   4.514   4.057   6.809 -0.6070  0.2986  0.6638
  132OSM    H2G14285   4.542   3.916   6.900 -0.5052 -1.8404 -0.2537
  132OSM    C3F14286   4.341   3.936   6.816  0.2545  0.0948  0.5763
  132OSM    H3F14287   4.317   3.828   6.823  2.6584 -0.4460  1.3544
  132OSM    H3G14288   4.302   3.976   6.720  0.5380  1.0562  0.8576
  132OSM    C4F14289   4.284   4.021   6.931  0.5815  0.0699  0.3313
  132OSM    H4F14290   4.176   4.038   6.917  0.6707 -0.5768 -1.4040
  132OSM    H4G14291   4.325   4.124   6.932 -0.2695  0.4089  0.3273
  132OSM    C5F14292   4.288   3.954   7.073 -0.2687  0.6723  0.0120
  132OSM    H5F14293   4.394   3.922   7.086 -0.4933 -0.7030 -1.3590
  132OSM    H5G14294   4.234   3.857   7.069  2.9984 -1.3737  1.2261
  132OSM    C6F14295   4.236   4.047   7.184  0.3373  0.0182  1.0299
  132OSM    H6F14296   4.131   4.072   7.158  0.4207  0.5377  1.1833
  132OSM    H6G14297   4.300   4.137   7.167  3.2609 -2.1843 -0.4833
  132OSM    C7F14298   4.255   3.986   7.324  0.5181 -0.2490  0.9575
  132OSM    H7F14299   4.358   3.949   7.341  0.3689 -1.2309 -0.1541
  132OSM    H7G14300   4.179   3.906   7.332  0.3752 -0.3570 -0.9878
  132OSM    C8F14301   4.221   4.088   7.434  0.8201  0.0304  0.3719
  132OSM    H8F14302   4.308   4.158   7.430 -1.3697  2.9071 -0.6127
  132OSM    H8G14303   4.230   4.042   7.535 -0.6962  0.9976  0.9812
  132OSM    C9F14304   4.109   4.185   7.416 -1.2376  0.0609 -0.0616
  132OSM    H9F14305   4.085   4.223   7.316  0.1978  2.3971  0.3848
  132OSM   C10F14306   4.043   4.236   7.515  0.3491  0.4053 -0.8352
  132OSM   H10F14307   3.972   4.319   7.496  1.2351  1.9645  2.0257
  132OSM   C11F14308   4.064   4.199   7.659 -0.6154  0.1136  0.1336
  132OSM   H11F14309   4.172   4.207   7.681 -0.3995  1.3866 -1.2565
  132OSM   H11G14310   4.036   4.092   7.670 -1.6660  0.4904  1.3942
  132OSM   C12F14311   3.999   4.275   7.773  0.2232  0.1083 -0.6495
  132OSM   H12F14312   3.888   4.273   7.765  0.2735  1.4794 -2.1410
  132OSM   H12G14313   4.019   4.384   7.760 -2.2998  0.6009 -0.8791
  132OSM   C13F14314   4.037   4.223   7.909  0.9514 -0.1482  0.5545
  132OSM   H13F14315   4.148   4.217   7.919  1.0555  1.6804  0.9614
  132OSM   H13G14316   3.992   4.123   7.923 -2.8700  0.9119 -2.4467
  132OSM   C14F14317   3.984   4.318   8.025  0.3863  0.0706 -0.6235
  132OSM   H14F14318   3.874   4.324   8.011  0.3387  0.4298 -0.1422
  132OSM   H14G14319   4.027   4.420   8.021  0.5894 -0.0348 -1.3338
  132OSM   C15F14320   4.016   4.256   8.163  0.4440  0.3446 -0.1389
  132OSM   H15F14321   4.126   4.246   8.174  0.6203 -0.1244 -1.9882
  132OSM   H15G14322   3.971   4.155   8.169  0.2552  0.4017 -0.5848
  132OSM   C16F14323   3.948   4.336   8.276  0.1583 -0.0279  0.9552
  132OSM   H16F14324   3.840   4.314   8.270  0.3206 -0.6731  0.2373
  132OSM   H16G14325   3.949   4.445   8.254  2.7803 -0.1839 -0.0958
  132OSM   C17F14326   3.994   4.328   8.422 -0.2625  0.1416  0.1574
  132OSM   H17F14327   3.959   4.226   8.448 -2.3940  0.0846 -2.4408
  132OSM   H17G14328   3.954   4.405   8.491  0.4789 -0.3096  1.0987
  132OSM   C18F14329   4.142   4.357   8.433 -0.3929 -0.1415  0.5960
  132OSM   H18F14330   4.162   4.451   8.378 -1.8334  0.7937  1.6154
  132OSM   H18G14331   4.196   4.267   8.397  0.1336 -0.2713  1.6730
  132OSM   H18H14332   4.170   4.358   8.541  0.9621  0.1365  0.2684
  133OSM      N14333   4.912   3.577   5.970 -0.3270  0.2113 -0.1316
  133OSM    C1514334   4.962   3.659   5.860 -0.8050 -0.4225  0.8645
  133OSM   H15A14335   4.930   3.762   5.868  1.8329  0.5011  0.4276
  133OSM   H15B14336   4.939   3.624   5.760  0.1210 -2.0949  1.1899
  133OSM   H15C14337   5.069   3.664   5.850 -1.0081  0.7826 -1.0704
  133OSM    C1414338   4.771   3.546   5.957  0.5351 -0.0501 -0.1808
  133OSM   H14A14339   4.722   3.636   5.991 -1.7457 -0.8889 -1.0582
  133OSM   H14B14340   4.740   3.460   6.015 -1.3701 -0.4218 -1.6365
  133OSM   H14C14341   4.753   3.525   5.853  1.1513  0.6378 -0.4327
  133OSM    C1314342   4.999   3.453   5.973  0.1439 -0.0387  0.4320
  133OSM   H13A14343   5.103   3.484   5.971 -0.2281  1.2463  0.1766
  133OSM   H13B14344   4.973   3.402   5.882 -0.6676 -0.5589  0.9422
  133OSM   H13C14345   4.983   3.384   6.055 -0.4021 -0.3652  0.0513
  133OSM    C1214346   4.927   3.663   6.097  0.3783 -0.1762 -0.1003
  133OSM   H12A14347   4.887   3.761   6.077  0.6256 -0.1131 -0.2971
  133OSM   H12B14348   5.033   3.685   6.108  1.0184 -2.7131 -0.5988
  133OSM    C1114349   4.864   3.603   6.232  0.2194  0.0214 -0.1352
  133OSM   H11A14350   4.755   3.613   6.217  0.2822  0.3710 -0.3851
  133OSM   H11B14351   4.904   3.661   6.318  0.4698 -0.9965  0.4482
  133OSM      P14352   4.801   3.350   6.281  0.2444 -0.1024  0.1454
  133OSM    O1314353   4.686   3.362   6.187  0.0199  0.4379  0.1774
  133OSM    O1414354   4.879   3.225   6.267 -0.4221 -0.6604 -0.6330
  133OSM    O1114355   4.757   3.364   6.425  0.3583  0.2635 -0.1227
  133OSM    O1214356   4.908   3.465   6.259  0.1515 -0.1574  0.0799
  133OSM    C1S14357   4.646   3.437   6.472 -0.4368  0.1827 -0.0612
  133OSM    H1S14358   4.553   3.396   6.430  0.3056 -1.5059 -0.1414
  133OSM    H1T14359   4.654   3.544   6.443  1.6795  0.7199  2.1187
  133OSM     NF14360   4.514   3.479   6.676 -0.3961  0.4085  0.5663
  133OSM    HNF14361   4.511   3.575   6.703 -2.4542  0.2557  1.0613
  133OSM    C2S14362   4.641   3.426   6.627  0.1772 -0.8725  0.2770
  133OSM    H2S14363   4.652   3.323   6.666  1.6205 -0.4573  1.0704
  133OSM    C3S14364   4.760   3.494   6.691  0.4552  0.3250  0.6035
  133OSM    H3S14365   4.755   3.604   6.680 -0.2319  0.5355  2.5949
  133OSM     O314366   4.884   3.436   6.642 -0.1262 -0.1901  0.1743
  133OSM    HO314367   4.859   3.387   6.563  1.0603 -2.4456  1.0953
  133OSM    C4S14368   4.761   3.482   6.840  0.1742 -0.1812  0.6246
  133OSM    H4S14369   4.781   3.378   6.870 -0.0117 -0.3043  0.3236
  133OSM    C5S14370   4.740   3.576   6.929  1.0213 -0.2702 -0.1553
  133OSM    H5S14371   4.716   3.680   6.902  1.6871  0.0725  0.5378
  133OSM    C6S14372   4.755   3.559   7.081  0.4904 -0.2946  0.3051
  133OSM    H6S14373   4.784   3.653   7.133 -1.7772  1.4711 -1.4021
  133OSM    H6T14374   4.819   3.473   7.107 -1.0733 -1.1313  1.5384
  133OSM    C7S14375   4.615   3.532   7.158  0.4350  0.4342  0.5202
  133OSM    H7S14376   4.638   3.519   7.266 -0.5212  0.6056  0.7541
  133OSM    H7T14377   4.577   3.437   7.113 -1.6596  0.7235  1.5155
  133OSM    C8S14378   4.513   3.647   7.133 -0.8277  0.6969  0.0383
  133OSM    H8S14379   4.476   3.634   7.029  0.6065 -2.3139 -0.1914
  133OSM    H8T14380   4.561   3.746   7.151  0.1024  0.1076  0.8819
  133OSM    C9S14381   4.387   3.628   7.219  0.3282  0.2119 -0.0360
  133OSM    H9S14382   4.330   3.537   7.190 -0.2630  0.1414  1.2857
  133OSM    H9T14383   4.329   3.716   7.183  0.7840  0.6746  0.3417
  133OSM   C10S14384   4.400   3.644   7.374 -0.7100  0.0634 -1.0112
  133OSM   H10S14385   4.423   3.748   7.405  0.0940 -0.4406  0.1850
  133OSM   H10T14386   4.487   3.583   7.409 -1.7760 -1.2327 -0.5296
  133OSM   C11S14387   4.272   3.617   7.456  0.4530 -0.0817  0.2933
  133OSM   H11S14388   4.235   3.517   7.423 -2.1495  2.0381 -4.1633
  133OSM   H11T14389   4.192   3.686   7.424  0.0898 -1.5024 -2.1343
  133OSM   C12S14390   4.298   3.617   7.604 -1.0019  0.8122 -0.8903
  133OSM   H12S14391   4.356   3.534   7.648 -2.4290  1.6245  2.8934
  133OSM   H12T14392   4.199   3.605   7.652 -1.5821 -1.5270 -2.4675
  133OSM   C13S14393   4.355   3.752   7.647  0.5458 -0.1671  0.6279
  133OSM   H13S14394   4.313   3.833   7.583 -0.6268 -0.3263  1.1731
  133OSM   H13T14395   4.465   3.765   7.641  0.2437  2.1800 -0.8606
  133OSM   C14S14396   4.310   3.778   7.792  0.5010  0.4991  0.7463
  133OSM   H14S14397   4.324   3.691   7.860  2.2511 -0.7580 -1.0946
  133OSM   H14T14398   4.200   3.795   7.799  0.0415 -2.1610  0.9907
  133OSM   C15S14399   4.385   3.900   7.841  0.2754 -0.7844  0.2465
  133OSM   H15S14400   4.371   3.981   7.766 -0.9529 -0.7786  0.4683
  133OSM   H15T14401   4.491   3.871   7.854  0.0141 -1.2626  1.4394
  133OSM   C16S14402   4.347   3.939   7.985  0.8765 -0.2751  0.3673
  133OSM   H16S14403   4.355   3.848   8.049 -1.5598 -0.2322  0.8187
  133OSM   H16T14404   4.240   3.968   7.982  0.8160 -0.4912 -2.8605
  133OSM   C17S14405   4.421   4.056   8.048  0.7558  0.0780  0.0969
  133OSM   H17S14406   4.411   4.154   7.998  0.5324  0.1254  0.2346
  133OSM   H17T14407   4.526   4.020   8.057 -0.1283 -2.4779  1.5020
  133OSM   C18S14408   4.384   4.071   8.196  0.1979  0.0648 -0.1162
  133OSM   H18S14409   4.282   4.109   8.215  1.1250  3.2722 -1.0228
  133OSM   H18T14410   4.438   4.160   8.232  0.3036  0.4720 -1.2330
  133OSM   H18U14411   4.399   3.975   8.250 -0.4548 -0.1854 -0.3697
  133OSM    C1F14412   4.400   3.409   6.675 -0.6813  0.4742  0.1102
  133OSM     OF14413   4.383   3.298   6.628 -0.1268 -0.0835  0.1400
  133OSM    C2F14414   4.286   3.469   6.752 -0.3798 -0.1850  0.2479
  133OSM    H2F14415   4.205   3.496   6.682 -0.3296 -0.7758 -0.0450
  133OSM    H2G14416   4.320   3.565   6.797 -0.4046 -0.2338  0.3699
  133OSM    C3F14417   4.250   3.379   6.870  0.7116  0.4067  0.6665
  133OSM    H3F14418   4.348   3.360   6.919  1.2741 -0.7864 -0.8391
  133OSM    H3G14419   4.220   3.276   6.839  1.3874  0.9379 -2.0329
  133OSM    C4F14420   4.143   3.437   6.969  0.0984  0.2519  0.4478
  133OSM    H4F14421   4.051   3.469   6.915  0.4956 -0.1244 -0.4726
  133OSM    H4G14422   4.188   3.528   7.014 -2.0364  0.0923  3.1622
  133OSM    C5F14423   4.102   3.327   7.070 -0.4908  0.3849  0.4722
  133OSM    H5F14424   4.197   3.287   7.111 -0.8405 -0.6468  0.2971
  133OSM    H5G14425   4.036   3.249   7.026  1.2137 -0.0596 -1.5168
  133OSM    C6F14426   4.041   3.387   7.190 -0.7184 -0.1277 -0.5874
  133OSM    H6F14427   3.946   3.437   7.160 -1.1245 -0.5584 -0.0519
  133OSM    H6G14428   4.100   3.464   7.244 -0.0038 -0.2271 -1.2077
  133OSM    C7F14429   4.021   3.284   7.306 -0.0087  0.2320  0.1922
  133OSM    H7F14430   4.118   3.251   7.349  0.8171  0.3451 -1.5292
  133OSM    H7G14431   3.986   3.189   7.261 -0.0841  0.4650 -0.2432
  133OSM    C8F14432   3.909   3.325   7.405  0.0131 -0.2469  0.2974
  133OSM    H8F14433   3.819   3.328   7.341  0.4797  0.8364 -0.3270
  133OSM    H8G14434   3.935   3.429   7.435  1.1820 -0.2271 -0.7443
  133OSM    C9F14435   3.896   3.229   7.523  0.9619 -0.4668 -0.1259
  133OSM    H9F14436   3.854   3.134   7.487 -0.2007  0.4089 -1.1638
  133OSM   C10F14437   3.928   3.260   7.654  0.1329  0.3447 -0.4347
  133OSM   H10F14438   3.905   3.188   7.734 -1.1325 -0.2867 -1.3253
  133OSM   C11F14439   3.977   3.393   7.697 -0.8249 -0.2791  0.7538
  133OSM   H11F14440   3.941   3.478   7.636  0.1211  0.0637  0.6467
  133OSM   H11G14441   4.088   3.392   7.686 -0.7618 -1.4015  1.3297
  133OSM   C12F14442   3.939   3.431   7.840 -0.2765 -0.1883 -0.1428
  133OSM   H12F14443   3.969   3.365   7.924 -0.6302  0.0121  0.1425
  133OSM   H12G14444   3.829   3.444   7.845 -0.3060 -0.5609  0.2633
  133OSM   C13F14445   3.993   3.575   7.879  0.4134 -0.1456  0.5149
  133OSM   H13F14446   3.960   3.659   7.813  1.4320 -0.2712 -0.1644
  133OSM   H13G14447   4.103   3.572   7.874  0.4576 -1.4479  1.7310
  133OSM   C14F14448   3.946   3.614   8.021  0.0047 -0.2326 -0.4283
  133OSM   H14F14449   3.947   3.524   8.086 -1.0576  0.4384  0.5541
  133OSM   H14G14450   3.837   3.634   8.029 -0.1900 -0.4967 -2.0432
  133OSM   C15F14451   4.027   3.730   8.086  0.5786  0.2720 -0.9199
  133OSM   H15F14452   4.035   3.817   8.018  1.7599 -0.4422 -1.7500
  133OSM   H15G14453   4.129   3.699   8.118 -1.1738 -3.4404  1.8762
  133OSM   C16F14454   3.959   3.784   8.217 -0.3574  0.0465 -0.7260
  133OSM   H16F14455   3.931   3.696   8.278  2.0415  0.8994  1.8013
  133OSM   H16G14456   3.869   3.846   8.201  0.1764  0.7051 -1.2567
  133OSM   C17F14457   4.054   3.871   8.303 -0.4482 -0.8758 -0.9080
  133OSM   H17F14458   4.055   3.975   8.264  1.0801 -0.9761 -1.1877
  133OSM   H17G14459   4.157   3.831   8.292 -0.6618 -1.5106 -0.6619
  133OSM   C18F14460   4.009   3.874   8.454  0.5698  0.3652 -0.4764
  133OSM   H18F14461   4.087   3.924   8.514 -1.0911  2.0544  0.3911
  133OSM   H18G14462   3.983   3.772   8.490 -0.6994 -0.1306 -2.5841
  133OSM   H18H14463   3.913   3.931   8.460 -0.3970 -1.0432 -1.6577
  134OSM      N14464   6.576   4.883   6.298 -0.2244  0.1316 -0.1316
  134OSM    C1514465   6.468   4.772   6.305 -0.3117  0.1082 -0.5021
  134OSM   H15A14466   6.431   4.767   6.406 -4.4405  0.0882 -1.8339
  134OSM   H15B14467   6.507   4.676   6.274 -0.6734 -0.5877  1.0730
  134OSM   H15C14468   6.382   4.784   6.240 -0.5563 -1.1925 -0.4459
  134OSM    C1414469   6.703   4.844   6.368  0.3924  0.6594  0.2904
  134OSM   H14A14470   6.775   4.923   6.354  1.0083 -0.2970 -2.7452
  134OSM   H14B14471   6.730   4.742   6.347  2.0801  1.3602 -1.2294
  134OSM   H14C14472   6.669   4.862   6.469  1.4877  1.0128  0.6130
  134OSM    C1314473   6.616   4.905   6.157  0.0726 -0.5169 -0.2149
  134OSM   H13A14474   6.533   4.919   6.090 -0.9618 -0.0711  1.1276
  134OSM   H13B14475   6.695   4.840   6.122  0.5387  0.4950 -1.1392
  134OSM   H13C14476   6.661   5.003   6.143  1.1081 -1.0512 -0.7519
  134OSM    C1214477   6.527   5.018   6.354  0.2785  0.3165 -0.4287
  134OSM   H12A14478   6.422   5.023   6.328  0.4056  2.3082 -0.7431
  134OSM   H12B14479   6.578   5.104   6.312  0.3593  0.6507  0.3301
  134OSM    C1114480   6.533   5.053   6.506 -0.0448  0.0875  0.3613
  134OSM   H11A14481   6.501   4.975   6.578  1.4635 -0.5398  0.4010
  134OSM   H11B14482   6.463   5.135   6.531 -0.8212 -0.8007  1.1878
  134OSM      P14483   6.735   5.227   6.487  0.2372  0.0392  0.1514
  134OSM    O1314484   6.859   5.239   6.557 -0.4808 -0.5751  0.4574
  134OSM    O1414485   6.731   5.219   6.339  0.0851  0.5521  0.0109
  134OSM    O1114486   6.629   5.334   6.529  0.3099 -0.2023 -0.8401
  134OSM    O1214487   6.669   5.092   6.541 -0.3713  0.2392  0.1112
  134OSM    C1S14488   6.581   5.363   6.661  0.3559 -0.4863 -0.4194
  134OSM    H1S14489   6.634   5.297   6.733  0.1537  0.5522  0.7170
  134OSM    H1T14490   6.472   5.343   6.665  0.2443  0.2473  0.7580
  134OSM     NF14491   6.571   5.525   6.844 -0.1317 -0.1768 -0.4249
  134OSM    HNF14492   6.492   5.575   6.880  1.0015  1.6057 -0.2474
  134OSM    C2S14493   6.593   5.513   6.698  0.0287 -0.3642 -0.3032
  134OSM    H2S14494   6.699   5.544   6.684 -0.7630  2.4235 -0.7637
  134OSM    C3S14495   6.503   5.612   6.615  0.2301  0.2803 -0.2645
  134OSM    H3S14496   6.396   5.589   6.632  0.6246 -1.0919  0.5719
  134OSM     O314497   6.535   5.588   6.479 -0.0519  0.1673  0.4311
  134OSM    HO314498   6.601   5.520   6.491  1.0982  1.2813  0.5510
  134OSM    C4S14499   6.520   5.754   6.659  0.3324  0.5945  0.1150
  134OSM    H4S14500   6.594   5.805   6.596  1.4447 -0.6359  0.4084
  134OSM    C5S14501   6.450   5.831   6.744  0.5919 -0.7711 -0.1501
  134OSM    H5S14502   6.359   5.796   6.795 -3.2481  1.6510 -4.5038
  134OSM    C6S14503   6.477   5.972   6.770  0.1815 -0.7040  0.3281
  134OSM    H6S14504   6.512   6.020   6.676 -0.1749 -1.0807  0.0038
  134OSM    H6T14505   6.572   5.970   6.828  0.3497 -1.9010  0.0336
  134OSM    C7S14506   6.374   6.061   6.840  0.0083  0.1667  0.6370
  134OSM    H7S14507   6.276   6.040   6.793  0.3313 -0.4741  0.2319
  134OSM    H7T14508   6.395   6.169   6.827  0.1738 -0.0976 -1.7806
  134OSM    C8S14509   6.368   6.037   6.993  0.0336  0.1135 -0.4632
  134OSM    H8S14510   6.303   6.119   7.031 -0.5785  0.7257 -2.7165
  134OSM    H8T14511   6.472   6.055   7.028 -0.1974 -1.5257  1.2408
  134OSM    C9S14512   6.321   5.900   7.042 -0.0566  0.0662  0.3262
  134OSM    H9S14513   6.396   5.819   7.032 -0.7230 -0.4893 -0.2471
  134OSM    H9T14514   6.233   5.858   6.989 -3.2670 -0.8058  5.5771
  134OSM   C10S14515   6.301   5.901   7.191 -0.0521 -0.4603 -0.2424
  134OSM   H10S14516   6.193   5.922   7.207  0.1974  1.0471 -0.4079
  134OSM   H10T14517   6.351   5.990   7.236 -2.7213  0.7959  0.4452
  134OSM   C11S14518   6.350   5.768   7.254 -0.2610  0.0566  0.5629
  134OSM   H11S14519   6.456   5.758   7.223 -0.1990  0.7610  0.5450
  134OSM   H11T14520   6.294   5.685   7.207 -0.8006  1.9176 -2.3182
  134OSM   C12S14521   6.326   5.761   7.405  0.4172 -0.1562 -0.1537
  134OSM   H12S14522   6.217   5.762   7.427  0.0053  3.3115 -1.6133
  134OSM   H12T14523   6.362   5.856   7.451 -2.1575  0.2089  1.3182
  134OSM   C13S14524   6.417   5.657   7.468  0.2611  0.2809 -0.1788
  134OSM   H13S14525   6.515   5.704   7.495 -0.5663  2.0469 -0.0804
  134OSM   H13T14526   6.419   5.577   7.391  1.2951  0.0076  0.1138
  134OSM   C14S14527   6.356   5.593   7.590  0.5836  0.1981  0.0371
  134OSM   H14S14528   6.407   5.499   7.621 -0.5949 -0.2674  0.6491
  134OSM   H14T14529   6.254   5.559   7.564  0.8452  0.7713 -1.8394
  134OSM   C15S14530   6.321   5.684   7.714 -0.0508 -0.5989  0.0135
  134OSM   H15S14531   6.236   5.752   7.692 -0.2003 -0.4781  0.9255
  134OSM   H15T14532   6.416   5.736   7.739  0.3428 -1.3992  0.2194
  134OSM   C16S14533   6.276   5.598   7.829 -0.1956 -0.7405 -0.8211
  134OSM   H16S14534   6.356   5.522   7.832  0.6276  0.1265 -0.5344
  134OSM   H16T14535   6.179   5.547   7.807 -1.4547  1.2534 -0.1368
  134OSM   C17S14536   6.270   5.667   7.971 -0.1848 -0.0331 -0.3273
  134OSM   H17S14537   6.366   5.718   7.994 -0.3299 -0.5912  1.7164
  134OSM   H17T14538   6.270   5.578   8.038  0.1903 -1.3159 -1.9682
  134OSM   C18S14539   6.147   5.755   7.978 -0.2995 -0.2431 -0.2624
  134OSM   H18S14540   6.121   5.788   8.081  0.1681  3.5233 -1.1881
  134OSM   H18T14541   6.072   5.706   7.912  1.2592 -0.4161 -1.9800
  134OSM   H18U14542   6.177   5.852   7.931  0.6819 -0.4953 -0.1747
  134OSM    C1F14543   6.644   5.468   6.937 -0.5874  0.2530  0.1554
  134OSM     OF14544   6.743   5.398   6.915  0.2307 -0.6613  0.3224
  134OSM    C2F14545   6.598   5.497   7.076 -0.2269  0.8754 -0.3769
  134OSM    H2F14546   6.513   5.431   7.104  1.0826 -0.5495  0.3916
  134OSM    H2G14547   6.549   5.597   7.081  1.6772  1.8435 -0.1140
  134OSM    C3F14548   6.712   5.485   7.179 -0.4975  0.3622 -0.9382
  134OSM    H3F14549   6.794   5.552   7.146 -0.0931 -0.0034 -0.6810
  134OSM    H3G14550   6.770   5.391   7.171  0.2970  0.6251  1.0169
  134OSM    C4F14551   6.673   5.508   7.325  0.1370 -0.4457 -0.7281
  134OSM    H4F14552   6.593   5.434   7.346  1.2358 -0.8643  2.6764
  134OSM    H4G14553   6.634   5.611   7.329 -1.0418 -0.8208 -1.9509
  134OSM    C5F14554   6.784   5.482   7.428 -0.7941 -0.0126  0.1948
  134OSM    H5F14555   6.872   5.537   7.388 -0.2120 -1.2541 -0.3167
  134OSM    H5G14556   6.823   5.378   7.427  0.1658  0.3213  0.9637
  134OSM    C6F14557   6.745   5.523   7.573  0.3909  0.1396 -0.7315
  134OSM    H6F14558   6.665   5.451   7.600 -0.9840  1.8135 -0.1779
  134OSM    H6G14559   6.696   5.623   7.571 -0.4845 -0.1656  2.1056
  134OSM    C7F14560   6.855   5.513   7.681  0.1145 -0.1401 -0.3286
  134OSM    H7F14561   6.937   5.584   7.655 -1.3968  1.9702  0.4280
  134OSM    H7G14562   6.889   5.407   7.683 -0.2938 -0.3062  3.1177
  134OSM    C8F14563   6.793   5.543   7.822 -0.3306  0.4403  0.4237
  134OSM    H8F14564   6.713   5.468   7.842  0.7788 -1.8988 -3.0226
  134OSM    H8G14565   6.758   5.648   7.813  4.1959  2.0362 -1.0939
  134OSM    C9F14566   6.896   5.520   7.932  0.0745  0.0310 -0.0789
  134OSM    H9F14567   6.975   5.594   7.948  1.3788 -1.6705  1.9653
  134OSM   C10F14568   6.899   5.421   8.024  0.2578  0.1740  0.5867
  134OSM   H10F14569   6.976   5.431   8.102  0.6346  1.7096  0.0405
  134OSM   C11F14570   6.800   5.308   8.026  0.4104  0.0253  0.1285
  134OSM   H11F14571   6.829   5.214   8.078  0.9841  0.3985  0.4984
  134OSM   H11G14572   6.766   5.280   7.924  0.2922 -1.3086  0.5179
  134OSM   C12F14573   6.677   5.354   8.106  0.3168 -0.9301 -0.0318
  134OSM   H12F14574   6.608   5.266   8.105 -1.2620  0.2217  1.3955
  134OSM   H12G14575   6.626   5.438   8.054 -1.1931 -1.8189 -0.0593
  134OSM   C13F14576   6.703   5.389   8.251  0.6721 -0.1394 -0.4252
  134OSM   H13F14577   6.772   5.476   8.246 -2.4789  2.5130 -1.0784
  134OSM   H13G14578   6.759   5.311   8.307  0.0395  1.6370  2.9259
  134OSM   C14F14579   6.572   5.422   8.327  0.3208 -0.2369  0.0983
  134OSM   H14F14580   6.513   5.338   8.369 -1.4011  0.1377 -1.4618
  134OSM   H14G14581   6.498   5.460   8.253 -1.0918 -3.4474 -0.3030
  134OSM   C15F14582   6.582   5.534   8.430  0.9007 -0.4869 -0.8048
  134OSM   H15F14583   6.482   5.553   8.473  1.9983  0.9057  1.3466
  134OSM   H15G14584   6.602   5.631   8.379  0.2442  0.3162  0.4081
  134OSM   C16F14585   6.659   5.503   8.558 -0.3162  0.5334 -0.6477
  134OSM   H16F14586   6.654   5.395   8.585 -3.3072  0.8278  0.4159
  134OSM   H16G14587   6.610   5.565   8.636  1.5708  1.2275  0.0195
  134OSM   C17F14588   6.803   5.550   8.562 -0.5347 -0.3069  0.0388
  134OSM   H17F14589   6.812   5.642   8.500 -1.3043 -1.7616 -2.3499
  134OSM   H17G14590   6.885   5.486   8.521 -0.4051 -1.6594  2.2668
  134OSM   C18F14591   6.843   5.581   8.708  0.1273 -0.0677 -0.9346
  134OSM   H18F14592   6.871   5.492   8.768 -0.1718 -0.2000 -0.9953
  134OSM   H18G14593   6.777   5.650   8.765  1.9393  0.7990  0.2381
  134OSM   H18H14594   6.939   5.637   8.705 -1.0008  2.0121 -0.2414
  135OSM      N14595   0.057   5.688   6.145 -0.1837  0.1434 -0.0969
  135OSM    C1514596  -0.045   5.685   6.032 -0.0834  0.0742 -0.4169
  135OSM   H15A14597  -0.049   5.778   5.978 -0.7872  0.8585  0.9363
  135OSM   H15B14598  -0.147   5.667   6.063  0.0543 -0.3667 -0.2146
  135OSM   H15C14599  -0.009   5.612   5.961  2.3318 -0.4558  1.2252
  135OSM    C1414600   0.193   5.717   6.085  0.0006 -0.8857 -0.1572
  135OSM   H14A14601   0.274   5.719   6.156 -0.9251  2.1129  0.9649
  135OSM   H14B14602   0.192   5.820   6.052 -1.7178 -0.3184  1.4936
  135OSM   H14C14603   0.207   5.658   5.995 -3.3442 -1.7500 -0.2234
  135OSM    C1314604   0.028   5.797   6.246  0.7284 -0.3840 -0.2609
  135OSM   H13A14605   0.114   5.810   6.310 -0.4648 -0.7391  1.4974
  135OSM   H13B14606  -0.049   5.765   6.314 -0.2182  0.3384 -0.9547
  135OSM   H13C14607  -0.015   5.885   6.200 -0.6920 -0.9383 -0.0497
  135OSM    C1214608   0.063   5.553   6.217  0.1794  0.5850  0.3572
  135OSM   H12A14609   0.085   5.469   6.153  0.5386 -0.4024  1.7388
  135OSM   H12B14610  -0.035   5.526   6.255 -0.2672 -1.6229 -2.0591
  135OSM    C1114611   0.160   5.554   6.338  0.1437  0.4720  0.0503
  135OSM   H11A14612   0.155   5.449   6.374 -1.8531  1.2490  2.2812
  135OSM   H11B14613   0.120   5.615   6.421  0.4742 -0.7413  1.1305
  135OSM      P14614   0.418   5.551   6.398  0.0367 -0.4203 -0.2427
  135OSM    O1314615   0.437   5.409   6.419  0.7103 -0.2593  0.1224
  135OSM    O1414616   0.526   5.629   6.337 -0.4288 -0.2725 -0.4353
  135OSM    O1114617   0.382   5.609   6.544 -0.3462  0.2863 -0.2337
  135OSM    O1214618   0.299   5.588   6.312  0.8042  0.1623  0.9631
  135OSM    C1S14619   0.330   5.517   6.645 -0.5182 -0.3648 -0.3981
  135OSM    H1S14620   0.417   5.457   6.679 -1.1792  0.5775  3.5720
  135OSM    H1T14621   0.252   5.450   6.603  0.3211 -0.3131 -2.0855
  135OSM     NF14622   0.219   5.501   6.864  0.3963  0.9799  0.0174
  135OSM    HNF14623   0.128   5.466   6.844  0.8386  0.3248 -0.9299
  135OSM    C2S14624   0.263   5.596   6.762 -0.7061  0.3988 -0.2053
  135OSM    H2S14625   0.341   5.659   6.809 -0.5641 -1.0973  1.6853
  135OSM    C3S14626   0.153   5.682   6.703 -0.1988 -0.8531 -0.0597
  135OSM    H3S14627   0.093   5.626   6.628 -1.3689  2.2841 -1.6891
  135OSM     O314628   0.193   5.795   6.631  0.1420  0.2833 -0.2049
  135OSM    HO314629   0.275   5.769   6.589  0.0758 -1.0034  0.4209
  135OSM    C4S14630   0.063   5.734   6.813 -0.2679 -0.0968 -0.6812
  135OSM    H4S14631  -0.025   5.669   6.823 -0.3765 -0.1975 -2.0607
  135OSM    C5S14632   0.087   5.833   6.899  0.3390 -0.2501  0.8052
  135OSM    H5S14633   0.187   5.880   6.902  1.8025 -3.0728 -0.4595
  135OSM    C6S14634   0.003   5.881   7.023  0.0153  0.1029 -0.4138
  135OSM    H6S14635  -0.096   5.833   7.041  0.8881 -1.8569 -0.5996
  135OSM    H6T14636  -0.007   5.991   7.021  0.1216  0.1713  1.2046
  135OSM    C7S14637   0.073   5.861   7.161 -0.2126  0.9127 -0.6499
  135OSM    H7S14638   0.171   5.914   7.159  0.8889 -1.0061 -2.9053
  135OSM    H7T14639   0.098   5.753   7.168 -1.6913  0.6115  0.3343
  135OSM    C8S14640  -0.023   5.903   7.273 -0.0215 -0.4300 -0.2873
  135OSM    H8S14641  -0.114   5.840   7.267 -0.2880  0.0617 -1.9952
  135OSM    H8T14642  -0.072   5.998   7.241 -0.1051 -0.3382  0.1136
  135OSM    C9S14643   0.046   5.903   7.411  0.0313  0.1764  0.3409
  135OSM    H9S14644   0.126   5.980   7.403  0.5584 -0.0870  2.5163
  135OSM    H9T14645   0.087   5.804   7.438 -0.3260  0.4530  2.0474
  135OSM   C10S14646  -0.057   5.940   7.515 -0.6198 -0.1801 -0.4567
  135OSM   H10S14647  -0.139   5.864   7.522  0.4827 -1.2868  1.4333
  135OSM   H10T14648  -0.102   6.038   7.491  1.5458  1.1485  0.6443
  135OSM   C11S14649   0.013   5.934   7.653  0.4648 -0.0724 -0.0938
  135OSM   H11S14650   0.106   5.992   7.638 -1.0171  2.0259 -1.6514
  135OSM   H11T14651   0.036   5.829   7.681  0.2619 -0.0910  0.0067
  135OSM   C12S14652  -0.072   5.995   7.766  0.5149  0.4034 -0.0148
  135OSM   H12S14653  -0.171   5.945   7.777  1.8353 -2.5619 -0.6026
  135OSM   H12T14654  -0.079   6.105   7.748  1.6248  0.2465 -1.5689
  135OSM   C13S14655  -0.003   5.984   7.901 -0.0451 -0.1285  0.2788
  135OSM   H13S14656   0.106   6.005   7.888  0.1081 -0.7003  0.6249
  135OSM   H13T14657  -0.006   5.886   7.953  1.5199 -1.1417 -1.4290
  135OSM   C14S14658  -0.056   6.067   8.021  0.3035 -0.0494  0.2019
  135OSM   H14S14659   0.018   6.055   8.103  1.7930 -0.6004 -1.1783
  135OSM   H14T14660  -0.148   6.021   8.063  1.7497 -1.8329  1.6190
  135OSM   C15S14661  -0.065   6.218   8.009 -0.4673  0.7268 -0.4471
  135OSM   H15S14662  -0.140   6.227   7.927  1.4368  1.6618 -2.1545
  135OSM   H15T14663   0.035   6.251   7.975  1.0305 -1.7499  1.2862
  135OSM   C16S14664  -0.105   6.288   8.136 -0.8598 -0.2664 -0.2194
  135OSM   H16S14665  -0.038   6.258   8.220 -0.6584 -0.3849 -0.4231
  135OSM   H16T14666  -0.207   6.255   8.165 -0.7857  0.1611  0.5670
  135OSM   C17S14667  -0.099   6.442   8.124  0.0105  0.5285  0.1050
  135OSM   H17S14668  -0.161   6.464   8.034  0.4633 -1.0225 -0.6081
  135OSM   H17T14669   0.003   6.466   8.088 -0.1521 -0.9274 -1.4299
  135OSM   C18S14670  -0.136   6.528   8.241 -0.5615 -0.0461  0.4679
  135OSM   H18S14671  -0.097   6.487   8.336  0.6064 -0.9199 -0.3658
  135OSM   H18T14672  -0.247   6.526   8.247 -0.5530  0.7253  1.1260
  135OSM   H18U14673  -0.102   6.633   8.225 -0.3504 -0.4375 -2.0876
  135OSM    C1F14674   0.315   5.446   6.943  0.8613 -0.1408  0.2017
  135OSM     OF14675   0.425   5.496   6.952  0.5829  0.5633  0.4237
  135OSM    C2F14676   0.273   5.322   7.010 -0.3444 -0.8174 -0.5644
  135OSM    H2F14677   0.244   5.256   6.925 -1.2314  0.4261 -1.2734
  135OSM    H2G14678   0.179   5.350   7.061 -0.9061  1.3275 -2.5838
  135OSM    C3F14679   0.364   5.272   7.124 -0.5083 -0.0795  0.0038
  135OSM    H3F14680   0.468   5.309   7.111  0.2082 -1.7376  0.6360
  135OSM    H3G14681   0.364   5.161   7.129 -1.7909 -0.0805  0.2001
  135OSM    C4F14682   0.319   5.320   7.264  0.7241  0.0636  0.1265
  135OSM    H4F14683   0.216   5.284   7.288 -0.3063  3.0812  0.7030
  135OSM    H4G14684   0.316   5.431   7.269  1.1287  0.0219  1.5834
  135OSM    C5F14685   0.419   5.280   7.371 -0.0344 -0.0093 -0.6716
  135OSM    H5F14686   0.526   5.298   7.348  0.6920 -0.3424  2.0305
  135OSM    H5G14687   0.405   5.173   7.396 -0.1576  0.2306  0.3683
  135OSM    C6F14688   0.385   5.335   7.515 -0.0739 -0.2455 -0.5339
  135OSM    H6F14689   0.288   5.288   7.541  1.1042 -2.0579  0.8512
  135OSM    H6G14690   0.365   5.444   7.524 -1.2608 -0.5921  1.4629
  135OSM    C7F14691   0.484   5.290   7.613 -0.3215 -0.3946 -0.3300
  135OSM    H7F14692   0.585   5.319   7.578 -0.5405  1.4399  0.4402
  135OSM    H7G14693   0.484   5.178   7.616  0.1032 -0.3983 -0.3723
  135OSM    C8F14694   0.484   5.361   7.755  0.5401  0.4671  1.0549
  135OSM    H8F14695   0.381   5.361   7.798  0.8875  3.4320  2.1754
  135OSM    H8G14696   0.497   5.471   7.742 -1.2138  1.0077  3.1521
  135OSM    C9F14697   0.584   5.286   7.843  0.1671  1.1211 -0.2597
  135OSM    H9F14698   0.675   5.341   7.870  0.2151  1.2260 -0.6281
  135OSM   C10F14699   0.562   5.163   7.905  0.2751  0.1058  0.0751
  135OSM   H10F14700   0.641   5.132   7.975 -0.1699  0.4215  0.7312
  135OSM   C11F14701   0.429   5.084   7.899 -0.4939  0.4222 -0.8025
  135OSM   H11F14702   0.416   5.008   7.819 -2.0829 -0.2418  0.0503
  135OSM   H11G14703   0.341   5.149   7.879 -0.5419  0.6771  0.1866
  135OSM   C12F14704   0.395   5.021   8.032 -0.0339  0.3915  0.0327
  135OSM   H12F14705   0.482   4.970   8.079 -1.1838 -2.3965 -0.6548
  135OSM   H12G14706   0.318   4.941   8.022  0.6493 -0.2516 -0.1913
  135OSM   C13F14707   0.352   5.132   8.122  0.1000 -1.0548 -0.1651
  135OSM   H13F14708   0.271   5.188   8.071  2.0356  1.3349 -0.7978
  135OSM   H13G14709   0.429   5.211   8.137 -0.2441 -0.9629  1.2446
  135OSM   C14F14710   0.314   5.089   8.264 -0.2745  0.0394  0.2534
  135OSM   H14F14711   0.246   5.001   8.262 -1.4182  0.9077 -0.2062
  135OSM   H14G14712   0.254   5.166   8.318 -1.6491 -1.6278  1.1978
  135OSM   C15F14713   0.441   5.054   8.340  0.1969 -0.5607  0.1545
  135OSM   H15F14714   0.503   4.988   8.277  0.9319  1.4809 -1.3743
  135OSM   H15G14715   0.412   5.001   8.433  0.7319 -0.2491  0.5026
  135OSM   C16F14716   0.520   5.178   8.386  0.6866  0.0585  0.2577
  135OSM   H16F14717   0.576   5.213   8.297  0.4284  2.3140  0.9186
  135OSM   H16G14718   0.594   5.146   8.462 -0.5014 -2.3555  0.5031
  135OSM   C17F14719   0.442   5.299   8.448 -0.5899 -0.6971 -0.0525
  135OSM   H17F14720   0.376   5.352   8.376  0.6346  1.3413  0.2434
  135OSM   H17G14721   0.525   5.371   8.464 -1.1935  0.2661 -1.0653
  135OSM   C18F14722   0.376   5.262   8.582  0.4007 -0.4762 -0.0880
  135OSM   H18F14723   0.368   5.357   8.637  2.6258  1.5988 -3.0089
  135OSM   H18G14724   0.434   5.197   8.651 -0.5633  0.4934  1.6997
  135OSM   H18H14725   0.282   5.209   8.557  0.0629 -0.2712  0.7330
  136OSM      N14726   6.052   2.074   5.798 -0.5612  0.1029  0.2776
  136OSM    C1514727   6.089   1.963   5.701  0.1177 -0.4448 -0.2347
  136OSM   H15A14728   6.196   1.955   5.689  0.0561  0.8741 -1.8464
  136OSM   H15B14729   6.060   1.993   5.602  3.3434 -0.4670 -1.3023
  136OSM   H15C14730   6.040   1.869   5.722  0.5315 -0.7838 -0.7624
  136OSM    C1414731   6.130   2.189   5.752 -0.0942 -0.0702 -0.9276
  136OSM   H14A14732   6.237   2.175   5.763  0.3319  1.6132 -2.5107
  136OSM   H14B14733   6.109   2.275   5.814  1.3784 -0.5100  0.2318
  136OSM   H14C14734   6.115   2.215   5.648  0.1080 -0.8550 -1.1631
  136OSM    C1314735   5.903   2.105   5.774 -0.5700  0.4496 -0.1357
  136OSM   H13A14736   5.867   2.174   5.849  1.3187  1.5050 -0.1579
  136OSM   H13B14737   5.840   2.018   5.778  0.6022 -0.3911  0.5506
  136OSM   H13C14738   5.895   2.133   5.670  0.3719  0.8782 -0.0961
  136OSM    C1214739   6.078   2.031   5.938 -0.5926  0.7209  0.0951
  136OSM   H12A14740   6.180   1.996   5.943 -0.0951  2.0340 -0.4760
  136OSM   H12B14741   6.014   1.945   5.955  1.1185 -1.2700 -2.6288
  136OSM    C1114742   6.052   2.112   6.063  0.1830 -0.3065  0.3676
  136OSM   H11A14743   6.130   2.191   6.056  1.8104 -1.9016 -0.6753
  136OSM   H11B14744   6.086   2.052   6.150  0.0741  0.5676  1.0150
  136OSM      P14745   5.797   2.061   6.096  0.2729  0.2455  0.1728
  136OSM    O1314746   5.676   2.119   6.027 -0.4988 -0.1374  0.1717
  136OSM    O1414747   5.838   1.925   6.057 -1.3742  0.3256 -0.1598
  136OSM    O1114748   5.780   2.068   6.256 -0.6842 -0.1413  0.1292
  136OSM    O1214749   5.916   2.163   6.072  0.3547  0.2015  0.6697
  136OSM    C1S14750   5.832   2.180   6.335 -0.1129 -0.4661  0.0349
  136OSM    H1S14751   5.753   2.257   6.329  0.0109 -0.2876  0.5923
  136OSM    H1T14752   5.924   2.223   6.290 -1.8631  3.4509 -0.2000
  136OSM     NF14753   5.896   2.253   6.569  0.2457  0.1036 -0.3349
  136OSM    HNF14754   5.988   2.261   6.606  0.8565 -1.9138 -1.2204
  136OSM    C2S14755   5.868   2.137   6.479 -0.0668 -0.5630 -0.5806
  136OSM    H2S14756   5.790   2.077   6.531  1.6202 -0.6735  1.9852
  136OSM    C3S14757   5.986   2.038   6.479  0.2708  0.0696  0.0265
  136OSM    H3S14758   6.073   2.097   6.444 -0.4159  1.2170  0.2166
  136OSM     O314759   5.976   1.926   6.387  0.1926  0.0315  0.0384
  136OSM    HO314760   5.902   1.952   6.330  0.4883 -1.4481 -1.0835
  136OSM    C4S14761   6.005   1.976   6.611  0.3285  0.4828  0.3694
  136OSM    H4S14762   5.915   1.941   6.665  0.4576  0.1887  0.3929
  136OSM    C5S14763   6.123   1.969   6.671  0.3830 -0.2201 -0.0822
  136OSM    H5S14764   6.206   2.005   6.609  0.6296 -1.4388 -0.4976
  136OSM    C6S14765   6.139   1.925   6.813 -0.5067  0.4007 -0.0835
  136OSM    H6S14766   6.248   1.921   6.835  0.1324  2.9820 -2.2846
  136OSM    H6T14767   6.094   1.829   6.848  0.8219  0.1767  1.0992
  136OSM    C7S14768   6.073   2.028   6.908  0.4146  0.8742 -0.1884
  136OSM    H7S14769   5.963   2.023   6.891  0.3908 -1.4990  0.3460
  136OSM    H7T14770   6.128   2.124   6.912  1.7751  0.2736 -2.6709
  136OSM    C8S14771   6.080   1.956   7.045  0.9846  0.1095  0.1797
  136OSM    H8S14772   6.179   1.914   7.070 -0.4394 -2.2860  2.2329
  136OSM    H8T14773   6.014   1.867   7.056 -2.2899  2.5108  1.6590
  136OSM    C9S14774   6.035   2.069   7.147 -0.1109 -0.0631  0.1701
  136OSM    H9S14775   5.946   2.131   7.121  1.0168  0.6885 -2.1170
  136OSM    H9T14776   6.119   2.141   7.160 -1.0245  1.0650  0.0218
  136OSM   C10S14777   5.997   1.999   7.285 -0.8130 -0.3662 -0.8401
  136OSM   H10S14778   5.941   1.905   7.269 -2.2310 -0.1171  1.9989
  136OSM   H10T14779   5.923   2.065   7.335 -1.1292 -1.5026  0.2377
  136OSM   C11S14780   6.117   1.980   7.374  0.1676 -0.0278 -0.9664
  136OSM   H11S14781   6.175   2.071   7.398  0.7777 -1.3485  3.5189
  136OSM   H11T14782   6.186   1.909   7.323 -1.8490 -3.8053  1.1291
  136OSM   C12S14783   6.083   1.920   7.512  0.1498 -0.7875  0.1804
  136OSM   H12S14784   6.183   1.887   7.546  1.1721  0.1303 -1.7924
  136OSM   H12T14785   6.008   1.838   7.500 -2.8924  1.6458  1.0971
  136OSM   C13S14786   6.036   2.018   7.619  0.3151 -0.3756  0.6396
  136OSM   H13S14787   5.936   2.047   7.581  1.2886  3.6719  0.7076
  136OSM   H13T14788   6.095   2.112   7.630  0.6526 -0.6463  1.2197
  136OSM   C14S14789   6.016   1.951   7.749 -0.4770  0.3671 -0.2523
  136OSM   H14S14790   6.118   1.933   7.790  0.0827 -0.5610 -1.9672
  136OSM   H14T14791   5.972   1.851   7.732 -2.2583  0.6572  2.1003
  136OSM   C15S14792   5.939   2.031   7.851  0.1709  0.6486  0.1145
  136OSM   H15S14793   5.832   2.041   7.825  0.9587 -0.8337 -4.7300
  136OSM   H15T14794   5.977   2.136   7.855 -0.5689  0.9025  0.6237
  136OSM   C16S14795   5.937   1.977   7.989  0.6993  0.3281 -1.1181
  136OSM   H16S14796   5.876   1.884   7.991 -0.0233  0.7770 -1.6814
  136OSM   H16T14797   5.890   2.046   8.062  0.3224  0.5368 -1.5502
  136OSM   C17S14798   6.073   1.958   8.046 -0.4695 -0.3212 -0.2617
  136OSM   H17S14799   6.110   2.061   8.065 -0.0980 -0.8099  2.0332
  136OSM   H17T14800   6.154   1.920   7.980 -0.4747 -0.8763  0.0484
  136OSM   C18S14801   6.073   1.891   8.180  0.0196 -0.3762 -0.2286
  136OSM   H18S14802   6.051   1.784   8.163  0.7544 -0.5443 -0.1798
  136OSM   H18T14803   5.995   1.939   8.244  0.5910 -0.1319  0.3017
  136OSM   H18U14804   6.173   1.900   8.229  0.3618  1.4823 -1.1701
  136OSM    C1F14805   5.797   2.338   6.600 -0.5034 -0.0406 -0.0914
  136OSM     OF14806   5.686   2.314   6.553  0.5878 -0.1299 -0.0186
  136OSM    C2F14807   5.826   2.455   6.688 -0.0887  0.2332 -0.4856
  136OSM    H2F14808   5.786   2.540   6.629 -2.2298  0.5009  1.2193
  136OSM    H2G14809   5.935   2.464   6.703 -0.4647  0.6943  2.5135
  136OSM    C3F14810   5.757   2.442   6.821  0.1763  1.2093 -0.7325
  136OSM    H3F14811   5.648   2.426   6.806  0.3266 -1.2408  0.2490
  136OSM    H3G14812   5.780   2.530   6.884  1.1131  0.8578 -0.5687
  136OSM    C4F14813   5.804   2.311   6.902 -0.4316  0.5752  0.4078
  136OSM    H4F14814   5.898   2.332   6.958 -0.4862 -0.9582  1.1054
  136OSM    H4G14815   5.821   2.227   6.832  0.6532  1.8952 -0.9758
  136OSM    C5F14816   5.693   2.261   7.006 -0.5212 -0.1181  0.6172
  136OSM    H5F14817   5.724   2.163   7.048 -1.3088  0.4829  2.7080
  136OSM    H5G14818   5.601   2.236   6.949  0.5854 -0.7306 -0.9762
  136OSM    C6F14819   5.674   2.365   7.123 -0.4328 -0.2430  0.5696
  136OSM    H6F14820   5.600   2.343   7.203  0.6900 -2.2422  1.1145
  136OSM    H6G14821   5.630   2.451   7.068 -2.0638 -2.0344 -1.0857
  136OSM    C7F14822   5.803   2.403   7.193  0.1571 -0.3687 -0.0796
  136OSM    H7F14823   5.871   2.453   7.122 -2.0880  2.1698 -0.5870
  136OSM    H7G14824   5.859   2.320   7.241  1.4774  0.1300 -0.7068
  136OSM    C8F14825   5.784   2.506   7.304  1.0212 -0.2567 -0.3107
  136OSM    H8F14826   5.728   2.465   7.390 -0.4536  0.9918 -0.6517
  136OSM    H8G14827   5.730   2.589   7.254  1.0654 -1.1122 -1.8416
  136OSM    C9F14828   5.913   2.553   7.351 -0.2749 -0.2301  0.1936
  136OSM    H9F14829   5.956   2.607   7.265  1.7030 -0.6629  0.8581
  136OSM   C10F14830   5.980   2.529   7.464  0.8917  0.0312 -0.3432
  136OSM   H10F14831   6.079   2.574   7.479  0.3140  0.6854  1.8269
  136OSM   C11F14832   5.935   2.433   7.575 -0.1511 -0.7159  0.0495
  136OSM   H11F14833   6.021   2.380   7.620 -0.7818 -0.1870  1.9928
  136OSM   H11G14834   5.861   2.356   7.545 -0.5661 -0.4354  0.3337
  136OSM   C12F14835   5.878   2.505   7.689 -0.4047 -0.4137 -0.7675
  136OSM   H12F14836   5.802   2.582   7.662  1.4314  2.3707  1.3349
  136OSM   H12G14837   5.958   2.566   7.736 -1.1697  0.1612 -0.1902
  136OSM   C13F14838   5.818   2.424   7.799  1.0274 -0.8127  0.2872
  136OSM   H13F14839   5.901   2.357   7.831  0.0507 -2.1991  0.0420
  136OSM   H13G14840   5.733   2.362   7.763 -0.8875  1.5052  0.6123
  136OSM   C14F14841   5.771   2.516   7.912 -0.0686  0.4887  0.1961
  136OSM   H14F14842   5.701   2.595   7.879 -1.4559 -0.8818 -0.2544
  136OSM   H14G14843   5.858   2.576   7.947  0.8096 -1.4169  1.4754
  136OSM   C15F14844   5.709   2.429   8.018 -0.3307 -0.4696 -0.1418
  136OSM   H15F14845   5.782   2.355   8.057 -0.6984 -0.0581  1.4044
  136OSM   H15G14846   5.626   2.375   7.967  0.1424 -0.3440 -1.0608
  136OSM   C16F14847   5.659   2.524   8.131  0.0235  0.0563 -0.5096
  136OSM   H16F14848   5.594   2.596   8.077 -2.5793 -2.6073 -1.1978
  136OSM   H16G14849   5.749   2.572   8.175  0.6746 -0.7406 -0.9232
  136OSM   C17F14850   5.605   2.440   8.248 -0.2561  0.1393  0.4859
  136OSM   H17F14851   5.622   2.498   8.341 -1.5805  1.3031  0.0295
  136OSM   H17G14852   5.664   2.347   8.264  0.1302  0.6968  2.6029
  136OSM   C18F14853   5.459   2.404   8.249 -0.2885  0.0011  0.7369
  136OSM   H18F14854   5.392   2.493   8.247  0.9710  0.9842  1.4431
  136OSM   H18G14855   5.441   2.361   8.350 -4.2248  1.9390  1.0780
  136OSM   H18H14856   5.426   2.343   8.162 -0.8910  2.0906 -0.5903
  137OSM      N14857   1.433   4.476   6.209  0.5997  0.3497 -0.2640
  137OSM    C1514858   1.282   4.517   6.200  0.1807  0.4570 -0.1036
  137OSM   H15A14859   1.272   4.614   6.153  1.8859  1.8776  2.2350
  137OSM   H15B14860   1.245   4.513   6.301  0.9846 -2.7064  0.1813
  137OSM   H15C14861   1.228   4.449   6.135  1.1925  1.5117 -2.1693
  137OSM    C1414862   1.477   4.425   6.080 -0.0080 -0.1421 -0.0165
  137OSM   H14A14863   1.583   4.444   6.071 -0.1266 -0.1647 -1.9035
  137OSM   H14B14864   1.439   4.487   6.000 -1.3133 -0.0651  0.6329
  137OSM   H14C14865   1.460   4.319   6.066 -2.7214  0.1407  0.4750
  137OSM    C1314866   1.511   4.595   6.246 -0.1429  0.1021 -0.5293
  137OSM   H13A14867   1.469   4.633   6.338  0.7792 -2.8761  1.2476
  137OSM   H13B14868   1.495   4.678   6.178 -1.6020  0.5510  0.3034
  137OSM   H13C14869   1.617   4.577   6.245 -0.1703 -0.0762 -1.2678
  137OSM    C1214870   1.446   4.366   6.306 -0.4273 -0.4244 -1.0292
  137OSM   H12A14871   1.551   4.343   6.307 -0.1225  0.8833  0.5892
  137OSM   H12B14872   1.399   4.271   6.286  0.7538 -1.8065  2.2125
  137OSM    C1114873   1.407   4.392   6.457 -0.8856 -0.9992  0.2985
  137OSM   H11A14874   1.465   4.478   6.497 -0.1123 -1.8950  1.1573
  137OSM   H11B14875   1.447   4.308   6.517  0.6717 -0.0366  0.6590
  137OSM      P14876   1.171   4.269   6.453 -0.0783  0.0641  0.1002
  137OSM    O1314877   1.038   4.308   6.394  0.4839  0.2211 -0.6184
  137OSM    O1414878   1.245   4.158   6.388  0.2596  0.7536 -0.2136
  137OSM    O1114879   1.158   4.225   6.602 -0.5627 -0.5151 -1.1066
  137OSM    O1214880   1.266   4.399   6.466  0.2957  0.2493  0.2754
  137OSM    C1S14881   1.181   4.309   6.718 -0.4884 -0.1414  0.5534
  137OSM    H1S14882   1.130   4.407   6.705 -0.7834 -0.2432  0.9417
  137OSM    H1T14883   1.289   4.323   6.738 -0.1318 -1.5056 -0.2592
  137OSM     NF14884   1.130   4.344   6.966  0.2653  0.2965  0.9249
  137OSM    HNF14885   1.185   4.314   7.044  0.7580 -1.0676  0.0825
  137OSM    C2S14886   1.123   4.245   6.852  0.0139 -0.1846  0.2827
  137OSM    H2S14887   1.015   4.221   6.838  0.0455 -0.5562  0.6295
  137OSM    C3S14888   1.205   4.111   6.876  0.5727 -1.0306 -0.9930
  137OSM    H3S14889   1.306   4.145   6.909  0.5472 -2.6876  1.0071
  137OSM     O314890   1.222   4.032   6.765 -0.5992 -0.2447 -0.7927
  137OSM    HO314891   1.206   4.098   6.696  2.3533 -0.0007 -1.4120
  137OSM    C4S14892   1.140   4.030   6.980 -0.3774 -0.5734 -0.5795
  137OSM    H4S14893   1.196   4.013   7.073 -2.8191 -2.0669  0.7510
  137OSM    C5S14894   1.028   3.953   6.968 -0.1469 -0.3807 -0.2122
  137OSM    H5S14895   0.977   3.953   6.871 -0.7165 -1.3638  0.0823
  137OSM    C6S14896   0.977   3.859   7.076 -0.6150  0.3031  0.0567
  137OSM    H6S14897   0.971   3.761   7.025 -1.7711  0.5557 -0.3326
  137OSM    H6T14898   0.875   3.895   7.100 -0.6501 -0.7023  1.6027
  137OSM    C7S14899   1.049   3.836   7.208  0.4281  0.2538  0.2727
  137OSM    H7S14900   1.036   3.931   7.265  0.4862  1.0840 -1.0387
  137OSM    H7T14901   1.158   3.823   7.188  0.2165 -0.1932 -0.6520
  137OSM    C8S14902   0.989   3.716   7.291  0.1731  0.0822  0.1149
  137OSM    H8S14903   1.040   3.629   7.245  0.8001 -0.0146  0.9831
  137OSM    H8T14904   0.879   3.707   7.278 -0.1752  0.6482  2.2903
  137OSM    C9S14905   1.006   3.724   7.451  0.3935  1.0508 -0.3115
  137OSM    H9S14906   0.950   3.812   7.488 -0.9374  1.3467 -2.8172
  137OSM    H9T14907   1.116   3.728   7.468  0.8759 -0.2210 -2.6346
  137OSM   C10S14908   0.962   3.586   7.520 -0.3521 -0.0200 -0.5233
  137OSM   H10S14909   1.034   3.510   7.482  3.2343  3.4007 -1.1374
  137OSM   H10T14910   0.859   3.554   7.493  0.1258 -2.4501  0.2662
  137OSM   C11S14911   0.971   3.581   7.674  0.6407 -0.4371  0.4600
  137OSM   H11S14912   0.895   3.647   7.721  1.5796  0.7366  0.3669
  137OSM   H11T14913   1.064   3.626   7.713  0.1693 -1.0206  2.3838
  137OSM   C12S14914   0.949   3.444   7.724  0.3207 -0.2152  1.3042
  137OSM   H12S14915   1.035   3.385   7.685 -0.4777 -0.9622  0.6219
  137OSM   H12T14916   0.859   3.397   7.679 -0.1416  1.1300  0.7969
  137OSM   C13S14917   0.942   3.436   7.870  0.2758 -0.0609 -0.7868
  137OSM   H13S14918   0.853   3.490   7.908 -0.8425 -2.2478 -0.0837
  137OSM   H13T14919   1.034   3.480   7.915 -0.6186 -0.1721  1.2732
  137OSM   C14S14920   0.914   3.302   7.934  0.0028 -0.1667 -0.1295
  137OSM   H14S14921   0.989   3.227   7.900  0.4399 -0.1998  0.8564
  137OSM   H14T14922   0.808   3.275   7.915  0.3349 -0.9876 -0.9109
  137OSM   C15S14923   0.930   3.318   8.088 -0.3554  0.1583  0.8249
  137OSM   H15S14924   0.849   3.383   8.127 -0.2091 -0.2808  1.8767
  137OSM   H15T14925   1.029   3.362   8.112  0.4966 -1.4481  0.4327
  137OSM   C16S14926   0.946   3.178   8.163 -0.5228 -0.3234  0.4564
  137OSM   H16S14927   1.005   3.111   8.097  0.8471  1.1138  0.1471
  137OSM   H16T14928   0.848   3.127   8.171  0.5170 -2.7874 -1.3610
  137OSM   C17S14929   1.020   3.182   8.292 -0.1450  0.0928 -0.6929
  137OSM   H17S14930   1.129   3.191   8.271 -0.3487  2.0420 -1.1037
  137OSM   H17T14931   1.021   3.078   8.332 -0.8462  0.5270  0.4964
  137OSM   C18S14932   0.970   3.282   8.400  0.4552  0.7054  0.5803
  137OSM   H18S14933   1.025   3.258   8.494  0.5314 -1.4721  0.0337
  137OSM   H18T14934   0.860   3.269   8.414  0.9388 -2.8641  2.3930
  137OSM   H18U14935   0.990   3.387   8.370  1.1839  0.0843 -1.2439
  137OSM    C1F14936   1.063   4.458   6.966  0.5291 -0.1817  0.3135
  137OSM     OF14937   0.981   4.484   6.876  0.0881  0.5044  0.3713
  137OSM    C2F14938   1.086   4.551   7.083 -0.5206  0.0032 -0.2341
  137OSM    H2F14939   1.098   4.656   7.048 -0.4427 -0.2262 -0.9184
  137OSM    H2G14940   1.180   4.523   7.135 -1.1280 -0.5603  0.5887
  137OSM    C3F14941   0.963   4.546   7.176  0.0847 -0.4053 -0.3855
  137OSM    H3F14942   0.941   4.444   7.215 -0.4034  1.0825  3.7496
  137OSM    H3G14943   0.876   4.565   7.110  0.7706 -0.0364 -1.2037
  137OSM    C4F14944   0.959   4.641   7.293 -0.0160  0.4100  0.7569
  137OSM    H4F14945   0.856   4.651   7.333  0.7939  1.0584  2.8599
  137OSM    H4G14946   0.978   4.743   7.251  2.4796 -1.0205 -1.9138
  137OSM    C5F14947   1.055   4.623   7.408 -0.1533  0.1524  0.0263
  137OSM    H5F14948   1.155   4.638   7.360  0.2921  0.4733  1.0201
  137OSM    H5G14949   1.046   4.519   7.446 -1.6255 -0.3808 -1.6357
  137OSM    C6F14950   1.028   4.713   7.528  0.3212  0.6611 -0.1165
  137OSM    H6F14951   0.919   4.717   7.549  0.5324 -1.3981  1.6483
  137OSM    H6G14952   1.052   4.821   7.520 -0.1373  0.9388  1.7708
  137OSM    C7F14953   1.076   4.659   7.664  1.0506  0.9100  0.7355
  137OSM    H7F14954   1.186   4.678   7.669  1.2168  0.6003 -0.9635
  137OSM    H7G14955   1.051   4.551   7.671  0.6922  0.9281 -0.1132
  137OSM    C8F14956   1.026   4.736   7.785 -0.1417 -0.8913 -0.2724
  137OSM    H8F14957   0.915   4.734   7.780 -0.1487 -0.4994 -0.3448
  137OSM    H8G14958   1.052   4.842   7.762 -1.4363 -0.7752 -1.3450
  137OSM    C9F14959   1.095   4.688   7.913  0.6733 -0.2437  0.9848
  137OSM    H9F14960   1.191   4.641   7.887  0.6382  0.5271 -0.7040
  137OSM   C10F14961   1.054   4.710   8.038  0.0608  0.2744 -0.0472
  137OSM   H10F14962   1.110   4.659   8.117  1.4227 -0.1717 -1.2551
  137OSM   C11F14963   0.933   4.793   8.076 -0.5590  0.1624 -0.1220
  137OSM   H11F14964   0.843   4.786   8.012  0.2904 -0.3764 -1.2925
  137OSM   H11G14965   0.957   4.901   8.073 -0.2484  0.1116  0.3335
  137OSM   C12F14966   0.892   4.743   8.217  0.5717 -0.1000 -0.5350
  137OSM   H12F14967   0.856   4.639   8.232 -0.7262  0.5039  0.7848
  137OSM   H12G14968   0.804   4.809   8.231  1.9701  1.6138  0.6335
  137OSM   C13F14969   0.992   4.785   8.330 -0.0983  0.0655  0.7170
  137OSM   H13F14970   1.024   4.890   8.312  0.6510  0.1949  2.6280
  137OSM   H13G14971   1.087   4.731   8.317  1.1590  2.0436  1.2580
  137OSM   C14F14972   0.954   4.775   8.477  0.4879  0.6184 -0.5808
  137OSM   H14F14973   1.036   4.732   8.538  0.7703  1.2064 -0.5451
  137OSM   H14G14974   0.873   4.700   8.493  2.4328 -1.1897  1.4185
  137OSM   C15F14975   0.917   4.912   8.540  0.8463 -0.4898 -0.3821
  137OSM   H15F14976   0.864   4.961   8.456 -1.0913 -0.4906  0.7941
  137OSM   H15G14977   1.005   4.971   8.574 -0.3047  0.0044  1.9697
  137OSM   C16F14978   0.807   4.908   8.649 -0.2567  0.3498 -0.1385
  137OSM   H16F14979   0.851   4.856   8.736  1.8549 -0.6695 -1.7136
  137OSM   H16G14980   0.723   4.847   8.609 -0.3467  0.4753 -0.1381
  137OSM   C17F14981   0.755   5.040   8.706  0.3680  0.3129  1.0285
  137OSM   H17F14982   0.679   5.026   8.786 -2.0403  0.3534 -1.1378
  137OSM   H17G14983   0.702   5.095   8.625  0.5219 -0.8779  0.0936
  137OSM   C18F14984   0.851   5.149   8.765 -1.2196 -0.2804  0.0136
  137OSM   H18F14985   0.810   5.248   8.795 -1.0698 -0.4150  0.6848
  137OSM   H18G14986   0.928   5.179   8.690 -0.1175 -1.0112  0.8262
  137OSM   H18H14987   0.894   5.111   8.860 -0.7850 -1.1001 -0.4987
  138OSM      N14988   1.098   5.988   6.246  0.2611 -0.4580  0.3046
  138OSM    C1514989   1.095   6.054   6.383 -0.4776  0.6557  0.3169
  138OSM   H15A14990   1.050   5.989   6.457 -0.0664 -0.3659 -0.3198
  138OSM   H15B14991   1.037   6.145   6.372  0.1571  0.7789 -3.0335
  138OSM   H15C14992   1.197   6.073   6.410  0.1350 -1.7581 -0.1210
  138OSM    C1414993   1.150   5.848   6.262 -0.4822 -0.6089  0.0703
  138OSM   H14A14994   1.248   5.862   6.305  0.1797 -0.9216 -1.2897
  138OSM   H14B14995   1.172   5.802   6.167  1.2492  1.8279 -0.8181
  138OSM   H14C14996   1.093   5.782   6.325 -0.8363 -4.2529 -3.6552
  138OSM    C1314997   0.958   5.971   6.194 -0.0778  1.2852 -0.1423
  138OSM   H13A14998   0.908   6.064   6.167  2.1058  2.6607  0.2805
  138OSM   H13B14999   0.898   5.920   6.268  0.7194 -0.7362 -0.8313
  138OSM   H13C15000   0.965   5.905   6.109 -0.8198 -0.2882  0.9847
  138OSM    C1215001   1.185   6.067   6.153 -0.3909  0.4457  0.3104
  138OSM   H12A15002   1.188   6.022   6.055  4.6698  2.0614 -0.5662
  138OSM   H12B15003   1.286   6.044   6.183  0.0315 -0.8605 -1.8412
  138OSM    C1115004   1.165   6.222   6.126  0.6022  0.3490  0.0128
  138OSM   H11A15005   1.062   6.248   6.095 -0.4833 -1.6766  1.6572
  138OSM   H11B15006   1.223   6.260   6.040 -0.5121  0.4289 -0.7126
  138OSM      P15007   1.359   6.308   6.268 -0.0101 -0.0044  0.1395
  138OSM    O1315008   1.437   6.189   6.225  0.4330  0.1637  0.1090
  138OSM    O1415009   1.397   6.444   6.221 -0.0907 -0.3050 -0.0064
  138OSM    O1115010   1.363   6.311   6.427 -0.0607 -0.2858  0.0238
  138OSM    O1215011   1.204   6.295   6.243  0.5999 -0.1589 -0.0125
  138OSM    C1S15012   1.254   6.359   6.508 -0.0748 -0.2905 -0.0190
  138OSM    H1S15013   1.158   6.309   6.485 -0.0827 -0.1154 -0.3784
  138OSM    H1T15014   1.236   6.468   6.493 -1.7227  0.1329  3.9719
  138OSM     NF15015   1.170   6.339   6.741 -0.5469  0.0438  0.3778
  138OSM    HNF15016   1.149   6.425   6.785 -1.0338 -0.7073  1.6648
  138OSM    C2S15017   1.289   6.343   6.657 -0.0820  0.0500  0.5446
  138OSM    H2S15018   1.343   6.246   6.659  1.7914  0.9668 -1.3680
  138OSM    C3S15019   1.393   6.453   6.693  0.2760  0.1772  0.1927
  138OSM    H3S15020   1.339   6.547   6.670 -4.1333 -2.4745 -1.5378
  138OSM     O315021   1.505   6.451   6.601  0.0896  0.2593  0.2810
  138OSM    HO315022   1.481   6.389   6.532  1.0467  0.4069 -0.2124
  138OSM    C4S15023   1.436   6.454   6.844 -0.3508 -0.0938  0.1677
  138OSM    H4S15024   1.363   6.509   6.905  1.6751  1.6888  1.1363
  138OSM    C5S15025   1.543   6.391   6.911 -0.5692  0.3829 -0.7965
  138OSM    H5S15026   1.597   6.317   6.850 -3.2506 -1.8861 -0.6087
  138OSM    C6S15027   1.570   6.383   7.058  0.5876  0.0626  0.1558
  138OSM    H6S15028   1.624   6.477   7.082 -0.7664  1.2871 -1.3553
  138OSM    H6T15029   1.629   6.290   7.075 -1.5029 -1.4998 -0.6599
  138OSM    C7S15030   1.444   6.380   7.144 -0.3699 -0.6597 -0.1230
  138OSM    H7S15031   1.367   6.321   7.090 -1.0228 -1.4381  1.5998
  138OSM    H7T15032   1.404   6.483   7.153  0.1064 -0.4545 -0.3268
  138OSM    C8S15033   1.443   6.330   7.292  0.2040  0.3473 -0.8777
  138OSM    H8S15034   1.487   6.229   7.304  1.0076  0.5830 -1.6694
  138OSM    H8T15035   1.340   6.333   7.331  1.2579 -0.1424  2.1821
  138OSM    C9S15036   1.533   6.420   7.381 -0.0154  0.2374 -0.9266
  138OSM    H9S15037   1.499   6.525   7.387  0.9646  0.4743  1.6950
  138OSM    H9T15038   1.638   6.427   7.346  0.6983  0.5127  1.1107
  138OSM   C10S15039   1.542   6.381   7.531 -0.3573  0.0811  0.9447
  138OSM   H10S15040   1.619   6.446   7.578  2.7493 -2.3266 -0.4731
  138OSM   H10T15041   1.576   6.277   7.553  0.5396  0.5865  2.0923
  138OSM   C11S15042   1.412   6.387   7.610 -0.2630  0.9725  0.7085
  138OSM   H11S15043   1.336   6.324   7.559  1.3315 -0.2364 -0.2836
  138OSM   H11T15044   1.380   6.493   7.608  0.3110  1.1655  1.5549
  138OSM   C12S15045   1.419   6.334   7.748 -0.9156  0.1081 -0.9544
  138OSM   H12S15046   1.432   6.224   7.751 -0.4305  0.1803  1.8810
  138OSM   H12T15047   1.326   6.360   7.803  0.2532 -0.6030  1.4851
  138OSM   C13S15048   1.530   6.418   7.822  0.3845  0.7967 -0.6532
  138OSM   H13S15049   1.524   6.523   7.784  0.2039  1.9365  2.2760
  138OSM   H13T15050   1.635   6.385   7.804  0.2232 -0.2205  0.2174
  138OSM   C14S15051   1.510   6.415   7.969  0.3578  0.9316 -0.0216
  138OSM   H14S15052   1.487   6.313   8.007 -1.4969  1.5699  0.6853
  138OSM   H14T15053   1.420   6.480   7.979  1.8885  3.2990 -0.8444
  138OSM   C15S15054   1.625   6.482   8.046  0.5295  0.1583  0.0938
  138OSM   H15S15055   1.659   6.579   8.004 -0.7398  0.6590  0.1856
  138OSM   H15T15056   1.710   6.411   8.031  1.6252  1.7109 -1.6148
  138OSM   C16S15057   1.603   6.473   8.200 -1.0105 -0.5283 -0.3326
  138OSM   H16S15058   1.619   6.369   8.236  0.2317 -0.3448 -0.2958
  138OSM   H16T15059   1.496   6.502   8.209 -1.0723 -0.2987 -1.6055
  138OSM   C17S15060   1.688   6.576   8.261 -0.6322  0.6100 -0.6134
  138OSM   H17S15061   1.668   6.672   8.208 -0.2383  0.1446 -1.6255
  138OSM   H17T15062   1.794   6.551   8.239 -0.8618 -0.6548 -0.3421
  138OSM   C18S15063   1.668   6.572   8.417  0.1815  0.7925 -0.3529
  138OSM   H18S15064   1.668   6.471   8.462 -1.5108  1.4939  1.3921
  138OSM   H18T15065   1.564   6.604   8.439 -0.2596 -1.3647  1.0402
  138OSM   H18U15066   1.742   6.633   8.474  1.4722  0.4378 -1.6039
  138OSM    C1F15067   1.076   6.251   6.738 -0.2970 -0.0995  0.1286
  138OSM     OF15068   1.110   6.151   6.678 -0.0752 -0.6512 -0.2079
  138OSM    C2F15069   0.943   6.279   6.803 -0.1731 -0.0655  0.1345
  138OSM    H2F15070   0.870   6.316   6.728 -1.2900  0.8163  1.5817
  138OSM    H2G15071   0.957   6.365   6.872 -1.5293  0.2100  0.0908
  138OSM    C3F15072   0.898   6.155   6.874  0.1457  0.2004  0.5311
  138OSM    H3F15073   0.910   6.071   6.802  0.0673  0.0871  0.6494
  138OSM    H3G15074   0.789   6.162   6.892  0.4901 -0.2162  3.1416
  138OSM    C4F15075   0.972   6.140   7.006 -0.2079 -0.5696 -0.1397
  138OSM    H4F15076   1.080   6.159   6.988  0.0236  0.4670  1.9929
  138OSM    H4G15077   0.950   6.034   7.032 -0.9317 -0.1114  1.2379
  138OSM    C5F15078   0.923   6.236   7.115 -0.2390  0.1556  0.7133
  138OSM    H5F15079   0.827   6.223   7.169  0.8974  0.9139  3.0552
  138OSM    H5G15080   0.908   6.338   7.071  0.6887 -0.3616 -0.8774
  138OSM    C6F15081   1.014   6.241   7.240 -0.3669 -0.5064  0.0297
  138OSM    H6F15082   0.983   6.321   7.310 -1.6062 -1.2777  0.3829
  138OSM    H6G15083   1.122   6.254   7.217 -0.7752  0.3335 -1.5782
  138OSM    C7F15084   0.996   6.112   7.319  0.5250 -0.9694  0.0587
  138OSM    H7F15085   1.042   6.026   7.265  2.9221  0.6907 -0.7102
  138OSM    H7G15086   0.889   6.104   7.348  1.1407  0.1121  3.0672
  138OSM    C8F15087   1.061   6.113   7.457 -0.1811 -0.9941 -0.3836
  138OSM    H8F15088   1.024   6.194   7.524 -2.0076 -0.2869 -2.1346
  138OSM    H8G15089   1.169   6.121   7.435 -0.4947 -1.5077 -2.2566
  138OSM    C9F15090   1.041   5.978   7.524 -0.3035 -0.1081 -0.3476
  138OSM    H9F15091   0.941   5.935   7.510  0.6108 -2.7440  0.5008
  138OSM   C10F15092   1.132   5.921   7.604  0.4563  0.3707  0.0121
  138OSM   H10F15093   1.098   5.833   7.661 -3.0524  1.8385  0.4863
  138OSM   C11F15094   1.266   5.968   7.646 -0.8184 -0.0089 -0.0044
  138OSM   H11F15095   1.293   6.071   7.613 -2.5298  0.4928  0.0082
  138OSM   H11G15096   1.335   5.892   7.605  2.2307  2.1507  0.7721
  138OSM   C12F15097   1.287   5.976   7.802  1.1144  0.2131 -0.2981
  138OSM   H12F15098   1.392   6.010   7.813  1.0401  0.4605 -0.3594
  138OSM   H12G15099   1.275   5.882   7.862  0.6537 -1.6304 -3.0923
  138OSM   C13F15100   1.199   6.087   7.868  0.9460 -0.8802  0.3913
  138OSM   H13F15101   1.098   6.042   7.880  0.3675  0.4623  0.7262
  138OSM   H13G15102   1.191   6.176   7.802 -4.0674  1.8458  4.0518
  138OSM   C14F15103   1.252   6.151   7.999  0.1390  0.1484 -0.8405
  138OSM   H14F15104   1.215   6.255   8.010  1.4985  0.4890  1.0316
  138OSM   H14G15105   1.362   6.153   7.982  1.1592  0.9087  4.1730
  138OSM   C15F15106   1.229   6.084   8.135 -0.1869  0.0969 -0.1439
  138OSM   H15F15107   1.192   5.980   8.119  0.9760 -0.2122 -0.9690
  138OSM   H15G15108   1.144   6.128   8.192  0.4268  2.8996 -1.2567
  138OSM   C16F15109   1.340   6.091   8.232  0.3463 -0.5052 -0.3207
  138OSM   H16F15110   1.348   6.195   8.271 -1.0459 -0.7945  0.8545
  138OSM   H16G15111   1.430   6.065   8.174 -0.0744  0.6780 -1.5510
  138OSM   C17F15112   1.321   5.993   8.352 -0.4450 -0.1660 -0.5337
  138OSM   H17F15113   1.320   5.887   8.319 -0.4024  0.2168 -1.8346
  138OSM   H17G15114   1.224   6.006   8.405  0.3966  0.0250  0.9923
  138OSM   C18F15115   1.439   6.009   8.444 -0.6151  0.0719 -0.8180
  138OSM   H18F15116   1.425   5.939   8.529 -1.7839  0.4750 -0.6621
  138OSM   H18G15117   1.459   6.111   8.482  1.2061  0.2467 -2.0910
  138OSM   H18H15118   1.528   5.980   8.384  0.3154 -0.3661  0.7316
  139OSM      N15119   1.091   1.145   6.052 -0.1081 -0.0295 -0.4631
  139OSM    C1515120   0.977   1.134   5.958  0.3370  0.9444  0.7939
  139OSM   H15A15121   0.879   1.143   6.002  0.7354  2.0305  1.4952
  139OSM   H15B15122   0.982   1.042   5.901 -0.4429  1.8783 -0.8432
  139OSM   H15C15123   0.985   1.219   5.892 -0.1585  0.6159  0.3015
  139OSM    C1415124   1.102   1.013   6.134  0.2788 -0.3757  0.4726
  139OSM   H14A15125   1.181   1.033   6.206 -0.5802  0.6713  1.1515
  139OSM   H14B15126   1.115   0.924   6.075 -1.3692  0.1345 -0.7236
  139OSM   H14C15127   1.016   1.006   6.200 -0.3330  0.9641 -0.1402
  139OSM    C1315128   1.211   1.160   5.966  0.4011 -0.2496 -0.1150
  139OSM   H13A15129   1.187   1.115   5.871 -2.1769  0.0857  0.3033
  139OSM   H13B15130   1.304   1.120   6.005  1.5280  0.3234 -2.0578
  139OSM   H13C15131   1.233   1.265   5.953 -1.0017 -0.0431 -0.9578
  139OSM    C1215132   1.073   1.264   6.141 -0.6502 -0.2184 -0.5962
  139OSM   H12A15133   0.983   1.250   6.200  1.2308  1.1725  2.8607
  139OSM   H12B15134   1.058   1.353   6.082  0.3774  1.5998  1.7214
  139OSM    C1115135   1.191   1.290   6.238 -0.2465  0.1528 -0.1470
  139OSM   H11A15136   1.292   1.277   6.194  0.4300 -0.4561  1.4823
  139OSM   H11B15137   1.189   1.205   6.310 -1.0389  1.0824  0.9662
  139OSM      P15138   1.201   1.545   6.229  0.0136 -0.0000  0.1356
  139OSM    O1315139   1.332   1.531   6.171  0.4405  0.2840 -0.3361
  139OSM    O1415140   1.093   1.557   6.132  0.5631  0.1097 -0.4219
  139OSM    O1115141   1.207   1.660   6.338 -0.1725  0.2777  0.2161
  139OSM    O1215142   1.177   1.414   6.311 -1.0518  0.5995  0.5849
  139OSM    C1S15143   1.085   1.717   6.400 -0.0919 -0.5211  0.3243
  139OSM    H1S15144   0.993   1.700   6.339  0.1344 -0.3205 -0.0799
  139OSM    H1T15145   1.097   1.827   6.405 -1.1192 -0.3369 -0.7253
  139OSM     NF15146   0.929   1.739   6.593 -0.3760 -0.6052 -0.3459
  139OSM    HNF15147   0.950   1.825   6.638  0.8028 -1.7698  1.4077
  139OSM    C2S15148   1.049   1.667   6.548  0.0206 -0.1182  0.2537
  139OSM    H2S15149   1.026   1.559   6.542  1.1562 -0.4213  1.0086
  139OSM    C3S15150   1.177   1.682   6.636  0.1222  0.0674  0.3059
  139OSM    H3S15151   1.190   1.792   6.638 -2.7300  0.4681  1.1807
  139OSM     O315152   1.295   1.630   6.590  0.0009 -0.4938  0.3921
  139OSM    HO315153   1.281   1.595   6.502  1.0318 -0.4175  0.1879
  139OSM    C4S15154   1.149   1.620   6.769 -0.7374 -0.7349  0.2229
  139OSM    H4S15155   1.063   1.665   6.822 -1.6540 -1.9952 -0.1479
  139OSM    C5S15156   1.214   1.514   6.825  0.7952 -0.0576  0.1103
  139OSM    H5S15157   1.288   1.461   6.764  1.9760  1.1392  0.4514
  139OSM    C6S15158   1.173   1.443   6.958 -0.6690 -0.2837 -0.7082
  139OSM    H6S15159   1.261   1.406   7.015  0.8597  1.4383 -1.8535
  139OSM    H6T15160   1.101   1.361   6.939  0.4401 -1.4407 -0.0683
  139OSM    C7S15161   1.121   1.538   7.065  0.3133 -0.0444  0.8080
  139OSM    H7S15162   1.041   1.601   7.022  2.0885 -0.3004 -3.3973
  139OSM    H7T15163   1.200   1.614   7.086  1.3637 -0.8951  0.0720
  139OSM    C8S15164   1.083   1.476   7.195  0.3457  0.2278  0.1149
  139OSM    H8S15165   1.158   1.402   7.229  0.6231 -0.5723 -2.0565
  139OSM    H8T15166   0.983   1.428   7.201 -0.1185  1.0404 -0.8121
  139OSM    C9S15167   1.068   1.594   7.296 -0.4483 -0.3179 -0.2325
  139OSM    H9S15168   1.018   1.687   7.260 -1.6022 -0.4838  0.8853
  139OSM    H9T15169   1.172   1.633   7.304 -0.7895  0.3861  1.0027
  139OSM   C10S15170   1.031   1.558   7.435 -0.0941  0.2725 -0.2591
  139OSM   H10S15171   0.931   1.512   7.448  0.6658 -0.9431  1.8597
  139OSM   H10T15172   1.038   1.645   7.505 -0.0948 -0.0490  0.1440
  139OSM   C11S15173   1.129   1.466   7.499 -0.1184  0.0441 -0.2006
  139OSM   H11S15174   1.237   1.492   7.502  0.5772 -2.5910  0.0597
  139OSM   H11T15175   1.125   1.376   7.435 -0.9313  0.2166 -0.4049
  139OSM   C12S15176   1.087   1.406   7.634  0.1597 -0.6384 -0.5166
  139OSM   H12S15177   1.128   1.305   7.651 -0.8110 -0.5003  3.7602
  139OSM   H12T15178   0.976   1.399   7.639  0.1890 -0.4877  0.4235
  139OSM   C13S15179   1.140   1.488   7.758 -0.3163 -0.4062  0.0523
  139OSM   H13S15180   1.093   1.588   7.750 -0.9514 -0.7889 -1.3182
  139OSM   H13T15181   1.249   1.506   7.748 -0.0626 -2.1083 -0.5153
  139OSM   C14S15182   1.101   1.419   7.894  0.5835  0.7427  0.6576
  139OSM   H14S15183   1.137   1.314   7.897  0.6028  0.7505  0.7107
  139OSM   H14T15184   0.990   1.418   7.902  0.5657  0.1387  0.4078
  139OSM   C15S15185   1.154   1.481   8.023  0.4994 -0.6794 -0.0732
  139OSM   H15S15186   1.255   1.527   8.019 -0.7593  2.2660 -0.3530
  139OSM   H15T15187   1.151   1.406   8.105  0.5805 -1.1758 -0.5179
  139OSM   C16S15188   1.058   1.597   8.059  0.4531 -0.4475  0.4126
  139OSM   H16S15189   0.959   1.552   8.082  1.0780 -1.9226  0.3293
  139OSM   H16T15190   1.054   1.677   7.982 -1.0240 -0.8335  0.0655
  139OSM   C17S15191   1.111   1.663   8.182 -0.1768  0.6677 -0.8090
  139OSM   H17S15192   1.204   1.721   8.167  1.6717 -0.8871  3.1470
  139OSM   H17T15193   1.143   1.582   8.251 -1.4717 -0.2810 -1.2765
  139OSM   C18S15194   1.008   1.749   8.256  0.2320  0.1227 -0.2146
  139OSM   H18S15195   1.048   1.789   8.351 -0.8643 -0.0295  0.3258
  139OSM   H18T15196   0.909   1.699   8.270  0.9236 -1.1977  0.1074
  139OSM   H18U15197   0.992   1.844   8.200  1.0160  0.0724 -0.5280
  139OSM    C1F15198   0.807   1.727   6.541 -0.2675 -0.3484 -0.4474
  139OSM     OF15199   0.772   1.635   6.473 -0.6087  0.4568 -0.0774
  139OSM    C2F15200   0.710   1.827   6.581  1.1691 -0.5656  0.0774
  139OSM    H2F15201   0.682   1.881   6.488 -0.6364  2.3615  2.1597
  139OSM    H2G15202   0.740   1.910   6.649 -2.0287  1.5605 -0.8410
  139OSM    C3F15203   0.578   1.761   6.633 -0.9243 -0.6801  0.5277
  139OSM    H3F15204   0.591   1.688   6.715  1.2001  0.0311  0.8807
  139OSM    H3G15205   0.515   1.722   6.549 -2.2567  0.2963  1.0245
  139OSM    C4F15206   0.487   1.871   6.703  0.1356  0.6051 -0.1795
  139OSM    H4F15207   0.381   1.856   6.674  0.1290 -0.2347  0.2503
  139OSM    H4G15208   0.528   1.965   6.660  0.0467  0.1762 -1.2288
  139OSM    C5F15209   0.497   1.864   6.857 -0.2239 -0.3869  0.2550
  139OSM    H5F15210   0.600   1.890   6.888 -0.1632 -1.9647  1.5285
  139OSM    H5G15211   0.497   1.766   6.909  0.0815  0.8719  2.7542
  139OSM    C6F15212   0.386   1.947   6.927 -0.7618 -0.1769 -0.4786
  139OSM    H6F15213   0.295   1.883   6.927 -2.1807  1.6229  2.5744
  139OSM    H6G15214   0.364   2.039   6.869  2.2737 -0.0910 -1.6338
  139OSM    C7F15215   0.420   1.987   7.064  0.0977 -0.0829 -0.1376
  139OSM    H7F15216   0.494   2.068   7.050  1.6592 -1.0214  2.0266
  139OSM    H7G15217   0.468   1.907   7.125  0.1653  1.2935  1.6782
  139OSM    C8F15218   0.304   2.037   7.154  0.5696 -0.6027  0.4924
  139OSM    H8F15219   0.236   2.110   7.104 -0.1198  1.3042  3.8781
  139OSM    H8G15220   0.356   2.090   7.237  0.1044 -0.1381  0.4961
  139OSM    C9F15221   0.226   1.916   7.195 -0.3378  0.2532 -0.2787
  139OSM    H9F15222   0.189   1.856   7.111  1.5717 -2.2334  0.5254
  139OSM   C10F15223   0.206   1.869   7.325 -0.2623 -0.8196 -0.1347
  139OSM   H10F15224   0.150   1.777   7.344 -0.7844 -0.3462  0.6729
  139OSM   C11F15225   0.261   1.937   7.451  0.3995  0.2444 -0.2612
  139OSM   H11F15226   0.198   2.024   7.477  0.7733  0.6751 -0.7694
  139OSM   H11G15227   0.363   1.965   7.417  1.5963 -1.5906  1.5684
  139OSM   C12F15228   0.251   1.850   7.585 -0.4954 -0.2771 -0.4789
  139OSM   H12F15229   0.312   1.758   7.569 -1.4014 -0.7438 -1.3351
  139OSM   H12G15230   0.159   1.796   7.614 -0.4560  0.6052  1.4545
  139OSM   C13F15231   0.298   1.920   7.715 -0.2636  0.0536 -0.4901
  139OSM   H13F15232   0.225   2.002   7.731 -0.9582 -0.4832 -0.8791
  139OSM   H13G15233   0.399   1.966   7.711  0.2870 -1.1266 -0.4923
  139OSM   C14F15234   0.309   1.829   7.837 -0.2603  0.1872  0.1565
  139OSM   H14F15235   0.372   1.882   7.912  1.7423 -0.3322 -1.0674
  139OSM   H14G15236   0.362   1.736   7.806 -3.0898 -1.8284  0.9641
  139OSM   C15F15237   0.164   1.808   7.890 -0.0842  0.4662 -0.0585
  139OSM   H15F15238   0.094   1.777   7.809 -0.2813  2.2169 -0.5932
  139OSM   H15G15239   0.122   1.902   7.932 -2.4207  1.4622 -4.0483
  139OSM   C16F15240   0.164   1.697   7.999  0.0400  0.1427  0.0947
  139OSM   H16F15241   0.208   1.731   8.095  0.7429  0.0152 -0.1742
  139OSM   H16G15242   0.225   1.612   7.960 -1.8480 -0.6116 -1.3884
  139OSM   C17F15243   0.023   1.644   8.021 -0.0913  0.5384 -1.0795
  139OSM   H17F15244  -0.005   1.586   7.930 -0.8027 -1.4300  0.3435
  139OSM   H17G15245  -0.059   1.719   8.030 -0.7081 -0.1318 -0.9988
  139OSM   C18F15246   0.004   1.547   8.143  0.0317  0.6643 -0.5858
  139OSM   H18F15247   0.076   1.462   8.152  1.2309  1.8154  2.1012
  139OSM   H18G15248  -0.092   1.493   8.135 -0.0829  0.5873  0.9696
  139OSM   H18H15249  -0.010   1.611   8.234  1.7989  0.3236 -0.0328
  140OSM      N15250   1.435   3.233   6.010  0.3366  0.1543 -0.4264
  140OSM    C1515251   1.382   3.257   5.875 -0.1621 -0.0104 -0.2991
  140OSM   H15A15252   1.463   3.252   5.805  1.9132 -1.8828  2.0424
  140OSM   H15B15253   1.335   3.353   5.860 -0.3265  0.3342  2.0051
  140OSM   H15C15254   1.313   3.185   5.832 -2.6810  1.2604  1.3406
  140OSM    C1415255   1.488   3.089   6.018  0.1858  0.0202  0.6458
  140OSM   H14A15256   1.517   3.069   6.120  1.5265  1.5089  0.6077
  140OSM   H14B15257   1.568   3.070   5.948  2.0933  1.9789  2.1587
  140OSM   H14C15258   1.418   3.011   5.992  2.2910 -1.3628 -1.2096
  140OSM    C1315259   1.551   3.325   6.044 -0.0843  1.2042 -0.0520
  140OSM   H13A15260   1.615   3.313   5.959 -1.5582 -4.3486 -0.7226
  140OSM   H13B15261   1.595   3.291   6.136  1.2602 -1.9059 -1.7008
  140OSM   H13C15262   1.520   3.429   6.054  1.8568  2.0003 -1.7160
  140OSM    C1215263   1.323   3.249   6.110  0.0596  0.4042 -0.7225
  140OSM   H12A15264   1.240   3.181   6.093 -0.4603  0.2551  1.8894
  140OSM   H12B15265   1.271   3.344   6.098 -3.1216 -0.6072  2.8205
  140OSM    C1115266   1.355   3.226   6.262  0.3297  0.0910  1.1881
  140OSM   H11A15267   1.267   3.272   6.311 -0.4611  0.2226 -0.2998
  140OSM   H11B15268   1.438   3.294   6.289 -0.5892  1.2858  1.0578
  140OSM      P15269   1.281   2.974   6.307  0.1778 -0.6987 -0.1509
  140OSM    O1315270   1.186   2.973   6.193  0.0003 -0.5436 -0.0771
  140OSM    O1415271   1.346   2.844   6.346  0.3990  0.6559  0.2326
  140OSM    O1115272   1.189   3.030   6.425 -0.0503  0.5554  0.4239
  140OSM    O1215273   1.382   3.086   6.279 -0.3419 -0.1909  0.1223
  140OSM    C1S15274   1.227   2.990   6.559  0.6836  0.6131  0.6903
  140OSM    H1S15275   1.325   3.030   6.592  1.0255  0.5852 -0.2369
  140OSM    H1T15276   1.231   2.879   6.564 -1.6056  0.4001 -0.8550
  140OSM     NF15277   1.169   2.999   6.802  0.6156  0.1012  0.0545
  140OSM    HNF15278   1.158   2.905   6.833  1.8545  0.1791  0.8082
  140OSM    C2S15279   1.123   3.033   6.664 -0.3820 -0.1717  0.0896
  140OSM    H2S15280   1.098   3.141   6.672 -3.2093 -0.8385  1.8162
  140OSM    C3S15281   0.979   2.983   6.634  0.7825  0.4881  0.0076
  140OSM    H3S15282   0.992   2.873   6.628  0.4571  0.5245 -1.6686
  140OSM     O315283   0.928   3.025   6.506 -0.2277 -0.3423 -0.4495
  140OSM    HO315284   0.995   3.076   6.461 -1.9941  1.2295 -1.4499
  140OSM    C4S15285   0.880   3.017   6.738 -0.1229  0.4727 -0.3469
  140OSM    H4S15286   0.866   2.944   6.819 -0.5086  1.3388  0.3896
  140OSM    C5S15287   0.822   3.139   6.744  0.5937  0.4944 -0.4901
  140OSM    H5S15288   0.840   3.206   6.659 -1.4733  3.5712  1.2862
  140OSM    C6S15289   0.722   3.183   6.848  0.2021  0.4684 -0.1619
  140OSM    H6S15290   0.633   3.230   6.801 -0.2780  0.9443  1.1779
  140OSM    H6T15291   0.753   3.277   6.898 -3.0155  2.0400 -0.8153
  140OSM    C7S15292   0.678   3.077   6.949  0.3915 -0.0353 -0.0188
  140OSM    H7S15293   0.765   3.042   7.009  1.6515  0.7606 -1.3172
  140OSM    H7T15294   0.633   2.989   6.898 -1.8287  0.8563  0.2806
  140OSM    C8S15295   0.564   3.143   7.030  0.3165 -0.2895 -0.3973
  140OSM    H8S15296   0.477   3.148   6.962  1.0188 -1.2586 -1.3970
  140OSM    H8T15297   0.575   3.245   7.072 -1.4959  0.0947 -0.7651
  140OSM    C9S15298   0.528   3.059   7.152 -0.5448 -0.4316 -0.0900
  140OSM    H9S15299   0.541   2.950   7.136  0.7113 -0.8022  2.7660
  140OSM    H9T15300   0.429   3.083   7.196 -0.1511  0.4633  0.3334
  140OSM   C10S15301   0.633   3.085   7.272  0.1155  0.2247  0.2113
  140OSM   H10S15302   0.649   3.190   7.304 -0.5067  0.4749 -0.2834
  140OSM   H10T15303   0.730   3.040   7.240  0.4129  0.7237  0.3970
  140OSM   C11S15304   0.580   3.028   7.398  0.2273  0.5869 -0.1724
  140OSM   H11S15305   0.567   2.918   7.390 -0.9499  0.7959 -1.4757
  140OSM   H11T15306   0.481   3.072   7.422  0.0278  1.4148 -2.2973
  140OSM   C12S15307   0.671   3.040   7.524 -0.4075  0.3688  0.3534
  140OSM   H12S15308   0.692   3.146   7.551  2.6545  0.1655 -0.8037
  140OSM   H12T15309   0.771   3.005   7.490  0.1361  0.1167  2.1272
  140OSM   C13S15310   0.625   2.945   7.637  0.2711 -1.0481  0.4230
  140OSM   H13S15311   0.620   2.842   7.598 -2.0849 -1.2803  1.1766
  140OSM   H13T15312   0.528   2.983   7.677 -1.2526 -4.4494  0.2627
  140OSM   C14S15313   0.727   2.939   7.755  0.2934 -0.0023  0.4044
  140OSM   H14S15314   0.772   3.035   7.789  0.2444 -0.2661  1.2265
  140OSM   H14T15315   0.817   2.882   7.722  0.7801  1.1473 -0.3308
  140OSM   C15S15316   0.669   2.870   7.885  0.1155  0.1792 -0.3030
  140OSM   H15S15317   0.618   2.780   7.845  0.9378 -0.5901  0.3394
  140OSM   H15T15318   0.591   2.935   7.929 -0.4342  0.8210 -2.1388
  140OSM   C16S15319   0.771   2.838   7.991 -0.3774 -0.3303  1.2950
  140OSM   H16S15320   0.815   2.935   8.020  1.3121 -1.1789  1.6893
  140OSM   H16T15321   0.837   2.760   7.947 -2.1097 -2.4704  2.3054
  140OSM   C17S15322   0.708   2.759   8.100 -0.6918 -0.6547 -0.1944
  140OSM   H17S15323   0.674   2.662   8.059 -2.7440  0.3358 -0.9611
  140OSM   H17T15324   0.621   2.819   8.133  0.3356  0.2499  0.9885
  140OSM   C18S15325   0.819   2.746   8.211 -0.0599  0.0250 -0.2256
  140OSM   H18S15326   0.892   2.665   8.193 -0.2792 -0.6867  1.7957
  140OSM   H18T15327   0.773   2.728   8.311  0.3838  1.8698  0.3449
  140OSM   H18U15328   0.874   2.842   8.224 -0.7960  0.3319  0.8488
  140OSM    C1F15329   1.271   3.055   6.872  0.7632  0.1726 -0.6844
  140OSM     OF15330   1.329   3.151   6.831 -0.2192 -0.0478 -0.1318
  140OSM    C2F15331   1.313   2.991   7.002  0.5538 -0.0493 -0.2616
  140OSM    H2F15332   1.278   2.886   7.013  1.1691 -0.2448 -0.1068
  140OSM    H2G15333   1.255   3.043   7.082 -2.8561 -0.0554 -2.5181
  140OSM    C3F15334   1.468   2.993   7.024 -0.4401 -0.1004  0.7379
  140OSM    H3F15335   1.497   3.096   7.055 -0.0069 -0.4214  1.4280
  140OSM    H3G15336   1.514   2.972   6.925 -1.0570  1.5525  0.0707
  140OSM    C4F15337   1.509   2.898   7.134  0.9657 -0.5775  0.5154
  140OSM    H4F15338   1.619   2.903   7.151  1.0004 -0.1243  0.1789
  140OSM    H4G15339   1.488   2.794   7.102 -2.3735  0.6101 -1.7095
  140OSM    C5F15340   1.441   2.913   7.267 -0.0339  0.1574  0.0723
  140OSM    H5F15341   1.335   2.886   7.246 -0.2592  0.6250  0.5751
  140OSM    H5G15342   1.440   3.018   7.304 -1.1902 -0.0801  0.7604
  140OSM    C6F15343   1.514   2.829   7.367  0.1551 -0.6414  0.0431
  140OSM    H6F15344   1.615   2.868   7.389 -0.1733  0.7128 -0.7486
  140OSM    H6G15345   1.531   2.734   7.312  0.1271 -0.7753  0.2675
  140OSM    C7F15346   1.432   2.812   7.498 -0.2875  0.1587  0.6099
  140OSM    H7F15347   1.341   2.756   7.469 -0.6243  0.8681  0.2508
  140OSM    H7G15348   1.412   2.909   7.549 -0.0167 -0.5091  2.0346
  140OSM    C8F15349   1.510   2.717   7.599 -0.1743 -0.0480  0.1384
  140OSM    H8F15350   1.492   2.608   7.586  0.1375  0.2113 -3.3969
  140OSM    H8G15351   1.458   2.735   7.696 -2.0266 -4.5768  0.2454
  140OSM    C9F15352   1.662   2.716   7.584 -0.6929 -0.0845  0.3140
  140OSM    H9F15353   1.715   2.654   7.510 -0.3035  1.4223 -0.7202
  140OSM   C10F15354   1.738   2.780   7.674 -0.0942  0.4787  0.9984
  140OSM   H10F15355   1.845   2.767   7.652 -0.9931 -3.1907 -2.5565
  140OSM   C11F15356   1.699   2.866   7.795 -0.7660  0.9231 -0.1474
  140OSM   H11F15357   1.589   2.865   7.814 -0.4259  0.5911  2.0349
  140OSM   H11G15358   1.746   2.966   7.783  2.3479 -0.3495  0.5304
  140OSM   C12F15359   1.775   2.818   7.926 -0.5407 -0.1709  0.0449
  140OSM   H12F15360   1.883   2.833   7.907 -0.9974  1.8550 -1.3126
  140OSM   H12G15361   1.747   2.712   7.945  1.4681 -0.7857 -0.1687
  140OSM   C13F15362   1.740   2.910   8.048 -0.0795 -0.3570 -0.3248
  140OSM   H13F15363   1.629   2.919   8.046  0.0384  1.1159 -1.4654
  140OSM   H13G15364   1.788   3.009   8.034 -1.0487 -0.1312 -2.3999
  140OSM   C14F15365   1.775   2.850   8.191 -0.3836 -0.2952  0.3523
  140OSM   H14F15366   1.882   2.820   8.197 -0.5426 -0.5930  2.4000
  140OSM   H14G15367   1.714   2.757   8.197 -1.4990  0.4994  1.7529
  140OSM   C15F15368   1.740   2.948   8.295  0.6081 -0.2665  0.1363
  140OSM   H15F15369   1.651   3.009   8.268  0.2697 -1.4192 -1.4703
  140OSM   H15G15370   1.828   3.015   8.307 -1.1718  2.1504  0.6080
  140OSM   C16F15371   1.704   2.887   8.425  0.2301 -0.1516 -0.1747
  140OSM   H16F15372   1.622   2.814   8.413 -0.5530  0.7128 -0.1469
  140OSM   H16G15373   1.685   2.972   8.494  0.0348 -1.6597  1.6984
  140OSM   C17F15374   1.819   2.806   8.486 -0.0282 -0.0120 -0.0064
  140OSM   H17F15375   1.917   2.857   8.489  0.6140 -1.2299  0.3369
  140OSM   H17G15376   1.837   2.718   8.420 -1.8807  0.4193 -1.1761
  140OSM   C18F15377   1.790   2.761   8.633 -0.6997 -0.3040 -0.5202
  140OSM   H18F15378   1.779   2.855   8.692 -3.4951  0.4840 -2.0887
  140OSM   H18G15379   1.877   2.701   8.666 -1.9350 -3.1315 -2.0417
  140OSM   H18H15380   1.695   2.704   8.645 -1.0888  0.2549 -0.8968
  141OSM      N15381   0.245   4.665   6.019 -0.7768  0.2428  0.1762
  141OSM    C1515382   0.282   4.799   6.070 -0.6731 -0.9579 -1.1102
  141OSM   H15A15383   0.211   4.847   6.136  0.1298 -1.9323  0.5042
  141OSM   H15B15384   0.286   4.873   5.991  0.2756 -0.1373 -0.3102
  141OSM   H15C15385   0.373   4.796   6.127 -0.5995 -2.5806 -1.2712
  141OSM    C1415386   0.117   4.671   5.949 -0.6362  0.7379  0.6064
  141OSM   H14A15387   0.120   4.744   5.870 -1.3323 -0.7675 -0.8676
  141OSM   H14B15388   0.037   4.701   6.015 -3.8310 -2.9750 -1.1391
  141OSM   H14C15389   0.101   4.574   5.904  2.0123 -0.2221  1.5543
  141OSM    C1315390   0.348   4.625   5.914 -0.0001  0.6963 -0.2583
  141OSM   H13A15391   0.451   4.612   5.946  0.2549 -1.6615 -1.6939
  141OSM   H13B15392   0.350   4.701   5.837  1.1949  1.2091  0.2467
  141OSM   H13C15393   0.329   4.533   5.860 -0.3554  0.0175  1.0018
  141OSM    C1215394   0.237   4.558   6.129  0.0822  0.2567 -0.2617
  141OSM   H12A15395   0.329   4.552   6.186 -0.7168 -2.9058  0.9277
  141OSM   H12B15396   0.208   4.466   6.080 -1.9317  0.3670  0.6309
  141OSM    C1115397   0.135   4.582   6.243  0.0237  0.0782 -0.1858
  141OSM   H11A15398   0.151   4.683   6.286 -1.1814 -0.1872  0.9304
  141OSM   H11B15399   0.159   4.513   6.327 -0.0069  2.5958  2.0019
  141OSM      P15400  -0.090   4.462   6.215  0.3143  0.1632  0.1692
  141OSM    O1315401  -0.214   4.470   6.139 -0.4063  0.6606 -0.4578
  141OSM    O1415402  -0.016   4.341   6.186  0.2912  0.3320  1.1037
  141OSM    O1115403  -0.139   4.464   6.367 -0.1393  0.7748  0.0359
  141OSM    O1215404   0.003   4.588   6.192  0.6685  1.1127 -0.5086
  141OSM    C1S15405  -0.060   4.402   6.467 -0.4199 -0.4080  0.8135
  141OSM    H1S15406   0.048   4.428   6.462 -0.4941 -0.2727 -0.9661
  141OSM    H1T15407  -0.063   4.292   6.454  1.3136 -0.2927 -0.9764
  141OSM     NF15408  -0.004   4.413   6.701 -0.2588  0.0842 -0.0295
  141OSM    HNF15409  -0.038   4.348   6.769  2.1403 -0.8869  0.3584
  141OSM    C2S15410  -0.096   4.460   6.603  0.0862 -0.4990 -0.4643
  141OSM    H2S15411  -0.082   4.570   6.601 -0.7102 -0.3971 -0.4391
  141OSM    C3S15412  -0.244   4.447   6.644  0.1447  0.0021 -0.1631
  141OSM    H3S15413  -0.277   4.342   6.660 -1.3967  0.4824 -0.0586
  141OSM     O315414  -0.338   4.482   6.540  0.1944 -0.1606  0.1907
  141OSM    HO315415  -0.279   4.470   6.465  1.1763 -3.6980  1.3635
  141OSM    C4S15416  -0.273   4.516   6.771  0.0666 -0.1023  0.5420
  141OSM    H4S15417  -0.249   4.464   6.865 -2.5187  0.3975  1.5557
  141OSM    C5S15418  -0.337   4.636   6.776 -0.8485  0.2441 -0.7424
  141OSM    H5S15419  -0.379   4.686   6.687  1.0325 -3.0541 -3.7957
  141OSM    C6S15420  -0.380   4.702   6.902 -0.2161 -0.2875  0.8488
  141OSM    H6S15421  -0.479   4.752   6.900  0.9954  2.3507 -2.4261
  141OSM    H6T15422  -0.322   4.795   6.919 -3.0269  1.3138  2.4638
  141OSM    C7S15423  -0.356   4.631   7.038  0.0306  1.2808 -0.0192
  141OSM    H7S15424  -0.263   4.570   7.039 -0.9881 -0.5320 -2.9614
  141OSM    H7T15425  -0.431   4.549   7.044  0.8718  0.5241  0.4180
  141OSM    C8S15426  -0.377   4.722   7.158 -0.0937  0.9165 -0.7987
  141OSM    H8S15427  -0.481   4.758   7.169 -1.9207 -2.8736 -3.6669
  141OSM    H8T15428  -0.305   4.805   7.141 -0.3748  0.9528 -1.8711
  141OSM    C9S15429  -0.341   4.645   7.287 -0.0880  0.5535  0.0659
  141OSM    H9S15430  -0.236   4.609   7.287  0.0173  0.8545 -0.1691
  141OSM    H9T15431  -0.417   4.564   7.277 -0.4437  0.9981 -0.9267
  141OSM   C10S15432  -0.371   4.731   7.415  0.7701  0.4225 -0.3595
  141OSM   H10S15433  -0.471   4.780   7.418  1.6131  2.1824  0.4648
  141OSM   H10T15434  -0.291   4.807   7.400 -0.8877  1.8692 -2.5819
  141OSM   C11S15435  -0.369   4.653   7.548 -0.5550  0.6002  0.6387
  141OSM   H11S15436  -0.264   4.620   7.561  0.3451  1.7673 -2.7032
  141OSM   H11T15437  -0.432   4.561   7.543 -0.2869  0.2048  3.1140
  141OSM   C12S15438  -0.415   4.725   7.677  0.0593  0.1025  0.0751
  141OSM   H12S15439  -0.522   4.749   7.662 -0.2957 -1.3434  0.1114
  141OSM   H12T15440  -0.349   4.813   7.687  0.9958 -0.7402  2.0070
  141OSM   C13S15441  -0.406   4.641   7.807 -0.4835 -0.0360  0.5976
  141OSM   H13S15442  -0.297   4.641   7.831 -0.6095 -2.0449  1.3526
  141OSM   H13T15443  -0.448   4.539   7.795  0.5171 -0.3236 -0.7432
  141OSM   C14S15444  -0.473   4.712   7.932 -0.0585 -0.3107 -0.3887
  141OSM   H14S15445  -0.582   4.727   7.912 -1.0705 -0.6885  3.8633
  141OSM   H14T15446  -0.429   4.809   7.962 -0.0585 -1.1399  2.6130
  141OSM   C15S15447  -0.467   4.633   8.065  0.7188 -0.3799  0.1954
  141OSM   H15S15448  -0.362   4.653   8.095  1.8270 -3.5153 -1.1584
  141OSM   H15T15449  -0.481   4.523   8.063  0.6799 -0.4336  1.7947
  141OSM   C16S15450  -0.560   4.701   8.171 -0.4474  0.2540  0.1119
  141OSM   H16S15451  -0.664   4.690   8.133  0.5829  2.3486 -3.9164
  141OSM   H16T15452  -0.543   4.810   8.185  1.0763 -0.1152  1.5564
  141OSM   C17S15453  -0.553   4.640   8.309 -1.0310 -0.1617 -0.0408
  141OSM   H17S15454  -0.452   4.655   8.353 -1.2665 -1.1648  0.8940
  141OSM   H17T15455  -0.562   4.530   8.294  1.6032 -0.2664 -1.3403
  141OSM   C18S15456  -0.661   4.683   8.409 -0.1761  0.3836 -1.0011
  141OSM   H18S15457  -0.649   4.793   8.423 -1.2592  0.5875 -1.5610
  141OSM   H18T15458  -0.637   4.637   8.507  0.5082 -1.3613 -1.9368
  141OSM   H18U15459  -0.765   4.666   8.376 -0.2307  2.5613 -2.1342
  141OSM    C1F15460   0.120   4.465   6.706 -0.6898 -0.1001 -0.2870
  141OSM     OF15461   0.178   4.524   6.617 -0.4908  0.8228 -0.1184
  141OSM    C2F15462   0.187   4.449   6.839  0.5528  0.3555  0.1605
  141OSM    H2F15463   0.199   4.340   6.853 -1.7067  0.3932  3.3338
  141OSM    H2G15464   0.116   4.497   6.908 -0.9035 -0.0828 -0.9860
  141OSM    C3F15465   0.319   4.521   6.852  0.7077 -0.4914 -0.5534
  141OSM    H3F15466   0.295   4.627   6.830 -1.2864 -0.9796 -0.9784
  141OSM    H3G15467   0.394   4.488   6.777  1.3854 -2.3208  0.8566
  141OSM    C4F15468   0.383   4.519   6.990  0.5394  0.2196  0.3161
  141OSM    H4F15469   0.425   4.421   7.023  0.8357  0.6145  1.1309
  141OSM    H4G15470   0.302   4.548   7.060 -1.7655 -0.3520 -1.9594
  141OSM    C5F15471   0.499   4.619   7.010  0.5347  0.4990 -0.4963
  141OSM    H5F15472   0.460   4.721   6.990 -3.1637 -0.9459 -1.5563
  141OSM    H5G15473   0.575   4.600   6.931  0.1226  0.2032 -0.8237
  141OSM    C6F15474   0.576   4.616   7.154  0.3837  0.1921  0.4684
  141OSM    H6F15475   0.640   4.706   7.158 -1.3193  1.4172  1.0855
  141OSM    H6G15476   0.637   4.523   7.159  0.9744  0.3127 -2.5739
  141OSM    C7F15477   0.471   4.622   7.269  0.6109 -0.1114  1.1556
  141OSM    H7F15478   0.418   4.524   7.269 -0.5912  0.5202  1.2330
  141OSM    H7G15479   0.387   4.692   7.249 -2.1454 -3.1176  1.4684
  141OSM    C8F15480   0.539   4.663   7.402  0.5351 -0.3324 -0.3723
  141OSM    H8F15481   0.464   4.686   7.480  0.7036 -1.5192  0.1635
  141OSM    H8G15482   0.602   4.750   7.376  0.2809 -0.3528 -1.0949
  141OSM    C9F15483   0.631   4.555   7.456  0.1243  0.6120  0.4987
  141OSM    H9F15484   0.693   4.499   7.384 -0.5838  0.1183  0.2661
  141OSM   C10F15485   0.648   4.510   7.578  0.7070  0.4548 -0.1192
  141OSM   H10F15486   0.718   4.426   7.588 -1.1102 -0.9721  1.2984
  141OSM   C11F15487   0.569   4.549   7.702  0.3256  0.4153 -0.3077
  141OSM   H11F15488   0.471   4.585   7.664  1.8127  3.7507 -1.3338
  141OSM   H11G15489   0.614   4.640   7.747 -0.5326  1.1760 -0.9589
  141OSM   C12F15490   0.547   4.434   7.802  0.5500 -0.6260 -0.6887
  141OSM   H12F15491   0.647   4.389   7.825  1.1114  0.4085 -1.0524
  141OSM   H12G15492   0.486   4.349   7.763  0.8374 -0.8058 -0.7544
  141OSM   C13F15493   0.483   4.476   7.934 -0.2438  0.7901  0.0884
  141OSM   H13F15494   0.461   4.384   7.992 -1.8022  0.0735 -1.5243
  141OSM   H13G15495   0.380   4.509   7.907  0.6330  1.0927 -3.3402
  141OSM   C14F15496   0.559   4.574   8.011 -0.5106  0.2207 -0.3299
  141OSM   H14F15497   0.547   4.667   7.951 -1.9426 -0.6561 -1.4721
  141OSM   H14G15498   0.663   4.543   8.031 -0.4575  0.6522  0.0736
  141OSM   C15F15499   0.496   4.609   8.143  0.2997  0.3919  0.4866
  141OSM   H15F15500   0.533   4.703   8.189  0.7610  0.1888  0.5305
  141OSM   H15G15501   0.517   4.526   8.213  1.2470  0.6219  0.4852
  141OSM   C16F15502   0.347   4.630   8.121  0.6444  0.0285  0.6020
  141OSM   H16F15503   0.291   4.538   8.096  0.4011 -0.0992  1.5458
  141OSM   H16G15504   0.322   4.700   8.038 -0.5111 -0.7832  0.2383
  141OSM   C17F15505   0.264   4.677   8.239 -0.2798 -0.3850  0.1114
  141OSM   H17F15506   0.157   4.690   8.211 -1.4573  0.0418  4.2341
  141OSM   H17G15507   0.288   4.776   8.283 -0.3378 -1.1486  1.9431
  141OSM   C18F15508   0.279   4.590   8.365 -0.2646 -0.4313 -0.4495
  141OSM   H18F15509   0.191   4.599   8.432  0.2213 -0.5270  0.2051
  141OSM   H18G15510   0.376   4.599   8.419 -0.0831 -0.9842 -0.6715
  141OSM   H18H15511   0.287   4.489   8.319 -0.4675 -0.0415 -1.3745
  142OSM      N15512   1.864   6.282   6.222  0.7201  0.0476 -0.3416
  142OSM    C1515513   1.875   6.377   6.103  0.5266 -0.1935  0.6598
  142OSM   H15A15514   1.780   6.373   6.052  0.1959 -1.0818  1.3120
  142OSM   H15B15515   1.945   6.332   6.033  1.3165 -0.0222  1.3166
  142OSM   H15C15516   1.908   6.476   6.129  0.9647 -0.2437  0.3212
  142OSM    C1415517   1.731   6.308   6.294 -0.3390 -0.5734  0.4488
  142OSM   H14A15518   1.673   6.222   6.323 -0.3537  0.2089  3.0221
  142OSM   H14B15519   1.666   6.355   6.222 -0.4498  0.5662  1.2612
  142OSM   H14C15520   1.751   6.376   6.376  1.1357 -0.5123  0.0718
  142OSM    C1315521   1.857   6.146   6.160  0.3508  0.0617  0.0051
  142OSM   H13A15522   1.758   6.125   6.123  0.8731 -0.4051 -1.2012
  142OSM   H13B15523   1.881   6.073   6.235  0.8542  0.8853  0.6608
  142OSM   H13C15524   1.931   6.143   6.081  0.5950 -0.0402  0.2383
  142OSM    C1215525   1.980   6.300   6.314 -0.6073  0.5002  0.0895
  142OSM   H12A15526   2.000   6.405   6.332  1.9204 -0.0638  0.9392
  142OSM   H12B15527   2.068   6.283   6.255 -1.4876 -0.1937 -1.0690
  142OSM    C1115528   1.998   6.210   6.435 -0.0529  0.6556 -0.2782
  142OSM   H11A15529   1.895   6.198   6.475  0.1806  0.3692  0.2500
  142OSM   H11B15530   2.062   6.262   6.510 -1.6477  2.7879 -0.3070
  142OSM      P15531   2.177   6.041   6.332  0.2783 -0.1340  0.0329
  142OSM    O1315532   2.151   5.934   6.231  0.0756  0.3558 -0.7721
  142OSM    O1415533   2.246   6.159   6.286 -0.9548 -0.6969  0.1783
  142OSM    O1115534   2.255   5.960   6.443 -0.3685  0.2528 -0.4267
  142OSM    O1215535   2.042   6.076   6.407  0.5610 -0.2782  0.2155
  142OSM    C1S15536   2.299   5.996   6.576  0.7239 -0.8076  0.5440
  142OSM    H1S15537   2.316   6.105   6.589 -0.5223 -0.3996 -0.8864
  142OSM    H1T15538   2.400   5.954   6.594  0.7049 -0.7761  0.7238
  142OSM     NF15539   2.242   5.994   6.818 -1.1252 -0.1149 -0.9702
  142OSM    HNF15540   2.258   5.921   6.884 -2.6378 -0.5134 -1.0224
  142OSM    C2S15541   2.202   5.948   6.687 -0.7673  0.8088  0.0230
  142OSM    H2S15542   2.109   5.996   6.649 -1.0764 -0.2911 -0.6754
  142OSM    C3S15543   2.195   5.790   6.672 -0.0294 -0.0443 -0.1393
  142OSM    H3S15544   2.297   5.750   6.692 -0.0777 -0.1598 -0.1237
  142OSM     O315545   2.156   5.737   6.544 -0.2526  0.5272 -0.1780
  142OSM    HO315546   2.158   5.813   6.485 -1.9200  1.1473  0.4901
  142OSM    C4S15547   2.093   5.739   6.772 -0.1793  0.2842  0.5118
  142OSM    H4S15548   1.989   5.772   6.759 -0.1697 -0.0577 -0.5338
  142OSM    C5S15549   2.123   5.644   6.869  0.5150 -0.5569 -0.2141
  142OSM    H5S15550   2.228   5.611   6.877  0.9169  0.9709  1.3682
  142OSM    C6S15551   2.016   5.601   6.971  0.0005 -0.1118  0.3018
  142OSM    H6S15552   1.991   5.496   6.944 -0.7061  0.0384  0.3642
  142OSM    H6T15553   1.924   5.662   6.968  0.0905  0.0708  1.0312
  142OSM    C7S15554   2.081   5.607   7.108  0.2819  0.0645  0.0174
  142OSM    H7S15555   2.121   5.707   7.133 -0.0263  0.4698 -1.0518
  142OSM    H7T15556   2.174   5.548   7.117  0.4011  0.2337 -0.1147
  142OSM    C8S15557   1.992   5.560   7.230  0.5825 -0.2593  0.0663
  142OSM    H8S15558   1.976   5.450   7.221  2.2459 -0.5391  0.3176
  142OSM    H8T15559   1.893   5.610   7.232 -0.0116 -1.3660 -0.6449
  142OSM    C9S15560   2.068   5.579   7.363  0.4769  0.6397  0.8140
  142OSM    H9S15561   2.074   5.688   7.385  1.3135  1.0137 -0.9842
  142OSM    H9T15562   2.168   5.531   7.367  1.2331  2.1489  1.1344
  142OSM   C10S15563   1.995   5.527   7.482 -0.1003 -0.5372 -0.5277
  142OSM   H10S15564   1.963   5.422   7.461 -0.5567 -0.2305 -1.4123
  142OSM   H10T15565   1.899   5.582   7.492  0.7339  0.7638  0.7618
  142OSM   C11S15566   2.069   5.556   7.616  0.1651  0.2807  0.4016
  142OSM   H11S15567   2.063   5.664   7.642  1.8563  0.4920  0.0650
  142OSM   H11T15568   2.176   5.539   7.590 -0.0720 -1.6259  0.5085
  142OSM   C12S15569   2.027   5.473   7.739  0.1805  0.7918 -0.9183
  142OSM   H12S15570   2.033   5.367   7.706 -0.3630  0.6219 -0.4776
  142OSM   H12T15571   1.925   5.500   7.775 -1.1937 -3.2264 -1.3085
  142OSM   C13S15572   2.107   5.500   7.872  0.3102  0.3105  0.5588
  142OSM   H13S15573   2.215   5.495   7.850  0.6486 -1.3683  2.3295
  142OSM   H13T15574   2.084   5.414   7.938 -0.4061  1.2865  1.6306
  142OSM   C14S15575   2.057   5.628   7.939 -0.0259 -0.3697  0.3051
  142OSM   H14S15576   1.950   5.620   7.967  0.4954  0.8229  2.8635
  142OSM   H14T15577   2.067   5.717   7.873 -0.6649  0.0891  0.8127
  142OSM   C15S15578   2.129   5.651   8.066 -0.8266 -0.2411  0.4436
  142OSM   H15S15579   2.087   5.745   8.108 -0.7344  0.2280 -0.4994
  142OSM   H15T15580   2.240   5.647   8.061 -0.8804 -1.5377 -0.2095
  142OSM   C16S15581   2.100   5.545   8.173  0.3826  0.2438  0.0260
  142OSM   H16S15582   2.140   5.444   8.152  1.2710  1.0081 -2.3423
  142OSM   H16T15583   1.990   5.535   8.183  0.5943 -0.3147  2.2761
  142OSM   C17S15584   2.156   5.591   8.304  0.6410 -0.8658 -0.8286
  142OSM   H17S15585   2.121   5.694   8.328 -0.0295 -0.5633 -2.8597
  142OSM   H17T15586   2.266   5.596   8.285  0.4485 -2.3327 -2.4972
  142OSM   C18S15587   2.135   5.499   8.423  0.0441 -0.0570 -0.3893
  142OSM   H18S15588   2.142   5.399   8.376  1.2397 -0.1388 -0.0618
  142OSM   H18T15589   2.033   5.518   8.463  0.1902 -0.1042  0.0092
  142OSM   H18U15590   2.224   5.508   8.489  0.2845 -0.8171 -0.6086
  142OSM    C1F15591   2.238   6.124   6.852  0.2342 -0.6596  0.3608
  142OSM     OF15592   2.175   6.204   6.784 -0.8343 -0.3929  0.0366
  142OSM    C2F15593   2.299   6.163   6.986  0.3709  0.2273  0.2077
  142OSM    H2F15594   2.383   6.233   6.964  2.4889 -2.4148 -0.6002
  142OSM    H2G15595   2.336   6.072   7.038 -1.3503  0.4267  1.9041
  142OSM    C3F15596   2.192   6.241   7.074 -0.5701  0.1405  0.2001
  142OSM    H3F15597   2.122   6.170   7.122  0.7039  0.8759  3.4302
  142OSM    H3G15598   2.135   6.318   7.019 -0.5451 -0.5194 -0.7811
  142OSM    C4F15599   2.246   6.326   7.185 -0.5306  0.9063  0.1747
  142OSM    H4F15600   2.285   6.420   7.142  1.7511  0.2069  0.5461
  142OSM    H4G15601   2.321   6.264   7.239  0.1031  1.3088 -0.2380
  142OSM    C5F15602   2.148   6.367   7.297 -0.6331  0.2317 -0.4258
  142OSM    H5F15603   2.105   6.281   7.353 -0.0585  0.1918 -0.0397
  142OSM    H5G15604   2.059   6.415   7.250 -0.9934  0.4531  0.4484
  142OSM    C6F15605   2.210   6.464   7.391 -0.1544  0.1025  0.7096
  142OSM    H6F15606   2.225   6.557   7.332 -0.5410  1.0896  2.0945
  142OSM    H6G15607   2.312   6.426   7.415  0.0085  0.0213 -0.0822
  142OSM    C7F15608   2.116   6.493   7.509  0.3375 -0.4620  0.0627
  142OSM    H7F15609   2.014   6.509   7.469 -0.3513 -1.0961  1.5061
  142OSM    H7G15610   2.129   6.590   7.561  0.2415  0.0921 -0.9335
  142OSM    C8F15611   2.099   6.390   7.619 -0.0793  0.1431 -0.3622
  142OSM    H8F15612   2.194   6.394   7.676 -1.0996  0.1180  1.4401
  142OSM    H8G15613   2.088   6.287   7.577  1.0246  0.2286 -0.8807
  142OSM    C9F15614   1.980   6.416   7.707 -0.0178 -0.1728  0.1993
  142OSM    H9F15615   1.891   6.462   7.663 -0.3557 -0.2633  0.7744
  142OSM   C10F15616   1.973   6.372   7.837  0.0625 -0.3630  0.4185
  142OSM   H10F15617   1.875   6.392   7.885  0.1697  0.2667  0.3833
  142OSM   C11F15618   2.065   6.286   7.915 -0.5219 -0.6578  0.1962
  142OSM   H11F15619   2.169   6.289   7.877  0.0284  1.6611  1.6440
  142OSM   H11G15620   2.025   6.183   7.907 -0.3995 -0.5767 -2.1686
  142OSM   C12F15621   2.071   6.341   8.058  0.0925 -0.6406 -0.5904
  142OSM   H12F15622   2.137   6.269   8.110 -1.7138 -2.1536 -0.2763
  142OSM   H12G15623   1.976   6.332   8.115  0.6700  1.8489  0.8955
  142OSM   C13F15624   2.142   6.477   8.072  0.0434  0.0305  0.1129
  142OSM   H13F15625   2.101   6.546   7.995  0.7593  0.3763  0.0325
  142OSM   H13G15626   2.252   6.482   8.063 -0.1099 -0.0124 -2.9994
  142OSM   C14F15627   2.117   6.553   8.206  0.3070 -0.0580  0.2078
  142OSM   H14F15628   2.132   6.491   8.297 -1.2801 -0.2190  0.3815
  142OSM   H14G15629   2.012   6.587   8.201  0.0488 -1.0361 -2.0344
  142OSM   C15F15630   2.215   6.670   8.229 -0.5527 -0.0086 -0.0270
  142OSM   H15F15631   2.196   6.751   8.155 -1.2501 -1.0872 -1.0513
  142OSM   H15G15632   2.320   6.636   8.216 -0.2532  1.0115 -0.3716
  142OSM   C16F15633   2.199   6.726   8.374  0.4258 -0.1450  0.2157
  142OSM   H16F15634   2.213   6.643   8.446  0.9967 -1.2295 -1.1044
  142OSM   H16G15635   2.093   6.754   8.389  0.4883  0.8177 -0.9257
  142OSM   C17F15636   2.282   6.849   8.400  0.3057 -0.5304  0.0772
  142OSM   H17F15637   2.299   6.863   8.509  1.6764 -0.3076 -0.1391
  142OSM   H17G15638   2.225   6.936   8.363 -1.8172 -2.0564 -0.4303
  142OSM   C18F15639   2.425   6.851   8.331  0.2792 -0.3343 -0.7369
  142OSM   H18F15640   2.464   6.955   8.333 -1.0601  0.1735  0.8340
  142OSM   H18G15641   2.413   6.823   8.224 -1.4690  2.1730 -1.2737
  142OSM   H18H15642   2.493   6.783   8.386  0.8478 -0.5408 -1.6692
  143OSM      N15643   0.901   3.746   6.235 -0.4264  0.8328  0.0580
  143OSM    C1515644   0.859   3.881   6.255  0.3595  1.0154  0.0904
  143OSM   H15A15645   0.940   3.954   6.251  0.0931  1.2957 -0.2010
  143OSM   H15B15646   0.816   3.895   6.354  1.3019 -0.5355  0.7528
  143OSM   H15C15647   0.781   3.919   6.191  1.3184  3.1624  0.0732
  143OSM    C1415648   0.781   3.657   6.237  0.3234  0.3013  0.4124
  143OSM   H14A15649   0.811   3.558   6.269 -1.5428 -0.5337 -0.3248
  143OSM   H14B15650   0.728   3.659   6.144 -0.0867 -1.8957  0.5429
  143OSM   H14C15651   0.706   3.685   6.310  0.0725 -0.9869  0.6691
  143OSM    C1315652   0.965   3.733   6.105 -0.0018 -0.3010  0.1456
  143OSM   H13A15653   0.955   3.635   6.061  0.0357  0.4755 -1.6957
  143OSM   H13B15654   1.071   3.754   6.108 -0.0022  0.0124 -1.2911
  143OSM   H13C15655   0.933   3.805   6.031  2.2979  0.7885  0.1251
  143OSM    C1215656   1.001   3.724   6.348  0.2593  0.2040  0.0159
  143OSM   H12A15657   1.029   3.619   6.346  2.5015  0.7062  1.2644
  143OSM   H12B15658   0.957   3.743   6.445  2.2451  0.8043  0.8627
  143OSM    C1115659   1.135   3.799   6.367  0.2797  0.0868  0.3295
  143OSM   H11A15660   1.178   3.772   6.466 -1.3716  0.2950  1.1429
  143OSM   H11B15661   1.111   3.907   6.384  0.1114  0.2815 -1.0235
  143OSM      P15662   1.296   3.634   6.237  0.1631 -0.0396 -0.5591
  143OSM    O1315663   1.236   3.557   6.122 -0.4222  0.2861  0.0027
  143OSM    O1415664   1.439   3.665   6.231 -0.2872 -0.9895 -0.3713
  143OSM    O1115665   1.261   3.548   6.368 -0.0655  0.1243 -0.0583
  143OSM    O1215666   1.225   3.779   6.258  0.1269 -0.1835 -0.1745
  143OSM    C1S15667   1.364   3.524   6.467  0.0010 -0.0508 -0.1226
  143OSM    H1S15668   1.428   3.613   6.486  0.9907 -1.0730  1.5622
  143OSM    H1T15669   1.428   3.441   6.431  0.0933 -0.2891  0.5851
  143OSM     NF15670   1.409   3.378   6.663  0.4017 -0.2562 -0.4234
  143OSM    HNF15671   1.371   3.292   6.697 -0.2043  0.2155  0.1135
  143OSM    C2S15672   1.315   3.477   6.610 -0.3230 -0.4423 -0.3747
  143OSM    H2S15673   1.317   3.572   6.668  0.4178 -0.0634 -0.9927
  143OSM    C3S15674   1.165   3.426   6.621 -0.6251 -0.8192  0.1454
  143OSM    H3S15675   1.160   3.331   6.564 -0.3937 -0.0859 -1.1225
  143OSM     O315676   1.072   3.499   6.537  0.0151 -0.1593 -0.7910
  143OSM    HO315677   1.138   3.541   6.480 -1.5918  0.6189 -2.1663
  143OSM    C4S15678   1.117   3.405   6.765  0.6445  0.2592  0.1291
  143OSM    H4S15679   1.138   3.302   6.797 -2.4404 -1.3709 -2.4448
  143OSM    C5S15680   1.056   3.493   6.846 -0.7530 -0.8160 -0.4471
  143OSM    H5S15681   1.042   3.598   6.817  0.9597 -0.2096  0.7583
  143OSM    C6S15682   1.011   3.469   6.987 -0.2251 -0.5473  0.2637
  143OSM    H6S15683   0.914   3.517   7.010  0.0425 -0.9045  2.3964
  143OSM    H6T15684   1.082   3.520   7.056  0.1126 -1.2062  0.4146
  143OSM    C7S15685   1.015   3.318   7.031 -0.4469 -0.4669  0.2267
  143OSM    H7S15686   1.122   3.289   7.028 -0.4832 -0.5670 -0.2113
  143OSM    H7T15687   0.957   3.255   6.961  0.1526  0.2128 -0.9160
  143OSM    C8S15688   0.972   3.293   7.181 -0.0865  0.0842 -0.2426
  143OSM    H8S15689   0.861   3.282   7.180 -0.0600 -0.1872 -0.3263
  143OSM    H8T15690   0.997   3.384   7.240  1.0525  0.0823 -0.7193
  143OSM    C9S15691   1.040   3.175   7.256 -0.3850  0.4153  0.2225
  143OSM    H9S15692   1.149   3.166   7.238 -0.1726 -0.1140  1.6775
  143OSM    H9T15693   0.981   3.085   7.229 -2.2648  1.0683  1.9370
  143OSM   C10S15694   1.028   3.177   7.412  0.3854 -0.0549  0.0542
  143OSM   H10S15695   0.924   3.207   7.437  0.5607 -0.7317  1.7013
  143OSM   H10T15696   1.086   3.267   7.442 -0.3273  0.3926  0.1228
  143OSM   C11S15697   1.080   3.055   7.487  0.0144  0.4163 -0.3844
  143OSM   H11S15698   1.186   3.036   7.460 -0.1982  1.3988 -2.0314
  143OSM   H11T15699   1.024   2.964   7.457 -0.4059  0.3136  0.6425
  143OSM   C12S15700   1.079   3.064   7.643 -0.2265 -0.0484 -0.0333
  143OSM   H12S15701   0.991   3.116   7.686 -0.2695 -0.3514  0.2437
  143OSM   H12T15702   1.168   3.120   7.679 -0.1226 -1.0483  1.3307
  143OSM   C13S15703   1.109   2.935   7.709 -0.0311  0.4236 -0.3589
  143OSM   H13S15704   1.201   2.887   7.669 -1.3470 -4.1316  1.4064
  143OSM   H13T15705   1.024   2.869   7.678  0.4658 -0.3139 -0.1862
  143OSM   C14S15706   1.120   2.951   7.868  0.3218 -0.7971  0.3834
  143OSM   H14S15707   1.030   3.010   7.893  1.1276  0.5633  0.1678
  143OSM   H14T15708   1.216   3.006   7.879  1.0325 -1.4375 -1.8809
  143OSM   C15S15709   1.137   2.824   7.943 -0.1302  0.1425 -0.0839
  143OSM   H15S15710   1.217   2.757   7.905 -0.3175  0.1853 -0.5694
  143OSM   H15T15711   1.039   2.772   7.936 -0.3443  0.4538  0.6142
  143OSM   C16S15712   1.163   2.835   8.092 -0.0508  0.0514  1.0912
  143OSM   H16S15713   1.169   2.733   8.137  0.6004 -0.1893  0.4713
  143OSM   H16T15714   1.068   2.873   8.137  0.0359  2.1951 -0.4186
  143OSM   C17S15715   1.287   2.920   8.120 -0.0174  0.0831  0.2183
  143OSM   H17S15716   1.263   3.026   8.099 -0.6039 -0.1276 -0.1834
  143OSM   H17T15717   1.376   2.897   8.057  0.9505 -0.4033  1.6869
  143OSM   C18S15718   1.327   2.910   8.270 -0.2154 -0.6766 -0.1390
  143OSM   H18S15719   1.381   3.004   8.296  0.4030 -0.9248 -0.5060
  143OSM   H18T15720   1.396   2.824   8.280  2.0479  1.1962  1.4518
  143OSM   H18U15721   1.242   2.911   8.341  2.9615  3.4122  4.2039
  143OSM    C1F15722   1.544   3.393   6.671  0.0384  0.6230  0.2209
  143OSM     OF15723   1.601   3.502   6.666  0.1136 -0.6307 -0.7325
  143OSM    C2F15724   1.615   3.263   6.711 -0.5521 -0.0750 -0.2179
  143OSM    H2F15725   1.616   3.196   6.622  0.3621  0.2018 -0.4186
  143OSM    H2G15726   1.562   3.210   6.793  0.7940 -0.1803  0.6061
  143OSM    C3F15727   1.765   3.286   6.752  1.2105  0.3696  0.1594
  143OSM    H3F15728   1.771   3.360   6.835  0.2142  0.7153 -0.0674
  143OSM    H3G15729   1.826   3.327   6.668 -1.9590  2.2903 -1.4058
  143OSM    C4F15730   1.837   3.145   6.800  0.0600 -0.6039 -0.4303
  143OSM    H4F15731   1.944   3.158   6.774 -0.4989  1.1104 -2.1493
  143OSM    H4G15732   1.805   3.069   6.725 -0.2894  1.1380 -2.1433
  143OSM    C5F15733   1.813   3.115   6.949  0.3824 -0.0574  0.3304
  143OSM    H5F15734   1.851   3.014   6.973 -2.6598 -1.0236  1.4685
  143OSM    H5G15735   1.702   3.115   6.960  0.2611 -0.0578 -0.7956
  143OSM    C6F15736   1.890   3.220   7.033 -0.5168 -0.0183  0.2631
  143OSM    H6F15737   1.875   3.326   7.004  1.6893  0.2431 -0.1392
  143OSM    H6G15738   1.999   3.201   7.019 -0.3637  0.1796  1.1373
  143OSM    C7F15739   1.850   3.211   7.180 -0.2415  0.1419 -0.0708
  143OSM    H7F15740   1.740   3.224   7.188 -0.1101  1.3412 -0.0315
  143OSM    H7G15741   1.892   3.293   7.243 -2.2831  1.3989 -0.2497
  143OSM    C8F15742   1.881   3.065   7.241  0.0241 -0.3190 -0.3231
  143OSM    H8F15743   1.992   3.065   7.239  0.0978 -1.0796  1.4023
  143OSM    H8G15744   1.835   2.987   7.178  1.2067 -1.0957 -0.2568
  143OSM    C9F15745   1.844   3.052   7.393 -1.0631  0.0672  0.5426
  143OSM    H9F15746   1.737   3.064   7.415 -1.7050 -1.2663 -1.5107
  143OSM   C10F15747   1.937   3.042   7.489 -0.1466  0.9187 -0.0845
  143OSM   H10F15748   1.894   3.040   7.590 -1.0786 -2.3142 -0.4443
  143OSM   C11F15749   2.092   3.034   7.476  0.4413 -0.1092  0.0933
  143OSM   H11F15750   2.142   3.131   7.496  0.3999  0.0053 -0.3434
  143OSM   H11G15751   2.124   2.999   7.376 -1.0972 -0.1994 -0.3884
  143OSM   C12F15752   2.150   2.935   7.583  0.5997  0.3675 -0.5284
  143OSM   H12F15753   2.256   2.930   7.552  0.2282  0.8337 -1.9571
  143OSM   H12G15754   2.109   2.832   7.579  0.0107  0.4507  1.8726
  143OSM   C13F15755   2.130   2.981   7.725 -0.3279 -0.2220 -0.2360
  143OSM   H13F15756   2.021   2.991   7.741 -0.0190 -0.2416  2.3087
  143OSM   H13G15757   2.179   3.076   7.755 -1.5456 -0.4766  2.9800
  143OSM   C14F15758   2.161   2.881   7.833  0.1648  0.4441 -0.3726
  143OSM   H14F15759   2.108   2.791   7.793 -0.3464  0.3230  0.5396
  143OSM   H14G15760   2.104   2.906   7.925  0.5664  1.7961 -0.4720
  143OSM   C15F15761   2.314   2.864   7.865 -0.0298 -0.3401  0.2839
  143OSM   H15F15762   2.349   2.949   7.928 -0.7546 -0.0344  0.2922
  143OSM   H15G15763   2.374   2.876   7.772  0.2456 -0.3506  0.4602
  143OSM   C16F15764   2.352   2.735   7.935 -0.1515 -0.0160  0.7156
  143OSM   H16F15765   2.323   2.647   7.874  2.8062  0.6854 -1.9584
  143OSM   H16G15766   2.304   2.722   8.034  1.0106 -0.0168  1.2998
  143OSM   C17F15767   2.500   2.714   7.957 -0.5374 -0.2492  0.7208
  143OSM   H17F15768   2.511   2.617   8.011 -3.0656 -0.9471  0.1353
  143OSM   H17G15769   2.545   2.791   8.023  1.8295  0.5677 -1.6867
  143OSM   C18F15770   2.585   2.705   7.833  0.2520  0.4504  0.4772
  143OSM   H18F15771   2.568   2.790   7.764 -3.0807 -1.0679 -0.8229
  143OSM   H18G15772   2.571   2.610   7.777 -1.4692  0.9265  0.0371
  143OSM   H18H15773   2.691   2.702   7.868 -0.4257  1.0295  2.7427
  144OSM      N15774   0.585   0.517   6.424 -0.3230 -0.2721  0.4801
  144OSM    C1515775   0.538   0.476   6.560 -0.1590 -0.5239 -0.3718
  144OSM   H15A15776   0.441   0.431   6.544 -0.8334 -0.0019  1.8842
  144OSM   H15B15777   0.514   0.554   6.630 -0.4997 -0.5738 -0.4295
  144OSM   H15C15778   0.610   0.403   6.595 -2.4187 -3.3598 -1.1770
  144OSM    C1415779   0.586   0.395   6.347  0.1101 -0.2560  0.1874
  144OSM   H14A15780   0.614   0.408   6.243 -2.0898  3.4885 -0.1268
  144OSM   H14B15781   0.488   0.350   6.350 -0.2311  0.4216 -0.3001
  144OSM   H14C15782   0.642   0.313   6.389  2.6618  0.1000 -2.2323
  144OSM    C1315783   0.482   0.611   6.372 -0.0482  0.0001 -0.2760
  144OSM   H13A15784   0.511   0.656   6.278 -0.8285  1.5339  0.1887
  144OSM   H13B15785   0.474   0.704   6.427  0.6842  0.3275 -0.6935
  144OSM   H13C15786   0.389   0.558   6.364  0.9693 -1.6832 -1.6692
  144OSM    C1215787   0.718   0.587   6.434  0.1080  1.2432 -0.1345
  144OSM   H12A15788   0.757   0.600   6.334 -0.6136 -1.1375 -0.7861
  144OSM   H12B15789   0.782   0.517   6.485 -0.4300 -1.1164 -2.4973
  144OSM    C1115790   0.709   0.728   6.497  0.0063 -0.4096 -0.4618
  144OSM   H11A15791   0.814   0.755   6.520 -0.7756  1.5988  1.0794
  144OSM   H11B15792   0.673   0.725   6.602 -0.1516  0.1721 -0.4943
  144OSM      P15793   0.713   0.894   6.290  0.1838 -0.2857  0.0248
  144OSM    O1315794   0.728   0.785   6.194  0.1422 -0.4533  0.2784
  144OSM    O1415795   0.636   1.007   6.249  0.3926 -0.0237 -0.8984
  144OSM    O1115796   0.860   0.944   6.319 -0.3837 -0.2807 -0.2407
  144OSM    O1215797   0.650   0.835   6.421 -0.0063  0.0563  0.1689
  144OSM    C1S15798   0.861   1.059   6.417 -0.2328 -0.1073 -0.4826
  144OSM    H1S15799   0.762   1.104   6.440 -0.6359 -0.9294 -0.5627
  144OSM    H1T15800   0.929   1.140   6.385  1.6288 -1.6074 -0.5063
  144OSM     NF15801   0.950   1.129   6.634 -0.2247 -0.1038  0.0306
  144OSM    HNF15802   1.033   1.183   6.625 -1.3432  1.4296 -1.7503
  144OSM    C2S15803   0.934   1.016   6.549 -0.3785 -0.0975 -0.7927
  144OSM    H2S15804   0.864   0.953   6.608  0.1833 -0.0777 -0.0839
  144OSM    C3S15805   1.073   0.943   6.529 -0.6917 -0.9454  0.7847
  144OSM    H3S15806   1.139   1.023   6.491 -2.3041 -0.3058 -0.7938
  144OSM     O315807   1.079   0.848   6.426  0.1191 -0.0965 -0.2771
  144OSM    HO315808   1.007   0.879   6.371 -1.6641 -2.8462  0.3150
  144OSM    C4S15809   1.130   0.890   6.662 -0.2608 -0.3709  0.0176
  144OSM    H4S15810   1.178   0.974   6.713  0.4067  0.3893 -1.7733
  144OSM    C5S15811   1.109   0.769   6.717 -0.3416 -0.4224  0.2542
  144OSM    H5S15812   1.051   0.691   6.666 -2.2804  0.8101  0.4968
  144OSM    C6S15813   1.159   0.722   6.857 -0.0592 -0.2019  0.3638
  144OSM    H6S15814   1.265   0.752   6.868  0.1524  0.1442 -2.0137
  144OSM    H6T15815   1.154   0.612   6.873 -0.5531 -0.2427 -0.0116
  144OSM    C7S15816   1.081   0.785   6.980 -0.9329 -0.1398  0.2692
  144OSM    H7S15817   0.973   0.767   6.962 -0.9354  0.4008 -0.2853
  144OSM    H7T15818   1.112   0.892   6.980  0.3871 -0.4967  0.0002
  144OSM    C8S15819   1.127   0.725   7.117 -0.0525 -0.5045  0.0037
  144OSM    H8S15820   1.232   0.758   7.131 -0.2815 -0.1754  1.0727
  144OSM    H8T15821   1.124   0.614   7.105  0.9218 -0.3500 -2.1274
  144OSM    C9S15822   1.054   0.783   7.237  0.2684  0.0527 -0.0741
  144OSM    H9S15823   0.952   0.743   7.221  0.8067 -0.6930 -1.9119
  144OSM    H9T15824   1.064   0.893   7.233  0.1812  0.1844  2.0829
  144OSM   C10S15825   1.107   0.725   7.371 -0.1033  0.3132  0.5034
  144OSM   H10S15826   1.205   0.773   7.394  0.0759  0.8836 -1.3279
  144OSM   H10T15827   1.110   0.618   7.339  2.4370  0.7956 -1.1306
  144OSM   C11S15828   1.007   0.750   7.487 -0.4669 -0.3191 -0.0423
  144OSM   H11S15829   1.016   0.673   7.566 -1.9011  0.2005  0.6697
  144OSM   H11T15830   0.907   0.740   7.439 -0.5989 -1.5012  0.4452
  144OSM   C12S15831   1.010   0.888   7.556  0.3830  0.2092  0.7233
  144OSM   H12S15832   0.951   0.961   7.498 -2.4281 -0.3113  2.7108
  144OSM   H12T15833   1.114   0.928   7.563  0.7164 -0.6660  0.9882
  144OSM   C13S15834   0.939   0.888   7.697 -0.5109  0.7097  0.0017
  144OSM   H13S15835   0.984   0.795   7.738 -0.2458  0.2414 -1.2960
  144OSM   H13T15836   0.834   0.867   7.668 -0.5079  0.3361  0.2393
  144OSM   C14S15837   0.975   1.005   7.785 -0.9901  0.4774  0.2356
  144OSM   H14S15838   0.954   1.097   7.726  0.3724  0.2005 -0.7215
  144OSM   H14T15839   1.085   0.996   7.797 -0.8022 -1.1834 -2.0469
  144OSM   C15S15840   0.887   1.015   7.903 -0.0556  0.2672  0.0582
  144OSM   H15S15841   0.902   0.924   7.965  2.2083  0.9662  0.6092
  144OSM   H15T15842   0.780   1.028   7.876 -0.4131 -2.2626  0.0299
  144OSM   C16S15843   0.924   1.141   8.001  0.9246  0.6777 -0.1025
  144OSM   H16S15844   0.887   1.238   7.960 -0.9776 -0.1254 -0.3858
  144OSM   H16T15845   1.035   1.147   8.007  1.0018 -0.7265  0.1672
  144OSM   C17S15846   0.869   1.130   8.148  0.6963 -0.1651  0.3670
  144OSM   H17S15847   0.921   1.066   8.222  1.3043  1.3102  1.2478
  144OSM   H17T15848   0.765   1.092   8.143  0.8710 -0.6759  0.5168
  144OSM   C18S15849   0.857   1.273   8.208  0.0882  0.2878 -0.3282
  144OSM   H18S15850   0.955   1.325   8.214 -0.2198  0.8910 -0.4790
  144OSM   H18T15851   0.818   1.274   8.312 -1.3129  1.0857 -0.8355
  144OSM   H18U15852   0.783   1.331   8.148 -1.1742  0.8189  1.6192
  144OSM    C1F15853   0.844   1.184   6.690 -1.0153  0.3866  0.4254
  144OSM     OF15854   0.736   1.128   6.668 -0.3832 -0.2963 -0.4668
  144OSM    C2F15855   0.858   1.306   6.768 -0.1956 -0.1092 -0.6261
  144OSM    H2F15856   0.885   1.391   6.702 -0.5251  0.9260  0.5243
  144OSM    H2G15857   0.940   1.291   6.843  1.1413 -0.4700 -2.1116
  144OSM    C3F15858   0.729   1.346   6.841  0.1227  0.4406  0.1962
  144OSM    H3F15859   0.698   1.259   6.903  0.9725 -0.4863 -0.6427
  144OSM    H3G15860   0.634   1.351   6.783  1.0208  1.0433 -1.2863
  144OSM    C4F15861   0.742   1.475   6.924 -0.0437 -0.0396  0.3669
  144OSM    H4F15862   0.737   1.565   6.860 -0.5168  0.0128  0.4729
  144OSM    H4G15863   0.832   1.466   6.989 -0.8579  0.1287  1.5478
  144OSM    C5F15864   0.627   1.491   7.024  0.3463 -0.5497 -0.1949
  144OSM    H5F15865   0.614   1.396   7.080 -1.8740 -0.4926 -0.5013
  144OSM    H5G15866   0.536   1.515   6.964 -0.0418 -0.6379  0.3448
  144OSM    C6F15867   0.655   1.605   7.131 -0.6407 -0.4152 -0.7174
  144OSM    H6F15868   0.680   1.699   7.077 -1.8162 -0.6589 -1.7586
  144OSM    H6G15869   0.731   1.564   7.200  0.1323  0.2190 -1.1707
  144OSM    C7F15870   0.530   1.629   7.214  0.9473  1.2941  0.4041
  144OSM    H7F15871   0.467   1.537   7.208  1.9730  0.5889  0.3197
  144OSM    H7G15872   0.462   1.709   7.177  0.1152  1.0845  1.3971
  144OSM    C8F15873   0.561   1.647   7.364  0.1652 -0.5891 -0.3822
  144OSM    H8F15874   0.623   1.559   7.391  1.3182 -0.0218 -1.1453
  144OSM    H8G15875   0.462   1.636   7.415 -0.7972 -0.5771 -2.1716
  144OSM    C9F15876   0.623   1.788   7.387  0.3707  0.6808  0.8253
  144OSM    H9F15877   0.599   1.856   7.305  2.1816 -1.1170 -1.3302
  144OSM   C10F15878   0.696   1.838   7.487 -0.6517 -0.3435  0.7788
  144OSM   H10F15879   0.714   1.947   7.485 -3.7820  0.2618 -1.6371
  144OSM   C11F15880   0.745   1.771   7.614  0.1998 -0.7354 -0.0779
  144OSM   H11F15881   0.857   1.772   7.611  0.3112 -3.1763  0.8439
  144OSM   H11G15882   0.722   1.662   7.613 -1.8176 -0.3425 -0.7256
  144OSM   C12F15883   0.693   1.831   7.747 -0.2140 -0.7096 -0.3453
  144OSM   H12F15884   0.599   1.773   7.755  0.7607 -2.4757 -1.3216
  144OSM   H12G15885   0.674   1.941   7.748 -0.6559 -0.7823  0.6261
  144OSM   C13F15886   0.783   1.789   7.864  0.2166 -0.3053 -0.2790
  144OSM   H13F15887   0.890   1.803   7.839 -0.1149 -0.2583 -1.7823
  144OSM   H13G15888   0.759   1.684   7.892 -0.1791 -0.7645 -2.2182
  144OSM   C14F15889   0.770   1.871   7.996 -0.7725 -0.1082 -0.6269
  144OSM   H14F15890   0.785   1.977   7.965  0.1042 -0.5008 -1.6247
  144OSM   H14G15891   0.850   1.841   8.067 -1.2848 -1.5372 -0.6167
  144OSM   C15F15892   0.636   1.850   8.067 -0.5472  0.2267 -0.5493
  144OSM   H15F15893   0.608   1.743   8.064 -1.2843  0.3572  0.9351
  144OSM   H15G15894   0.562   1.914   8.015 -1.2714 -1.2939 -1.4308
  144OSM   C16F15895   0.638   1.899   8.215 -0.1050  0.5301  0.1655
  144OSM   H16F15896   0.665   2.006   8.217 -0.1299  0.5266  1.7483
  144OSM   H16G15897   0.710   1.838   8.275 -3.2207 -2.9671  0.7264
  144OSM   C17F15898   0.497   1.892   8.272  0.1898  0.2130 -0.1658
  144OSM   H17F15899   0.464   1.786   8.267 -1.5299  0.6752  0.6691
  144OSM   H17G15900   0.428   1.958   8.216  1.6038  0.1664 -2.0779
  144OSM   C18F15901   0.507   1.933   8.416 -0.0174  0.0105  0.1201
  144OSM   H18F15902   0.405   1.937   8.459 -0.0843 -1.5839  0.1747
  144OSM   H18G15903   0.549   2.035   8.431 -1.2361  0.4461  0.7089
  144OSM   H18H15904   0.567   1.856   8.468  2.7674  0.3339 -2.3411
  145SAPE     N15905   5.710   3.875  10.725 -0.2557  0.4776 -0.0903
  145SAPE   HN115906   5.736   3.816  10.806  1.0979  0.6014 -0.4216
  145SAPE   HN215907   5.785   3.942  10.701 -2.0252  1.6716 -2.9011
  145SAPE   HN315908   5.624   3.933  10.730  0.6809  1.7974  1.2080
  145SAPE   C1215909   5.710   3.769  10.618 -0.5060 -0.1101 -0.4009
  145SAPE  H12A15910   5.649   3.813  10.537 -0.8296  1.3816  0.6079
  145SAPE  H12B15911   5.667   3.674  10.655 -1.1400 -1.2875 -3.8518
  145SAPE   C1115912   5.850   3.762  10.552  0.1163 -0.0571 -0.1686
  145SAPE  H11A15913   5.852   3.677  10.480 -0.4461 -0.5642  0.4014
  145SAPE  H11B15914   5.923   3.732  10.630 -1.0728 -1.2395  0.5423
  145SAPE     P15915   5.990   3.978  10.504  0.0913 -0.0547 -0.6066
  145SAPE   O1315916   6.007   4.073  10.397  0.1236 -0.2336  0.3534
  145SAPE   O1415917   5.946   4.025  10.636 -0.3908 -0.1857  0.2210
  145SAPE   O1215918   5.873   3.876  10.473  0.1735 -0.1016  0.7543
  145SAPE   O1115919   6.117   3.892  10.509  0.3102 -0.0303 -0.5457
  145SAPE    C115920   6.139   3.780  10.416  0.1397 -0.3641 -0.0209
  145SAPE    HA15921   6.202   3.711  10.476  1.7473  2.1455  1.3855
  145SAPE    HB15922   6.051   3.718  10.390 -0.0242 -0.1759  0.0818
  145SAPE    C215923   6.213   3.819  10.282 -0.1205  0.1957 -0.7429
  145SAPE    HS15924   6.289   3.896  10.306  2.1033 -1.4754 -2.0219
  145SAPE   O2115925   6.128   3.869  10.185  0.0994  0.4276  0.2195
  145SAPE   C2115926   6.175   3.953  10.099 -0.4559  0.4755 -0.1507
  145SAPE   O2215927   6.272   4.028  10.125  0.7295  0.3533  0.0475
  145SAPE   C2215928   6.120   3.934   9.954 -0.9696  0.1329 -0.9457
  145SAPE   H2R15929   6.200   3.895   9.887 -0.8128  1.2163 -1.4115
  145SAPE   H2S15930   6.049   3.849   9.948 -1.2756  0.4086 -1.2770
  145SAPE    C315931   6.288   3.692  10.235 -0.0323 -0.5243  0.3197
  145SAPE    HX15932   6.210   3.619  10.206 -1.0878  1.1318 -1.2582
  145SAPE    HY15933   6.343   3.649  10.322 -0.8134 -0.8268  0.6742
  145SAPE   O3115934   6.372   3.726  10.121 -0.5438  0.1783 -0.1102
  145SAPE   C3115935   6.494   3.772  10.159  0.2733  0.4200 -0.9362
  145SAPE   O3215936   6.530   3.804  10.271  0.1295 -0.1151 -0.3184
  145SAPE   C3215937   6.590   3.766  10.035 -0.2774 -0.9229 -0.3812
  145SAPE   H2X15938   6.540   3.708   9.955  0.1273 -2.4677  0.4475
  145SAPE   H2Y15939   6.678   3.707  10.068  0.9134  2.1400  2.4083
  145SAPE   C2315940   6.059   4.061   9.902  0.2076  0.1644  0.1272
  145SAPE   H3R15941   5.984   4.104   9.973 -2.7014  0.8450 -3.0526
  145SAPE   H3S15942   6.007   4.037   9.807  1.3190 -0.3158 -0.3728
  145SAPE   C2415943   6.169   4.166   9.873 -0.1624 -0.3037 -0.1356
  145SAPE   H4R15944   6.255   4.107   9.837 -0.4669 -1.2653  0.6655
  145SAPE   H4S15945   6.204   4.221   9.964 -1.0616  0.7011 -0.3800
  145SAPE   C2515946   6.107   4.276   9.788  0.0211  0.4595 -0.4525
  145SAPE   H5R15947   6.020   4.331   9.827 -0.2541  0.3842 -0.9611
  145SAPE   C2615948   6.144   4.299   9.662 -0.0794 -0.6628  0.0307
  145SAPE   H6R15949   6.095   4.382   9.609  1.6620  0.8853  0.7377
  145SAPE   C2715950   6.240   4.230   9.576 -0.1574 -0.4618 -0.1517
  145SAPE   H7R15951   6.256   4.124   9.606 -0.2928 -0.5046 -0.2316
  145SAPE   H7S15952   6.337   4.285   9.579  0.0051 -0.7532 -0.0372
  145SAPE   C2815953   6.195   4.206   9.434 -0.5702 -0.7864  0.6566
  145SAPE   H8R15954   6.096   4.246   9.408 -0.5041  0.7176  2.4755
  145SAPE   C2915955   6.268   4.150   9.338 -0.2354  1.0188 -0.1628
  145SAPE   H9R15956   6.219   4.155   9.239 -4.2464  0.0796  1.5757
  145SAPE  C21015957   6.404   4.088   9.348 -0.2125 -0.3008 -0.2411
  145SAPE  H10R15958   6.420   4.022   9.436  0.1826 -0.3482 -0.3433
  145SAPE  H10S15959   6.475   4.166   9.385  1.9632 -3.4756  2.8993
  145SAPE  C21115960   6.443   4.020   9.217  0.1105 -0.5053  0.0522
  145SAPE  H11R15961   6.440   3.910   9.223  0.4791 -0.5164  0.0678
  145SAPE  C21215962   6.471   4.088   9.100  0.4086 -0.0718 -0.2883
  145SAPE  H12R15963   6.492   4.035   9.007  3.1100  2.0882 -1.0743
  145SAPE  C21315964   6.467   4.241   9.080  0.0464 -0.2828 -0.2308
  145SAPE  H13R15965   6.523   4.288   9.164  0.5603 -1.3693  0.0473
  145SAPE  H13S15966   6.368   4.285   9.108  1.4282  0.3908  4.5468
  145SAPE  C21415967   6.521   4.296   8.951 -0.0795  0.4150 -0.3587
  145SAPE  H14R15968   6.626   4.264   8.944 -0.2348 -0.6608  1.6106
  145SAPE  C21515969   6.468   4.371   8.853  0.7590  0.8804  0.0273
  145SAPE  H15R15970   6.531   4.391   8.765  1.2171  2.2147  0.6414
  145SAPE  C21615971   6.320   4.399   8.844  0.0619  0.3213 -0.3772
  145SAPE  H16R15972   6.255   4.355   8.923  2.3457 -3.5394 -0.3751
  145SAPE  H16S15973   6.269   4.359   8.754  0.0425 -2.6858  0.8476
  145SAPE  C21715974   6.285   4.545   8.853 -0.8732 -0.2916  0.1168
  145SAPE  H17R15975   6.331   4.579   8.949 -2.6826 -0.8521  1.2450
  145SAPE  H17S15976   6.179   4.568   8.876 -1.0330 -2.1772  1.4981
  145SAPE  C21815977   6.353   4.618   8.737  0.2792 -0.0417 -0.3905
  145SAPE  H18R15978   6.311   4.585   8.639 -1.6637 -1.0517  0.7068
  145SAPE  H18S15979   6.463   4.611   8.730  0.2001 -0.5848 -1.2276
  145SAPE  C21915980   6.310   4.772   8.739  0.4605  0.0776  0.2308
  145SAPE  H19R15981   6.335   4.806   8.842  0.0952 -0.9423  0.6755
  145SAPE  H19S15982   6.200   4.769   8.732  0.2453  1.7141  2.2556
  145SAPE  C22015983   6.375   4.857   8.632 -0.0125 -0.2319  0.1830
  145SAPE  H20R15984   6.324   4.949   8.667  0.6129 -0.4739  1.8576
  145SAPE  H20S15985   6.348   4.851   8.525  0.7526 -0.3086 -0.0155
  145SAPE  H20T15986   6.485   4.847   8.646 -0.1959 -0.7338  1.4639
  145SAPE   C3315987   6.640   3.899   9.995  0.5352 -0.5385 -0.8372
  145SAPE   H3X15988   6.742   3.908   9.954  1.0525  1.0687  0.6502
  145SAPE   H3Y15989   6.650   3.975  10.076 -1.4264 -1.5268  0.4352
  145SAPE   C3415990   6.543   3.978   9.898  0.2273 -0.4430  0.4335
  145SAPE   H4X15991   6.582   4.081   9.884 -0.8706 -0.3790 -2.9689
  145SAPE   H4Y15992   6.448   3.990   9.955  0.6052 -0.2495  1.0363
  145SAPE   C3515993   6.529   3.922   9.756 -0.5450  0.0058  0.2028
  145SAPE   H5X15994   6.483   3.994   9.685 -0.7626 -0.5795 -0.2572
  145SAPE   H5Y15995   6.474   3.826   9.755 -0.5377 -0.0348  1.5513
  145SAPE   C3615996   6.668   3.884   9.696 -0.3867 -0.5908 -0.1075
  145SAPE   H6X15997   6.659   3.844   9.593 -0.5161 -0.5158 -0.1271
  145SAPE   H6Y15998   6.720   3.809   9.758 -0.3672  0.4860  1.2209
  145SAPE   C3715999   6.774   3.994   9.681 -0.4049 -0.1449  0.5181
  145SAPE   H7X16000   6.872   3.944   9.673 -0.4147 -0.1421  0.3743
  145SAPE   H7Y16001   6.778   4.060   9.770  3.3362 -0.2481  0.5911
  145SAPE   C3816002   6.739   4.091   9.555  0.1713 -0.3718  0.2344
  145SAPE   H8X16003   6.702   4.192   9.583  1.3170  0.4430 -1.0617
  145SAPE   H8Y16004   6.657   4.040   9.499  0.8821 -2.1041  0.6981
  145SAPE   C3916005   6.865   4.131   9.470  0.5993 -0.6570  0.5716
  145SAPE   H9X16006   6.904   4.048   9.408  0.2499 -1.1027  0.9405
  145SAPE   H9Y16007   6.950   4.175   9.526  2.1548  2.1354 -3.5455
  145SAPE  C31016008   6.827   4.244   9.366 -0.8273  0.1085  0.4634
  145SAPE  H10X16009   6.836   4.349   9.401  1.9162  0.3489 -0.6903
  145SAPE  H10Y16010   6.720   4.230   9.339 -0.4466 -0.0101 -1.0731
  145SAPE  C31116011   6.914   4.231   9.239 -0.2551  0.3440  0.7632
  145SAPE  H11X16012   6.903   4.137   9.181 -1.1774  2.4963 -2.9097
  145SAPE  H11Y16013   7.020   4.241   9.271  0.2430  0.0992 -0.7152
  145SAPE  C31216014   6.896   4.330   9.125  0.4336  0.0608  0.1984
  145SAPE  H12X16015   6.899   4.427   9.179 -0.9338  0.4328 -0.3540
  145SAPE  H12Y16016   6.798   4.326   9.072  0.4018  1.4386  0.1127
  145SAPE  C31316017   7.014   4.345   9.025  0.4554  0.0404 -0.1473
  145SAPE  H13X16018   7.018   4.257   8.959  2.3770  0.9288 -1.3083
  145SAPE  H13Y16019   7.107   4.359   9.085  0.3400  0.6816 -0.1043
  145SAPE  C31416020   6.997   4.460   8.929  0.1963  0.4280 -0.1838
  145SAPE  H14X16021   6.891   4.460   8.896  0.3359 -1.9070 -0.7927
  145SAPE  H14Y16022   7.055   4.449   8.835 -2.4034 -1.2346 -1.7256
  145SAPE  C31516023   7.030   4.607   8.979 -0.8487 -0.6250 -0.6959
  145SAPE  H15X16024   7.130   4.601   9.026  0.1856 -0.6010 -2.7894
  145SAPE  H15Y16025   6.966   4.638   9.064  0.6013 -0.5657  0.4056
  145SAPE  C31616026   7.036   4.715   8.868  0.4999  0.2017 -0.0763
  145SAPE  H16X16027   7.129   4.699   8.809  1.8390  1.9422  1.4543
  145SAPE  H16Y16028   7.048   4.811   8.921 -0.4843  1.1708 -1.5279
  145SAPE  C31716029   6.915   4.722   8.773  0.1221 -0.0085  0.4067
  145SAPE  H17X16030   6.831   4.762   8.833  0.6851  0.1469  1.1070
  145SAPE  H17Y16031   6.886   4.620   8.740 -1.8117 -0.5456  3.3524
  145SAPE  C31816032   6.940   4.828   8.660  0.0005 -0.6308 -0.5064
  145SAPE  H18X16033   7.041   4.815   8.616  1.2655 -2.0426  2.5064
  145SAPE  H18Y16034   6.936   4.931   8.700  0.3581  0.0116 -2.0433
  145SAPE  H18Z16035   6.861   4.809   8.584 -0.1431 -0.6964 -0.3420
  146SAPE     N16036   3.768   3.109  10.815 -0.0366  0.1333  0.3743
  146SAPE   HN116037   3.753   3.009  10.838 -0.7841  0.3575  0.8820
  146SAPE   HN216038   3.838   3.132  10.741 -1.6225  1.1376 -0.8975
  146SAPE   HN316039   3.806   3.139  10.907 -2.3542 -0.3916  1.5689
  146SAPE   C1216040   3.650   3.191  10.794  0.2238 -0.1270 -0.6357
  146SAPE  H12A16041   3.605   3.211  10.893  0.9913 -1.3203 -0.0346
  146SAPE  H12B16042   3.573   3.129  10.744 -0.4110  1.0447 -1.1734
  146SAPE   C1116043   3.682   3.313  10.700 -0.3771 -0.2003 -0.3368
  146SAPE  H11A16044   3.589   3.374  10.697 -0.5846 -0.5329 -1.3841
  146SAPE  H11B16045   3.709   3.263  10.605  0.3793 -1.3367  0.4614
  146SAPE     P16046   3.921   3.408  10.697 -0.3511 -0.3304  0.2917
  146SAPE   O1316047   4.011   3.484  10.784 -0.1667 -0.1779 -0.2185
  146SAPE   O1416048   3.957   3.264  10.680  0.2023 -0.4605 -0.0729
  146SAPE   O1216049   3.779   3.401  10.754 -0.6412  0.4843  0.4022
  146SAPE   O1116050   3.901   3.486  10.555  0.4521 -0.5008  0.2965
  146SAPE    C116051   3.851   3.627  10.550 -1.1939  0.1678 -0.4156
  146SAPE    HA16052   3.741   3.621  10.531 -1.1349  2.6197 -1.8396
  146SAPE    HB16053   3.862   3.678  10.648  1.4073  0.3750 -0.7463
  146SAPE    C216054   3.920   3.704  10.438 -0.1409  0.6341 -0.2508
  146SAPE    HS16055   3.893   3.810  10.455 -0.6590  0.5197 -0.3109
  146SAPE   O2116056   3.883   3.648  10.306 -0.4076  0.3796  1.0357
  146SAPE   C2116057   3.887   3.731  10.201  1.1015 -0.7480  0.0522
  146SAPE   O2216058   3.905   3.850  10.208  0.8137 -0.7283  0.2308
  146SAPE   C2216059   3.864   3.653  10.067 -0.4561 -0.4569 -0.0257
  146SAPE   H2R16060   3.960   3.629  10.016 -0.7667 -2.8209  0.3808
  146SAPE   H2S16061   3.818   3.556  10.096  0.1331 -1.2051 -1.4758
  146SAPE    C316062   4.071   3.693  10.463 -0.5843 -0.3127  1.0000
  146SAPE    HX16063   4.096   3.585  10.459 -1.1485 -0.4201 -1.5508
  146SAPE    HY16064   4.109   3.728  10.561 -0.2340  1.8914  0.1308
  146SAPE   O3116065   4.155   3.763  10.370 -0.5603  0.4246  0.1649
  146SAPE   C3116066   4.151   3.899  10.389  0.4607 -0.0265  0.4139
  146SAPE   O3216067   4.079   3.954  10.473  0.0488  0.4347 -0.4683
  146SAPE   C3216068   4.245   3.971  10.292  0.3072  0.4201  0.3273
  146SAPE   H2X16069   4.346   3.965  10.339 -1.1485 -0.0907  3.6532
  146SAPE   H2Y16070   4.224   4.080  10.291 -3.3065 -0.1737 -0.3508
  146SAPE   C2316071   3.770   3.721   9.963 -0.3232 -0.2916 -0.9584
  146SAPE   H3R16072   3.684   3.773  10.011 -0.3593 -0.7159 -0.5543
  146SAPE   H3S16073   3.726   3.639   9.902  0.9136 -1.5499 -0.2314
  146SAPE   C2416074   3.846   3.823   9.885  0.5082  0.1492  0.1892
  146SAPE   H4R16075   3.940   3.774   9.853  0.9831  0.3362  1.2649
  146SAPE   H4S16076   3.877   3.903   9.955 -0.8993  2.6678 -1.8959
  146SAPE   C2516077   3.771   3.888   9.777  1.4890  0.4014  0.5865
  146SAPE   H5R16078   3.703   3.969   9.807 -0.7408 -1.5192  1.0371
  146SAPE   C2616079   3.772   3.857   9.642 -0.0422 -0.3712 -0.7325
  146SAPE   H6R16080   3.720   3.925   9.572  0.4696 -1.3283 -2.0803
  146SAPE   C2716081   3.848   3.755   9.565 -0.3324  0.4948 -0.4798
  146SAPE   H7R16082   3.952   3.739   9.600 -0.2674 -1.7212 -1.5838
  146SAPE   H7S16083   3.871   3.788   9.462 -0.6830  0.0259 -0.7127
  146SAPE   C2816084   3.780   3.623   9.583 -0.1022  0.0595  0.4408
  146SAPE   H8R16085   3.742   3.592   9.682  0.3278 -0.4063  0.4676
  146SAPE   C2916086   3.748   3.545   9.474  1.0726 -0.5132 -0.3276
  146SAPE   H9R16087   3.708   3.443   9.481 -1.6106  0.2046 -2.9170
  146SAPE  C21016088   3.784   3.580   9.331 -0.2870 -0.2384  0.6343
  146SAPE  H10R16089   3.894   3.586   9.313 -0.1911  0.4844  1.3802
  146SAPE  H10S16090   3.738   3.678   9.304 -0.7773 -0.4729  0.6206
  146SAPE  C21116091   3.728   3.495   9.220 -0.4701 -1.3398  0.6149
  146SAPE  H11R16092   3.679   3.406   9.263  0.8366 -1.8301  1.1284
  146SAPE  C21216093   3.726   3.527   9.092  0.0261  0.5109  0.3362
  146SAPE  H12R16094   3.710   3.444   9.022 -1.2746  1.4245 -0.4816
  146SAPE  C21316095   3.778   3.653   9.028 -0.4259 -0.9547  0.5244
  146SAPE  H13R16096   3.876   3.686   9.069 -0.5223 -1.9510  1.5916
  146SAPE  H13S16097   3.702   3.733   9.042  2.0914  1.4166  1.4720
  146SAPE  C21416098   3.791   3.637   8.874  0.4956  0.4164 -0.7403
  146SAPE  H14R16099   3.743   3.551   8.826  1.4952 -0.3997 -0.3098
  146SAPE  C21516100   3.854   3.736   8.805  0.1029  0.0180  0.1613
  146SAPE  H15R16101   3.864   3.725   8.696  1.3388  1.5748  0.0832
  146SAPE  C21616102   3.924   3.867   8.846 -0.8226 -0.4729  0.2619
  146SAPE  H16R16103   4.015   3.872   8.782 -1.6227 -1.0758 -0.9576
  146SAPE  H16S16104   3.947   3.869   8.955  0.0119 -0.7879  0.0997
  146SAPE  C21716105   3.838   3.993   8.823  0.8294 -0.6220 -0.2218
  146SAPE  H17R16106   3.758   3.990   8.900  1.9615 -0.5367  0.9995
  146SAPE  H17S16107   3.797   4.001   8.720  3.2116 -0.8804 -1.2566
  146SAPE  C21816108   3.910   4.127   8.870  0.1194 -0.1422  0.1697
  146SAPE  H18R16109   3.997   4.152   8.806  0.3778 -0.6051  0.3357
  146SAPE  H18S16110   3.963   4.110   8.967  2.3980  2.1214 -0.5378
  146SAPE  C21916111   3.818   4.255   8.886 -0.4994  0.5423 -0.3281
  146SAPE  H19R16112   3.885   4.335   8.926  0.1372 -1.6693  3.6168
  146SAPE  H19S16113   3.745   4.222   8.963  0.8076 -1.3052  0.1967
  146SAPE  C22016114   3.758   4.300   8.760 -0.2210 -0.4155 -0.0432
  146SAPE  H20R16115   3.719   4.212   8.704  0.7300 -0.0156 -1.3663
  146SAPE  H20S16116   3.820   4.333   8.674 -0.9532  0.2031 -0.3460
  146SAPE  H20T16117   3.673   4.370   8.775  1.3023  1.3154  0.8590
  146SAPE   C3316118   4.269   3.902  10.148 -0.1882 -0.2813 -0.2467
  146SAPE   H3X16119   4.172   3.870  10.104 -0.9370  1.9028 -0.2939
  146SAPE   H3Y16120   4.330   3.810  10.164  0.8571  0.7688  2.4536
  146SAPE   C3416121   4.351   3.998  10.059 -0.2864  0.3497 -0.6295
  146SAPE   H4X16122   4.443   4.018  10.116  0.1368 -3.4577  0.2666
  146SAPE   H4Y16123   4.308   4.100  10.045  2.3694  1.4883 -1.0096
  146SAPE   C3516124   4.405   3.924   9.935  0.8141  0.3473 -0.3901
  146SAPE   H5X16125   4.329   3.908   9.856  0.8911  0.2258 -0.4395
  146SAPE   H5Y16126   4.446   3.827   9.968 -0.1879  0.3774  1.0231
  146SAPE   C3616127   4.515   4.001   9.861 -0.3619 -0.3586 -0.0086
  146SAPE   H6X16128   4.608   4.004   9.921  1.3605  0.2721 -2.5356
  146SAPE   H6Y16129   4.481   4.107   9.855 -2.2199 -0.9861 -2.7540
  146SAPE   C3716130   4.539   3.951   9.718 -0.2363  0.4071 -0.3633
  146SAPE   H7X16131   4.441   3.957   9.666 -1.3619  0.8865  1.6784
  146SAPE   H7Y16132   4.573   3.847   9.701  1.1996  0.9259 -0.8238
  146SAPE   C3816133   4.626   4.053   9.642  0.7817 -0.5004 -0.8562
  146SAPE   H8X16134   4.714   4.085   9.702 -0.6639  0.6273  0.7654
  146SAPE   H8Y16135   4.570   4.147   9.625  0.8889 -0.2452  0.1211
  146SAPE   C3916136   4.678   4.009   9.501 -0.6437  0.5775  0.0368
  146SAPE   H9X16137   4.755   3.929   9.504 -0.9519  0.2619 -0.3779
  146SAPE   H9Y16138   4.733   4.091   9.448  2.6324 -1.6144 -0.2705
  146SAPE  C31016139   4.564   3.969   9.413  0.0557  0.5153  0.4766
  146SAPE  H10X16140   4.490   4.053   9.413  1.0017  1.3978  1.8980
  146SAPE  H10Y16141   4.514   3.883   9.463  0.3354 -0.6291 -1.1196
  146SAPE  C31116142   4.606   3.945   9.268  0.2503 -0.0477 -0.7247
  146SAPE  H11X16143   4.686   3.868   9.269 -1.9533 -2.4668  0.6820
  146SAPE  H11Y16144   4.653   4.040   9.234  0.5520  0.9322  2.1414
  146SAPE  C31216145   4.494   3.895   9.174  0.2269  0.3387 -0.0690
  146SAPE  H12X16146   4.425   3.982   9.170  2.6404  2.3974  0.4388
  146SAPE  H12Y16147   4.436   3.807   9.208 -0.2870  0.8499  0.3893
  146SAPE  C31316148   4.545   3.880   9.027 -0.4661  0.5671  0.1776
  146SAPE  H13X16149   4.631   3.810   9.020  0.0757  0.9924  2.1013
  146SAPE  H13Y16150   4.575   3.976   8.980  0.5504  0.3167  0.2945
  146SAPE  C31416151   4.432   3.807   8.951 -0.4658  0.3755 -0.7449
  146SAPE  H14X16152   4.332   3.845   8.980 -0.3892 -0.0803  0.1625
  146SAPE  H14Y16153   4.428   3.705   8.996 -0.3060  0.0673 -1.4234
  146SAPE  C31516154   4.437   3.792   8.811  0.2602 -0.1160  1.2313
  146SAPE  H15X16155   4.514   3.717   8.780 -2.6142 -2.3296 -1.2000
  146SAPE  H15Y16156   4.449   3.896   8.774 -2.2313 -0.0700  0.3683
  146SAPE  C31616157   4.312   3.717   8.754  0.0121 -0.0039  1.1550
  146SAPE  H16X16158   4.216   3.765   8.783  0.2958  1.3713 -0.0465
  146SAPE  H16Y16159   4.307   3.621   8.809 -1.4498 -0.0902  0.9147
  146SAPE  C31716160   4.321   3.704   8.602  0.2130 -0.4281  0.2995
  146SAPE  H17X16161   4.421   3.674   8.565 -0.2882 -1.2636 -0.4350
  146SAPE  H17Y16162   4.309   3.808   8.565  3.7926 -0.2785 -0.8270
  146SAPE  C31816163   4.206   3.617   8.534  0.0183 -0.0781  0.8030
  146SAPE  H18X16164   4.205   3.626   8.424 -1.2052  1.6887  0.9107
  146SAPE  H18Y16165   4.111   3.653   8.580  0.1890 -0.6353  1.6158
  146SAPE  H18Z16166   4.219   3.515   8.576 -0.3152  0.0346  1.1855
  147SAPE     N16167   2.000   4.122  11.250 -0.0603  0.3593 -0.1631
  147SAPE   HN116168   2.041   4.172  11.168 -3.0450  2.7443 -0.3814
  147SAPE   HN216169   2.064   4.113  11.331 -2.3445  1.8827  1.9619
  147SAPE   HN316170   1.944   4.037  11.229 -0.7256 -0.1040  3.0766
  147SAPE   C1216171   1.893   4.207  11.308 -0.8247 -0.0237 -0.0562
  147SAPE  H12A16172   1.943   4.303  11.337  1.3465 -0.7283 -1.2297
  147SAPE  H12B16173   1.860   4.159  11.402 -1.6368 -0.1355 -0.3835
  147SAPE   C1116174   1.777   4.236  11.211  0.3735  0.5573 -0.3228
  147SAPE  H11A16175   1.814   4.310  11.138 -1.6145 -1.2700 -3.4113
  147SAPE  H11B16176   1.687   4.280  11.260 -0.0858  0.7728 -1.3369
  147SAPE     P16177   1.610   4.124  11.035  0.1194 -0.3108  0.0328
  147SAPE   O1316178   1.576   3.986  11.006  0.2887  0.3565  0.1307
  147SAPE   O1416179   1.505   4.204  11.100  0.2734  0.0938 -0.0999
  147SAPE   O1216180   1.726   4.120  11.144 -0.5368 -0.3434  0.7489
  147SAPE   O1116181   1.674   4.189  10.905  0.3918 -0.1092 -0.2727
  147SAPE    C116182   1.808   4.178  10.865 -0.6548 -0.4832  0.2794
  147SAPE    HA16183   1.871   4.239  10.934  0.4994 -2.7203  1.2838
  147SAPE    HB16184   1.841   4.076  10.892  2.3205  0.0108 -1.0719
  147SAPE    C216185   1.843   4.217  10.717 -0.3670  0.2869  0.1069
  147SAPE    HS16186   1.952   4.217  10.695 -0.6300 -1.0949 -1.4495
  147SAPE   O2116187   1.779   4.345  10.698  0.4675  0.2538  0.5126
  147SAPE   C2116188   1.846   4.454  10.726 -0.1800  0.0808 -0.3246
  147SAPE   O2216189   1.951   4.462  10.783  0.0136 -0.1506  0.0903
  147SAPE   C2216190   1.769   4.565  10.672 -0.6893  0.0387 -0.0609
  147SAPE   H2R16191   1.685   4.531  10.607 -1.9726  0.1745  1.4711
  147SAPE   H2S16192   1.725   4.615  10.761  2.0978  0.6302  1.0867
  147SAPE    C316193   1.764   4.121  10.614  1.0222 -0.6209 -0.4519
  147SAPE    HX16194   1.656   4.141  10.634  1.2708 -1.7924  2.6557
  147SAPE    HY16195   1.786   4.022  10.658  0.3622 -0.7518 -0.4049
  147SAPE   O3116196   1.812   4.150  10.485  0.3133 -0.3702 -0.0534
  147SAPE   C3116197   1.815   4.047  10.401 -0.1809 -0.0412 -0.4758
  147SAPE   O3216198   1.769   3.937  10.427 -0.1092  0.3616  0.1822
  147SAPE   C3216199   1.892   4.087  10.272 -0.3837  0.2208  0.8251
  147SAPE   H2X16200   1.851   4.179  10.224  0.4877 -0.9633 -2.4399
  147SAPE   H2Y16201   1.874   4.013  10.192  0.5792  2.3454 -1.5055
  147SAPE   C2316202   1.856   4.676  10.607 -0.3910  0.2317 -0.0484
  147SAPE   H3R16203   1.933   4.721  10.673 -1.4871  1.1050  0.6751
  147SAPE   H3S16204   1.780   4.753  10.583 -3.6007 -2.6535  0.1491
  147SAPE   C2416205   1.931   4.660  10.464  0.9558 -0.5365 -0.0480
  147SAPE   H4R16206   1.967   4.761  10.434 -0.3539  0.1148  0.4847
  147SAPE   H4S16207   1.853   4.638  10.389 -0.1412  1.5239  0.4162
  147SAPE   C2516208   2.043   4.556  10.457  0.1534  0.1666 -0.3484
  147SAPE   H5R16209   2.033   4.475  10.530 -1.6435 -0.6618 -1.4384
  147SAPE   C2616210   2.136   4.543  10.357  0.4311 -0.1093 -0.3629
  147SAPE   H6R16211   2.202   4.455  10.351 -0.1614 -0.6988  1.2308
  147SAPE   C2716212   2.143   4.639  10.238 -0.4690  0.6559 -0.0732
  147SAPE   H7R16213   2.248   4.654  10.205 -0.5386  1.0956 -0.0964
  147SAPE   H7S16214   2.123   4.740  10.280  0.6662  1.0100 -0.3203
  147SAPE   C2816215   2.035   4.618  10.136 -0.4484 -0.1638 -0.0468
  147SAPE   H8R16216   1.970   4.531  10.156 -0.8664  0.4613  1.4005
  147SAPE   C2916217   2.001   4.710  10.039 -0.0412  0.8136  0.1211
  147SAPE   H9R16218   1.920   4.683   9.970 -1.2786  2.1737  0.9874
  147SAPE  C21016219   2.076   4.840  10.016 -0.8511  0.7175  0.8153
  147SAPE  H10R16220   2.098   4.881  10.117 -1.2616  2.3328  0.2699
  147SAPE  H10S16221   2.007   4.903   9.956 -1.2204 -1.6206 -1.4085
  147SAPE  C21116222   2.205   4.818   9.937 -0.0155  0.0662 -0.0918
  147SAPE  H11R16223   2.301   4.846   9.983 -1.2120  2.4787  1.1306
  147SAPE  C21216224   2.215   4.764   9.818  0.7044  0.0266  0.4763
  147SAPE  H12R16225   2.316   4.763   9.772  1.1187 -0.4311  1.3757
  147SAPE  C21316226   2.108   4.707   9.728 -0.0704  0.2233 -0.2623
  147SAPE  H13R16227   2.013   4.673   9.775 -0.3682  0.4508 -0.6964
  147SAPE  H13S16228   2.145   4.607   9.696  0.0533 -0.1100  0.8564
  147SAPE  C21416229   2.085   4.791   9.603  0.5295 -0.0884 -0.6520
  147SAPE  H14R16230   2.000   4.861   9.608  0.1082 -0.4160 -2.3927
  147SAPE  C21516231   2.160   4.786   9.492 -0.2995 -0.5530  0.3072
  147SAPE  H15R16232   2.137   4.857   9.411  2.1492  0.6372  0.5720
  147SAPE  C21616233   2.273   4.688   9.470 -0.7428  0.5373 -0.5058
  147SAPE  H16R16234   2.278   4.601   9.538  0.5261  1.1771  0.2415
  147SAPE  H16S16235   2.366   4.747   9.486 -1.9313  2.5925 -0.7691
  147SAPE  C21716236   2.289   4.633   9.329 -0.3402 -0.6795 -0.4143
  147SAPE  H17R16237   2.359   4.547   9.332 -1.0263 -1.2739 -0.9115
  147SAPE  H17S16238   2.332   4.712   9.264  1.6351 -0.0679  1.5249
  147SAPE  C21816239   2.147   4.591   9.273 -0.3884 -0.0579  0.3083
  147SAPE  H18R16240   2.091   4.672   9.221 -1.0845  1.1375  2.7693
  147SAPE  H18S16241   2.099   4.542   9.361  0.8114  0.4643  1.2855
  147SAPE  C21916242   2.167   4.493   9.157 -0.1036 -0.6521  0.2520
  147SAPE  H19R16243   2.234   4.408   9.181 -0.2056 -0.9324 -0.4232
  147SAPE  H19S16244   2.219   4.546   9.074  0.6304 -0.7324  0.6515
  147SAPE  C22016245   2.033   4.438   9.109  0.3946  0.2922  0.6711
  147SAPE  H20R16246   1.975   4.508   9.046  0.1719 -0.7676 -0.3299
  147SAPE  H20S16247   1.976   4.420   9.203  1.1639  1.7293  1.4571
  147SAPE  H20T16248   2.048   4.341   9.058  0.6093  0.4319  0.4690
  147SAPE   C3316249   2.046   4.103  10.299 -0.5786 -0.4333 -0.6027
  147SAPE   H3X16250   2.087   4.000  10.306 -0.4754 -0.3468  0.1241
  147SAPE   H3Y16251   2.055   4.149  10.400 -0.9297 -1.5453 -0.0416
  147SAPE   C3416252   2.115   4.187  10.195 -0.1912 -0.1072  0.2009
  147SAPE   H4X16253   2.224   4.195  10.215 -0.2751  1.3623  0.2152
  147SAPE   H4Y16254   2.078   4.292  10.202 -0.5937 -0.1205 -1.3080
  147SAPE   C3516255   2.106   4.119  10.062 -0.3083 -0.0660  0.2327
  147SAPE   H5X16256   2.001   4.101  10.028 -0.5736  1.0519  0.4053
  147SAPE   H5Y16257   2.152   4.020  10.082  1.6055  0.8542  0.6458
  147SAPE   C3616258   2.196   4.175   9.948  0.1548  0.5686  0.1831
  147SAPE   H6X16259   2.299   4.192   9.986  0.3911  0.6793 -0.4983
  147SAPE   H6Y16260   2.164   4.279   9.925 -2.3807 -0.2527 -0.2524
  147SAPE   C3716261   2.201   4.095   9.811  0.4654 -1.0534  0.1257
  147SAPE   H7X16262   2.105   4.103   9.755 -0.3226 -0.1258  1.5621
  147SAPE   H7Y16263   2.215   3.987   9.833  1.2948 -0.6792  1.5223
  147SAPE   C3816264   2.324   4.127   9.721 -0.6557 -0.1790  0.0270
  147SAPE   H8X16265   2.413   4.118   9.787 -1.3201  1.1402  1.1510
  147SAPE   H8Y16266   2.325   4.234   9.692  0.2645  0.1204  1.1037
  147SAPE   C3916267   2.337   4.057   9.591  0.5485 -0.3850  0.0082
  147SAPE   H9X16268   2.415   4.106   9.529  1.0403  0.1989  1.0483
  147SAPE   H9Y16269   2.239   4.084   9.548  0.2860  0.0865  0.8685
  147SAPE  C31016270   2.333   3.905   9.595  0.7209 -0.0989  0.8945
  147SAPE  H10X16271   2.259   3.878   9.673  0.5483 -1.2904  0.3433
  147SAPE  H10Y16272   2.428   3.862   9.632  0.7168  0.4316  1.5291
  147SAPE  C31116273   2.311   3.842   9.448 -0.3628  0.4910 -0.0446
  147SAPE  H11X16274   2.205   3.841   9.417 -0.7302  0.4291  1.1745
  147SAPE  H11Y16275   2.332   3.733   9.451  1.9753  0.9026  0.3823
  147SAPE  C31216276   2.414   3.894   9.347 -0.4303 -0.2410 -0.3598
  147SAPE  H12X16277   2.513   3.895   9.398  0.7466 -1.6562 -2.4703
  147SAPE  H12Y16278   2.392   4.001   9.326  1.7666  0.6410  1.4099
  147SAPE  C31316279   2.425   3.832   9.202  0.2403  0.2933 -0.4516
  147SAPE  H13X16280   2.326   3.842   9.151 -0.3368 -0.5963  0.4720
  147SAPE  H13Y16281   2.449   3.724   9.204 -0.4374  0.1422 -0.2401
  147SAPE  C31416282   2.521   3.907   9.109  0.6567 -0.2734  0.4380
  147SAPE  H14X16283   2.626   3.899   9.144  1.1119  2.2136 -0.1803
  147SAPE  H14Y16284   2.497   4.015   9.099  1.5796 -0.1805 -0.9588
  147SAPE  C31516285   2.507   3.856   8.969 -0.0183 -0.4089  0.2399
  147SAPE  H15X16286   2.493   3.746   8.971  0.5369 -0.4750  1.8874
  147SAPE  H15Y16287   2.601   3.870   8.911 -0.6019 -1.0748 -0.8948
  147SAPE  C31616288   2.388   3.920   8.896 -0.3443 -0.2981  0.3188
  147SAPE  H16X16289   2.394   4.030   8.885  2.8091 -0.4786 -0.8535
  147SAPE  H16Y16290   2.289   3.908   8.946 -1.5453  2.6628 -1.1075
  147SAPE  C31716291   2.374   3.867   8.753 -0.0879  0.3902 -0.4773
  147SAPE  H17X16292   2.271   3.833   8.729  0.0533  0.0316 -0.5784
  147SAPE  H17Y16293   2.442   3.780   8.745  0.3042  0.7687 -1.6030
  147SAPE  C31816294   2.423   3.970   8.647  0.2416 -0.1341 -0.4239
  147SAPE  H18X16295   2.525   4.007   8.670 -0.5051  2.5054 -1.0508
  147SAPE  H18Y16296   2.359   4.061   8.648 -0.1392 -0.4010 -0.4806
  147SAPE  H18Z16297   2.414   3.925   8.546  2.3679 -0.5261 -0.4878
  148SAPE     N16298   5.053   3.687  10.633 -0.0663 -0.4741 -0.5173
  148SAPE   HN116299   4.995   3.773  10.626 -0.3239 -0.3697  2.0344
  148SAPE   HN216300   4.986   3.608  10.637 -0.2368 -0.2960  0.3310
  148SAPE   HN316301   5.112   3.693  10.719 -0.3001 -1.1379 -0.3003
  148SAPE   C1216302   5.158   3.682  10.522  0.0834 -0.5154 -0.1815
  148SAPE  H12A16303   5.234   3.761  10.542  0.1202 -0.8322  0.9841
  148SAPE  H12B16304   5.116   3.705  10.421 -1.5633 -1.9145  0.1524
  148SAPE   C1116305   5.220   3.546  10.527 -0.5071  0.1615  0.5240
  148SAPE  H11A16306   5.280   3.515  10.439 -2.6611  0.4019 -1.1134
  148SAPE  H11B16307   5.139   3.471  10.539 -0.4719  0.3014  1.7367
  148SAPE     P16308   5.390   3.417  10.675  0.0754  0.0629 -0.4958
  148SAPE   O1316309   5.518   3.451  10.745 -0.1200  0.4150 -0.3835
  148SAPE   O1416310   5.303   3.322  10.751 -0.3569  0.4518  0.3420
  148SAPE   O1216311   5.311   3.543  10.637 -0.2453  0.1899  0.1584
  148SAPE   O1116312   5.425   3.343  10.541  0.1385 -0.0701  0.3549
  148SAPE    C116313   5.548   3.379  10.474  0.1114 -0.1669  0.1401
  148SAPE    HA16314   5.574   3.485  10.496  0.7759 -0.6422  1.7817
  148SAPE    HB16315   5.632   3.313  10.506  0.9023 -0.0184 -1.4857
  148SAPE    C216316   5.534   3.366  10.318  0.5447  1.1076 -0.7636
  148SAPE    HS16317   5.639   3.370  10.281  0.8479 -2.0345 -0.5833
  148SAPE   O2116318   5.451   3.466  10.260  0.0275  0.1846  0.4385
  148SAPE   C2116319   5.504   3.572  10.238 -0.5478 -0.2342 -0.6046
  148SAPE   O2216320   5.622   3.606  10.262 -0.0973 -0.0034  0.0150
  148SAPE   C2216321   5.403   3.675  10.196  0.3769 -0.4937  0.4543
  148SAPE   H2R16322   5.300   3.643  10.222  0.2632  0.1029  0.7477
  148SAPE   H2S16323   5.420   3.766  10.257 -2.2757 -0.2468  0.9508
  148SAPE    C316324   5.477   3.220  10.292 -0.7049  0.2899 -0.1804
  148SAPE    HX16325   5.384   3.199  10.348 -0.4718 -2.7984 -0.7587
  148SAPE    HY16326   5.541   3.142  10.339  0.3194  0.7082 -0.8300
  148SAPE   O3116327   5.462   3.197  10.148  0.4478 -0.0543  0.0468
  148SAPE   C3116328   5.571   3.183  10.076  0.0027  0.3701 -0.2775
  148SAPE   O3216329   5.685   3.188  10.109 -0.1790  0.0668 -0.6311
  148SAPE   C3216330   5.526   3.147   9.928  0.0832 -0.0995 -0.2353
  148SAPE   H2X16331   5.468   3.052   9.927 -2.2596  1.2000  1.3076
  148SAPE   H2Y16332   5.616   3.132   9.864 -0.2914 -2.6656 -0.2562
  148SAPE   C2316333   5.410   3.721  10.052  0.1932  0.2631  0.0680
  148SAPE   H3R16334   5.363   3.649   9.981  2.0866 -1.1753  0.1695
  148SAPE   H3S16335   5.515   3.713  10.016 -0.0087  1.4179 -0.8424
  148SAPE   C2416336   5.375   3.871  10.041  0.6499 -0.2549 -0.1993
  148SAPE   H4R16337   5.401   3.892   9.935 -1.9234 -0.9928 -1.0352
  148SAPE   H4S16338   5.448   3.936  10.095 -0.6066  0.7095  0.3996
  148SAPE   C2516339   5.233   3.908  10.070  0.3989  0.2181 -0.2643
  148SAPE   H5R16340   5.205   3.890  10.175  1.1742 -1.7497 -0.3534
  148SAPE   C2616341   5.138   3.939   9.986 -0.2714 -0.1151 -0.4614
  148SAPE   H6R16342   5.046   3.975  10.033  1.9885  0.2030  4.2700
  148SAPE   C2716343   5.152   3.951   9.838  0.2348  0.0101  0.5063
  148SAPE   H7R16344   5.048   3.945   9.800  0.9300 -2.1500 -1.1897
  148SAPE   H7S16345   5.194   3.863   9.786  0.3530  0.3487  0.0218
  148SAPE   C2816346   5.222   4.076   9.785  0.4265 -0.0434 -0.5443
  148SAPE   H8R16347   5.304   4.110   9.849  0.1527  2.1279 -1.2553
  148SAPE   C2916348   5.198   4.143   9.668 -0.0384  0.2821  0.4318
  148SAPE   H9R16349   5.260   4.230   9.640 -0.4113  0.3212 -0.2926
  148SAPE  C21016350   5.092   4.099   9.572 -0.2686  0.1584 -0.0636
  148SAPE  H10R16351   4.990   4.111   9.615 -0.8563  0.6803 -1.5641
  148SAPE  H10S16352   5.119   3.992   9.560  2.4576  0.8559 -0.8560
  148SAPE  C21116353   5.089   4.178   9.440 -0.0550 -0.1681 -0.0869
  148SAPE  H11R16354   5.087   4.287   9.455 -0.0001  0.3298 -3.1406
  148SAPE  C21216355   5.085   4.137   9.310 -0.4176 -0.7136 -0.4535
  148SAPE  H12R16356   5.074   4.221   9.239 -2.1341  0.7604  1.4385
  148SAPE  C21316357   5.110   3.992   9.258  0.0029  1.0450  1.0268
  148SAPE  H13R16358   5.130   3.917   9.338  1.0075 -0.1444 -0.2975
  148SAPE  H13S16359   5.202   3.995   9.196  2.3916 -2.1856  4.0487
  148SAPE  C21416360   4.984   3.961   9.181  0.5818 -0.0362 -0.1065
  148SAPE  H14R16361   4.893   3.970   9.242  1.6504  0.3918  1.4980
  148SAPE  C21516362   4.968   3.944   9.050 -0.3824  0.1942  0.0351
  148SAPE  H15R16363   4.867   3.916   9.015 -1.0937 -0.9052  2.6761
  148SAPE  C21616364   5.086   3.951   8.954  0.1227 -0.0311  0.0967
  148SAPE  H16R16365   5.162   4.020   8.998 -1.4250  0.6337  1.8594
  148SAPE  H16S16366   5.050   4.002   8.862 -1.4853  0.4435  0.9550
  148SAPE  C21716367   5.152   3.812   8.928  0.2084  0.2767  0.7613
  148SAPE  H17R16368   5.156   3.753   9.021 -0.6400  1.1779  1.3964
  148SAPE  H17S16369   5.261   3.816   8.909  0.5927  1.1776  2.8847
  148SAPE  C21816370   5.071   3.734   8.825 -0.3582 -0.1623 -0.5088
  148SAPE  H18R16371   4.974   3.693   8.862 -0.0387 -0.3424  0.1551
  148SAPE  H18S16372   5.131   3.646   8.796  2.4341  1.4507  0.0094
  148SAPE  C21916373   5.047   3.801   8.687  0.4696 -0.0382 -0.3781
  148SAPE  H19R16374   5.140   3.861   8.673  1.6357 -1.3242  1.4092
  148SAPE  H19S16375   4.969   3.881   8.692  0.8714  0.2837  1.2225
  148SAPE  C22016376   5.014   3.710   8.576  0.6504  0.6268 -0.2093
  148SAPE  H20R16377   5.087   3.627   8.587 -0.8528 -0.5550  1.4720
  148SAPE  H20S16378   5.021   3.761   8.478 -0.9489  0.8126 -0.2504
  148SAPE  H20T16379   4.907   3.684   8.587  0.8504  0.0008  0.3480
  148SAPE   C3316380   5.452   3.264   9.857  0.4328  0.4587 -0.3005
  148SAPE   H3X16381   5.357   3.282   9.912  1.1406  3.5807  0.0746
  148SAPE   H3Y16382   5.424   3.228   9.755  1.6818 -1.4530 -0.0232
  148SAPE   C3416383   5.537   3.389   9.827  0.1600  0.1511 -0.0900
  148SAPE   H4X16384   5.618   3.360   9.756  0.3277 -1.1046  0.5907
  148SAPE   H4Y16385   5.572   3.439   9.920 -2.0029 -0.1402  0.9298
  148SAPE   C3516386   5.453   3.491   9.755 -0.7098 -0.2321  1.3510
  148SAPE   H5X16387   5.370   3.533   9.817 -1.8689 -0.8817  0.2781
  148SAPE   H5Y16388   5.406   3.439   9.669 -1.3090 -1.8221  2.5739
  148SAPE   C3616389   5.537   3.614   9.700  0.0585 -0.3033 -0.1736
  148SAPE   H6X16390   5.619   3.588   9.630  1.5834  1.7967  0.7175
  148SAPE   H6Y16391   5.595   3.653   9.786 -0.1501  0.4562 -0.3688
  148SAPE   C3716392   5.448   3.727   9.647 -0.0639  0.0890 -0.2079
  148SAPE   H7X16393   5.481   3.820   9.699  0.4359  0.5421 -1.3141
  148SAPE   H7Y16394   5.341   3.713   9.676  0.0006 -2.7639 -1.0446
  148SAPE   C3816395   5.451   3.733   9.500 -0.7394  0.6710  1.0500
  148SAPE   H8X16396   5.553   3.764   9.467 -1.1293  1.2470  0.3687
  148SAPE   H8Y16397   5.391   3.820   9.464  0.9531  0.2339 -3.4730
  148SAPE   C3916398   5.421   3.603   9.420  0.3135 -0.3305  0.2971
  148SAPE   H9X16399   5.349   3.537   9.474 -0.9414 -1.2767 -2.3651
  148SAPE   H9Y16400   5.514   3.543   9.410  0.4030 -0.3089  0.9106
  148SAPE  C31016401   5.373   3.624   9.267 -0.4439 -0.8522 -0.6073
  148SAPE  H10X16402   5.459   3.679   9.223 -0.1764 -1.1719 -0.4944
  148SAPE  H10Y16403   5.276   3.678   9.266 -0.3468 -0.5414  1.3486
  148SAPE  C31116404   5.347   3.487   9.200 -0.2865 -0.3080  0.1530
  148SAPE  H11X16405   5.293   3.429   9.279 -0.7672  2.0974  1.7038
  148SAPE  H11Y16406   5.439   3.432   9.172  0.4949  0.3524  1.3206
  148SAPE  C31216407   5.270   3.504   9.073  0.1218 -0.2085  0.1227
  148SAPE  H12X16408   5.318   3.569   8.996  1.1076 -2.1255 -0.9744
  148SAPE  H12Y16409   5.176   3.552   9.106 -0.6852 -1.2861 -0.5096
  148SAPE  C31316410   5.243   3.367   9.002  0.4011  0.8613 -0.1641
  148SAPE  H13X16411   5.160   3.384   8.930  2.2849 -1.9801 -3.3304
  148SAPE  H13Y16412   5.232   3.283   9.073  0.6267  0.9769  0.0104
  148SAPE  C31416413   5.359   3.334   8.902 -0.5599  0.0301  0.0488
  148SAPE  H14X16414   5.450   3.307   8.959 -1.5748  0.7763  2.1402
  148SAPE  H14Y16415   5.376   3.436   8.863  1.4158 -0.0469  0.6337
  148SAPE  C31516416   5.322   3.240   8.790 -0.4241  0.3473  0.2662
  148SAPE  H15X16417   5.218   3.266   8.762 -2.1443 -1.0476  4.4822
  148SAPE  H15Y16418   5.305   3.142   8.841  0.3983 -0.6633 -1.3005
  148SAPE  C31616419   5.415   3.221   8.666  0.4217  0.1113  0.0918
  148SAPE  H16X16420   5.517   3.190   8.699 -0.8130 -2.8852  1.4415
  148SAPE  H16Y16421   5.414   3.320   8.617  1.3150  0.6984  1.2258
  148SAPE  C31716422   5.356   3.120   8.564 -0.5760 -0.6805 -0.2971
  148SAPE  H17X16423   5.246   3.106   8.571 -0.6699 -2.2784 -3.4335
  148SAPE  H17Y16424   5.402   3.020   8.577  2.3641  0.4263 -1.4566
  148SAPE  C31816425   5.386   3.155   8.420 -0.3826  0.5568 -0.3218
  148SAPE  H18X16426   5.361   3.068   8.357 -0.8613  0.4603 -0.0024
  148SAPE  H18Y16427   5.492   3.187   8.405 -0.3017  0.1129 -0.6944
  148SAPE  H18Z16428   5.322   3.239   8.387 -0.3525  1.0743  0.8682
  149SAPE     N16429   4.467   4.541  11.083 -0.0647  0.2388  0.3035
  149SAPE   HN116430   4.440   4.633  11.123  0.5637 -0.4314  2.3893
  149SAPE   HN216431   4.435   4.464  11.145 -1.6821  0.0254 -0.7394
  149SAPE   HN316432   4.569   4.530  11.068 -0.1850  0.1377 -0.4486
  149SAPE   C1216433   4.404   4.523  10.950  0.0735 -0.4176 -0.6940
  149SAPE  H12A16434   4.459   4.592  10.882 -0.2032  0.8661  0.3351
  149SAPE  H12B16435   4.298   4.558  10.957  0.2436  0.1218 -0.7206
  149SAPE   C1116436   4.415   4.385  10.901  0.6752 -0.8311  0.8701
  149SAPE  H11A16437   4.516   4.371  10.855  0.1417  1.5358 -1.2360
  149SAPE  H11B16438   4.348   4.362  10.816 -1.2459  0.7151  1.8866
  149SAPE     P16439   4.295   4.186  11.042 -0.2358  0.2546  0.1402
  149SAPE   O1316440   4.347   4.122  11.165  0.2424  0.9163  0.0554
  149SAPE   O1416441   4.158   4.242  11.041 -0.7349  0.2432 -0.2534
  149SAPE   O1216442   4.403   4.291  11.006 -0.1392  0.3816 -0.4625
  149SAPE   O1116443   4.298   4.088  10.913 -0.3174  0.8732  0.4911
  149SAPE    C116444   4.416   4.039  10.840  0.1579  0.6605 -0.2414
  149SAPE    HA16445   4.511   4.030  10.897 -0.3215  1.8900  0.7783
  149SAPE    HB16446   4.388   3.932  10.824  3.1305 -0.0106 -1.6770
  149SAPE    C216447   4.429   4.083  10.687 -0.3833 -0.8046 -0.4426
  149SAPE    HS16448   4.494   4.173  10.685 -1.1098 -0.2716 -2.0862
  149SAPE   O2116449   4.298   4.125  10.645  0.4574 -0.0699  0.4996
  149SAPE   C2116450   4.275   4.241  10.592 -0.1924 -0.3587 -0.0251
  149SAPE   O2216451   4.363   4.329  10.576 -0.4527  0.1264 -0.4884
  149SAPE   C2216452   4.129   4.269  10.597 -0.1455  0.2694 -0.1913
  149SAPE   H2R16453   4.071   4.176  10.577 -0.4236  0.6323 -1.1046
  149SAPE   H2S16454   4.114   4.308  10.700  0.6136 -0.5469  0.2475
  149SAPE    C316455   4.504   3.980  10.602  0.1600 -0.5592  0.4392
  149SAPE    HX16456   4.441   3.889  10.594  1.7065 -1.8506  2.0735
  149SAPE    HY16457   4.598   3.940  10.646  0.6514  0.0023 -0.0771
  149SAPE   O3116458   4.532   4.027  10.471  0.1416  0.7226  0.3045
  149SAPE   C3116459   4.649   4.071  10.438  0.4813 -0.2429 -0.1743
  149SAPE   O3216460   4.751   4.066  10.503  0.5746 -0.0006 -0.0607
  149SAPE   C3216461   4.636   4.118  10.290 -0.1962 -0.1628 -0.5824
  149SAPE   H2X16462   4.528   4.112  10.264  0.1379  1.1497 -2.4344
  149SAPE   H2Y16463   4.694   4.040  10.236 -0.1644 -0.2045 -0.4894
  149SAPE   C2316464   4.094   4.368  10.483  0.3507  0.1194 -0.1475
  149SAPE   H3R16465   4.141   4.339  10.387  1.6580 -1.5253  0.9221
  149SAPE   H3S16466   4.127   4.471  10.507  0.2512  0.1246 -0.0334
  149SAPE   C2416467   3.943   4.380  10.453 -0.1368  0.8220  0.2675
  149SAPE   H4R16468   3.931   4.458  10.374  3.1726  0.5126 -0.7090
  149SAPE   H4S16469   3.893   4.417  10.545  0.9394 -0.0058  1.2146
  149SAPE   C2516470   3.878   4.251  10.403 -0.9845 -0.3474  0.3761
  149SAPE   H5R16471   3.860   4.188  10.491  2.3136 -0.3764  1.1975
  149SAPE   C2616472   3.867   4.202  10.283 -0.3130 -0.9661 -0.2945
  149SAPE   H6R16473   3.842   4.095  10.272  1.9272 -1.6196  0.2484
  149SAPE   C2716474   3.925   4.261  10.159 -0.1658  0.8096  0.0547
  149SAPE   H7R16475   4.019   4.313  10.187  0.8204 -0.3331 -1.0146
  149SAPE   H7S16476   3.863   4.341  10.113 -0.9042  1.3224  1.8528
  149SAPE   C2816477   3.964   4.149  10.059  0.0029 -0.2949  0.3408
  149SAPE   H8R16478   3.972   4.051  10.108 -0.8181 -0.3816  0.3165
  149SAPE   C2916479   3.983   4.161   9.924  0.0820  0.2982  0.1501
  149SAPE   H9R16480   4.006   4.071   9.865  2.5778  0.7719  0.2743
  149SAPE  C21016481   3.976   4.295   9.846  0.2555 -0.2138 -0.2275
  149SAPE  H10R16482   4.062   4.294   9.776 -0.7264 -2.0704 -1.5011
  149SAPE  H10S16483   3.992   4.381   9.914  0.0121 -0.7060  0.4603
  149SAPE  C21116484   3.845   4.315   9.779  0.1463 -0.2080 -0.1457
  149SAPE  H11R16485   3.763   4.314   9.852  0.4788  0.3369  0.2414
  149SAPE  C21216486   3.815   4.336   9.652  0.1188 -0.0841  0.4816
  149SAPE  H12R16487   3.713   4.354   9.616  0.9626  1.7266 -1.2196
  149SAPE  C21316488   3.922   4.344   9.540 -0.2418 -0.2914 -0.3824
  149SAPE  H13R16489   3.974   4.246   9.541  0.1840 -0.0644 -0.0176
  149SAPE  H13S16490   4.001   4.419   9.562  0.9403 -1.2984 -1.0880
  149SAPE  C21416491   3.872   4.371   9.404  0.0239 -0.7215  0.2040
  149SAPE  H14R16492   3.782   4.433   9.409 -0.4219 -1.1498 -1.5796
  149SAPE  C21516493   3.909   4.322   9.288  0.1218 -0.2238  0.0074
  149SAPE  H15R16494   3.857   4.376   9.207 -2.0338 -3.2572 -0.8209
  149SAPE  C21616495   4.010   4.215   9.257 -0.1009 -0.1731  0.3134
  149SAPE  H16R16496   4.104   4.237   9.312  0.6390  0.1586 -1.0535
  149SAPE  H16S16497   4.045   4.223   9.152  0.5675 -2.2661  0.3240
  149SAPE  C21716498   3.958   4.073   9.285 -0.2540 -0.2506 -0.6637
  149SAPE  H17R16499   3.863   4.060   9.228 -0.8803  0.6527  0.1334
  149SAPE  H17S16500   3.924   4.058   9.390 -2.9106 -1.2307 -1.5698
  149SAPE  C21816501   4.061   3.966   9.258  0.2323  0.4219  0.3986
  149SAPE  H18R16502   4.106   3.966   9.157 -0.7821 -2.8109 -0.1754
  149SAPE  H18S16503   4.003   3.871   9.267  0.5070  0.2330  0.1946
  149SAPE  C21916504   4.184   3.972   9.353  0.4515  0.2971  0.2245
  149SAPE  H19R16505   4.248   4.059   9.324  0.3376  0.2886 -0.0519
  149SAPE  H19S16506   4.242   3.880   9.329  1.8341  2.0537 -3.9818
  149SAPE  C22016507   4.161   3.971   9.505  0.4396 -0.3616  0.4304
  149SAPE  H20R16508   4.114   3.873   9.526  1.0194 -0.9811 -1.0370
  149SAPE  H20S16509   4.088   4.046   9.542 -0.2135 -2.9329  5.1617
  149SAPE  H20T16510   4.254   3.962   9.565 -0.3218 -1.0188  1.5723
  149SAPE   C3316511   4.692   4.262  10.265  0.0369  0.1730 -0.4208
  149SAPE   H3X16512   4.783   4.280  10.326  2.7704 -3.1605 -3.0764
  149SAPE   H3Y16513   4.609   4.330  10.296  1.8246  3.1263 -1.7019
  149SAPE   C3416514   4.720   4.292  10.120  0.1374  0.2431  0.8404
  149SAPE   H4X16515   4.728   4.401  10.101 -0.2547 -0.1112 -1.6087
  149SAPE   H4Y16516   4.632   4.261  10.060  0.1789  0.8549  0.4552
  149SAPE   C3516517   4.851   4.233  10.062 -0.0766  0.3910  0.6333
  149SAPE   H5X16518   4.855   4.126  10.095 -2.8086  0.2581  0.7897
  149SAPE   H5Y16519   4.926   4.292  10.118 -0.7018  0.5340  1.3343
  149SAPE   C3616520   4.879   4.242   9.915 -0.0131  0.1004  0.1968
  149SAPE   H6X16521   4.815   4.169   9.861 -0.1812 -0.4367  1.1106
  149SAPE   H6Y16522   4.976   4.198   9.884 -0.4289 -0.9372  0.3437
  149SAPE   C3716523   4.862   4.385   9.860 -0.0082 -0.5444 -0.6030
  149SAPE   H7X16524   4.934   4.452   9.911  1.7895 -1.3324 -2.0132
  149SAPE   H7Y16525   4.756   4.419   9.870  0.6357  1.5936 -0.4362
  149SAPE   C3816526   4.886   4.400   9.706  0.0830 -0.5918 -0.0561
  149SAPE   H8X16527   4.829   4.318   9.656  0.6937 -0.7830 -0.4497
  149SAPE   H8Y16528   4.993   4.382   9.682  0.3009  0.7497 -0.1587
  149SAPE   C3916529   4.833   4.535   9.663  0.0948 -0.1544  0.8428
  149SAPE   H9X16530   4.894   4.608   9.721 -0.6715  1.9388 -0.8175
  149SAPE   H9Y16531   4.723   4.549   9.675 -0.2005 -2.0989  0.6929
  149SAPE  C31016532   4.868   4.548   9.511 -0.7242 -0.8615  0.4445
  149SAPE  H10X16533   4.978   4.535   9.509 -0.4324  1.2377 -2.2445
  149SAPE  H10Y16534   4.847   4.653   9.483  1.5296 -0.1981  1.0491
  149SAPE  C31116535   4.802   4.448   9.413 -0.1646 -0.0056  0.3680
  149SAPE  H11X16536   4.692   4.461   9.422 -0.0773 -0.0305  1.7551
  149SAPE  H11Y16537   4.828   4.346   9.449  0.1585  0.8047  2.6147
  149SAPE  C31216538   4.859   4.456   9.270 -0.0570 -0.1912 -0.2929
  149SAPE  H12X16539   4.969   4.439   9.272  0.0260  0.2856  2.0612
  149SAPE  H12Y16540   4.843   4.560   9.233  2.1565 -0.0295 -0.9056
  149SAPE  C31316541   4.795   4.354   9.169 -0.4922  0.3277 -0.0477
  149SAPE  H13X16542   4.685   4.356   9.149 -0.4262  0.9799 -0.3621
  149SAPE  H13Y16543   4.804   4.254   9.216 -2.1509 -0.5456 -1.4321
  149SAPE  C31416544   4.866   4.360   9.034  0.2215  0.0969 -0.0258
  149SAPE  H14X16545   4.972   4.338   9.054  0.0496  0.2179  1.0669
  149SAPE  H14Y16546   4.856   4.462   8.990 -0.4912 -1.4735 -3.9301
  149SAPE  C31516547   4.793   4.265   8.934 -0.5797 -0.4118 -0.4451
  149SAPE  H15X16548   4.685   4.294   8.929 -0.8961 -1.7312 -1.9786
  149SAPE  H15Y16549   4.781   4.165   8.982 -3.2824  0.4657  0.9491
  149SAPE  C31616550   4.865   4.265   8.806  0.1019 -0.3390  0.8533
  149SAPE  H16X16551   4.969   4.227   8.812 -0.0997 -0.9584  0.5058
  149SAPE  H16Y16552   4.887   4.371   8.782  0.3743 -0.5985 -0.0886
  149SAPE  C31716553   4.787   4.200   8.695 -0.6066 -0.8402 -0.5931
  149SAPE  H17X16554   4.696   4.264   8.691  1.1574  2.0092  1.1968
  149SAPE  H17Y16555   4.759   4.097   8.724 -0.3279 -0.2959  1.7778
  149SAPE  C31816556   4.863   4.197   8.556  0.2199  0.9522 -0.5176
  149SAPE  H18X16557   4.970   4.168   8.552  0.9948  3.6129 -2.0658
  149SAPE  H18Y16558   4.832   4.284   8.493  0.5717  1.1123 -0.4734
  149SAPE  H18Z16559   4.812   4.114   8.503  3.1108 -1.6339  0.4865
  150SAPE     N16560   0.356   2.893  10.574  0.3277  0.4129  0.1999
  150SAPE   HN116561   0.395   2.963  10.508  0.7503  1.7481  1.7962
  150SAPE   HN216562   0.439   2.841  10.610 -0.5010 -0.2137  1.2463
  150SAPE   HN316563   0.302   2.821  10.522  0.4513 -1.0586  2.0056
  150SAPE   C1216564   0.255   2.947  10.684 -0.3179  0.6283  0.4964
  150SAPE  H12A16565   0.184   3.015  10.632 -2.2883 -0.1501  2.0409
  150SAPE  H12B16566   0.311   3.003  10.762  0.4406 -1.4585  1.5130
  150SAPE   C1116567   0.190   2.828  10.761  0.3792 -0.5754  0.0973
  150SAPE  H11A16568   0.137   2.764  10.687 -0.3151  1.1953 -1.0132
  150SAPE  H11B16569   0.109   2.877  10.818 -0.7830 -1.2969 -0.8914
  150SAPE     P16570   0.312   2.601  10.810  0.3238 -0.2226  0.2006
  150SAPE   O1316571   0.433   2.555  10.876  0.3273  0.2823 -0.1936
  150SAPE   O1416572   0.189   2.528  10.842  0.0228  0.7209  0.6233
  150SAPE   O1216573   0.286   2.752  10.841 -0.3379  0.1783  0.2220
  150SAPE   O1116574   0.331   2.608  10.654 -0.3101 -0.4186 -0.5652
  150SAPE    C116575   0.350   2.484  10.583 -0.5432  0.6423 -0.0665
  150SAPE    HA16576   0.446   2.434  10.609  0.4944  1.5027 -1.9960
  150SAPE    HB16577   0.275   2.409  10.617 -1.2501  1.7057  0.7742
  150SAPE    C216578   0.319   2.488  10.431  0.9639  0.0866 -0.1063
  150SAPE    HS16579   0.382   2.562  10.378  1.4840 -0.9589 -0.9911
  150SAPE   O2116580   0.178   2.512  10.401  0.3070 -0.1722 -0.3343
  150SAPE   C2116581   0.142   2.635  10.402 -0.6144 -0.5740 -0.9854
  150SAPE   O2216582   0.219   2.731  10.424  0.5282  0.0862  0.0676
  150SAPE   C2216583  -0.003   2.647  10.354  0.0521  0.0309 -0.1022
  150SAPE   H2R16584  -0.037   2.558  10.297 -0.9763  1.0312 -1.1083
  150SAPE   H2S16585  -0.073   2.659  10.439 -1.9620  0.6405 -1.7776
  150SAPE    C316586   0.359   2.349  10.367  0.6582  0.1656  0.3235
  150SAPE    HX16587   0.295   2.272  10.414 -2.5756  0.6890 -2.8184
  150SAPE    HY16588   0.467   2.324  10.380  1.5597  1.4259 -3.3059
  150SAPE   O3116589   0.338   2.349  10.220  0.0328 -0.4272 -0.2946
  150SAPE   C3116590   0.439   2.382  10.144  0.6320  0.4068 -0.1262
  150SAPE   O3216591   0.545   2.424  10.182  0.1466 -0.1566 -0.0863
  150SAPE   C3216592   0.415   2.335  10.002 -0.6105 -0.4864 -0.0896
  150SAPE   H2X16593   0.316   2.358   9.959  0.2881 -1.1892 -2.7286
  150SAPE   H2Y16594   0.419   2.224   9.997 -1.1487 -0.4819 -0.6909
  150SAPE   C2316595  -0.039   2.769  10.273  0.5894 -0.1223 -0.8459
  150SAPE   H3R16596   0.023   2.772  10.181 -0.1449  1.3920 -1.3245
  150SAPE   H3S16597  -0.021   2.857  10.338 -0.3802  0.5560 -1.4658
  150SAPE   C2416598  -0.188   2.767  10.239  0.4997 -0.5996 -0.0136
  150SAPE   H4R16599  -0.212   2.861  10.185  1.2764 -0.5691 -0.3192
  150SAPE   H4S16600  -0.243   2.774  10.336  1.1987 -0.1531  0.3634
  150SAPE   C2516601  -0.230   2.648  10.151  0.5464  0.2104  0.5814
  150SAPE   H5R16602  -0.253   2.554  10.203 -0.6998  1.1331  1.7649
  150SAPE   C2616603  -0.258   2.652  10.020 -0.1602  0.0830 -0.9499
  150SAPE   H6R16604  -0.306   2.566   9.970 -0.1810  0.5862 -1.8121
  150SAPE   C2716605  -0.236   2.767   9.929  0.4328 -0.4451 -0.9458
  150SAPE   H7R16606  -0.203   2.739   9.827  0.3571  0.1659 -1.1439
  150SAPE   H7S16607  -0.152   2.824   9.974  1.0606 -0.2632 -2.3084
  150SAPE   C2816608  -0.360   2.849   9.926  0.0647  0.0299 -0.1308
  150SAPE   H8R16609  -0.412   2.858  10.022 -2.6807 -0.0863 -1.4993
  150SAPE   C2916610  -0.397   2.933   9.830 -0.1791 -1.1920  0.0754
  150SAPE   H9R16611  -0.495   2.981   9.845 -0.1164 -1.1852  0.4656
  150SAPE  C21016612  -0.328   2.966   9.700 -1.2264  0.1054  0.4233
  150SAPE  H10R16613  -0.281   2.877   9.654  0.3260 -0.2589  2.5501
  150SAPE  H10S16614  -0.240   3.024   9.735  0.5429 -2.8743  1.1904
  150SAPE  C21116615  -0.419   3.039   9.608 -0.3885  0.0449  0.7568
  150SAPE  H11R16616  -0.500   3.094   9.657 -1.2176 -0.0298 -0.4631
  150SAPE  C21216617  -0.400   3.056   9.477  0.3450  0.1968  0.1129
  150SAPE  H12R16618  -0.472   3.115   9.419 -0.0842  0.1643  0.6048
  150SAPE  C21316619  -0.285   2.989   9.408 -0.2408 -0.1056  0.0669
  150SAPE  H13R16620  -0.335   2.911   9.346  1.4284 -0.4361 -0.9179
  150SAPE  H13S16621  -0.210   2.935   9.468 -0.0612 -1.7205 -1.5289
  150SAPE  C21416622  -0.212   3.097   9.334  0.7444  0.3454  0.5242
  150SAPE  H14R16623  -0.122   3.138   9.382  1.5714  0.0751 -0.7598
  150SAPE  C21516624  -0.241   3.133   9.207  0.0442 -0.2003 -1.2663
  150SAPE  H15R16625  -0.189   3.223   9.171 -1.5533  0.5772 -1.6880
  150SAPE  C21616626  -0.351   3.080   9.120  0.3711 -0.6037  0.2533
  150SAPE  H16R16627  -0.397   3.162   9.060 -3.2182 -1.7951  1.1222
  150SAPE  H16S16628  -0.436   3.041   9.181 -1.0081  1.8594  0.0695
  150SAPE  C21716629  -0.317   2.971   9.023 -0.5166  0.0418 -0.7765
  150SAPE  H17R16630  -0.399   2.914   8.974 -0.6102 -0.9834  0.5082
  150SAPE  H17S16631  -0.265   2.890   9.078  0.2564  1.2001  0.2444
  150SAPE  C21816632  -0.223   3.027   8.914 -0.0510 -0.2617 -0.2477
  150SAPE  H18R16633  -0.123   3.050   8.955 -0.3831 -0.1163  0.5037
  150SAPE  H18S16634  -0.263   3.116   8.860  1.4146 -1.6540 -3.9771
  150SAPE  C21916635  -0.198   2.923   8.797  0.0456  0.2410  0.4971
  150SAPE  H19R16636  -0.161   2.834   8.853  0.4003  0.2119  0.2138
  150SAPE  H19S16637  -0.116   2.959   8.731 -0.1664  0.1421  0.1790
  150SAPE  C22016638  -0.317   2.877   8.707 -0.7103  0.1416 -0.6896
  150SAPE  H20R16639  -0.325   2.767   8.713 -1.6107  0.2407  0.2403
  150SAPE  H20S16640  -0.317   2.910   8.601 -0.1298 -2.4038 -1.5403
  150SAPE  H20T16641  -0.409   2.928   8.743 -1.2328 -1.5494  0.4778
  150SAPE   C3316642   0.534   2.380   9.911  0.3693  0.7586  0.2057
  150SAPE   H3X16643   0.629   2.344   9.955  1.1705  2.3851 -0.1303
  150SAPE   H3Y16644   0.536   2.491   9.904  0.7831  0.7424  0.0692
  150SAPE   C3416645   0.519   2.327   9.772  0.3535  0.4341  0.5545
  150SAPE   H4X16646   0.480   2.224   9.763 -1.1782  1.0983 -1.0278
  150SAPE   H4Y16647   0.615   2.319   9.716 -0.0863  0.3538 -0.2090
  150SAPE   C3516648   0.423   2.413   9.685  0.1079  0.3700 -0.0387
  150SAPE   H5X16649   0.469   2.513   9.674  0.8012  0.1766  1.0305
  150SAPE   H5Y16650   0.325   2.434   9.734 -1.0007 -0.5143 -1.7644
  150SAPE   C3616651   0.399   2.354   9.544 -0.0722 -0.0305 -0.3887
  150SAPE   H6X16652   0.323   2.412   9.488 -1.0873  0.0368  0.9983
  150SAPE   H6Y16653   0.362   2.253   9.572 -0.7231  0.1841 -0.4584
  150SAPE   C3716654   0.523   2.341   9.449  0.2932  0.4725  0.7900
  150SAPE   H7X16655   0.592   2.267   9.494 -1.1593  0.1371  2.5954
  150SAPE   H7Y16656   0.579   2.436   9.436  1.5185 -0.0953  1.6749
  150SAPE   C3816657   0.474   2.300   9.305  0.4019 -0.2797 -0.7025
  150SAPE   H8X16658   0.394   2.223   9.318  1.8169 -1.8720 -1.0762
  150SAPE   H8Y16659   0.558   2.265   9.241  1.7470  3.0023 -0.9265
  150SAPE   C3916660   0.419   2.421   9.225 -0.5218  0.0230 -0.4860
  150SAPE   H9X16661   0.510   2.476   9.194  0.6227 -1.3037  0.3752
  150SAPE   H9Y16662   0.367   2.488   9.297  0.7798  0.6927 -0.1582
  150SAPE  C31016663   0.327   2.396   9.104  0.8565 -0.2828  0.2415
  150SAPE  H10X16664   0.231   2.356   9.145  1.5987  0.9176  3.4630
  150SAPE  H10Y16665   0.379   2.319   9.044 -1.6132 -1.7326 -0.2030
  150SAPE  C31116666   0.307   2.520   9.025  0.2421 -0.4479  0.6647
  150SAPE  H11X16667   0.401   2.573   8.998  1.4082 -0.8272  3.6196
  150SAPE  H11Y16668   0.265   2.605   9.083 -1.0209 -0.5081 -0.1352
  150SAPE  C31216669   0.226   2.510   8.895 -0.0508 -0.2885  0.4341
  150SAPE  H12X16670   0.266   2.432   8.827  0.1199 -0.1088  0.3282
  150SAPE  H12Y16671   0.245   2.607   8.845 -0.2623 -1.0452 -1.1871
  150SAPE  C31316672   0.074   2.473   8.897 -1.5415 -0.1691  0.2667
  150SAPE  H13X16673   0.071   2.372   8.945 -0.4461 -0.7842 -0.8912
  150SAPE  H13Y16674   0.035   2.484   8.794  1.4447  2.5444 -0.7622
  150SAPE  C31416675  -0.012   2.549   8.994 -0.1447 -0.0088  0.4513
  150SAPE  H14X16676  -0.017   2.655   8.963  1.7601 -0.3807 -1.3367
  150SAPE  H14Y16677   0.021   2.550   9.100  0.4115  3.2600  0.3655
  150SAPE  C31516678  -0.155   2.495   8.998  0.3458 -0.0098  0.1322
  150SAPE  H15X16679  -0.152   2.384   9.010 -1.4245 -0.0804  0.0772
  150SAPE  H15Y16680  -0.201   2.518   8.900 -2.4853 -0.4389  1.2602
  150SAPE  C31616681  -0.250   2.545   9.111  0.1288  0.3180 -0.3084
  150SAPE  H16X16682  -0.354   2.528   9.076  0.3331  0.8005 -1.1947
  150SAPE  H16Y16683  -0.231   2.655   9.104  0.4647  0.2172 -1.0804
  150SAPE  C31716684  -0.220   2.486   9.251 -0.2122  0.0273  0.0484
  150SAPE  H17X16685  -0.111   2.477   9.271  0.3259  1.2611 -2.0609
  150SAPE  H17Y16686  -0.256   2.381   9.246 -1.6969  0.3082  3.0357
  150SAPE  C31816687  -0.282   2.555   9.376 -0.4443  0.2938  0.4735
  150SAPE  H18X16688  -0.232   2.654   9.384  0.0020 -0.0554  2.2063
  150SAPE  H18Y16689  -0.268   2.491   9.465 -1.2365 -1.2715 -0.4709
  150SAPE  H18Z16690  -0.393   2.564   9.364 -0.4021  0.7893  0.4258
  151SAPE     N16691   4.794   0.961  10.843  0.1106 -0.8639  0.4366
  151SAPE   HN116692   4.878   0.999  10.892 -1.2298  2.9430  0.0863
  151SAPE   HN216693   4.713   0.980  10.904  0.2574  0.0373  0.3706
  151SAPE   HN316694   4.812   0.858  10.842 -0.5094 -0.9855  1.3847
  151SAPE   C1216695   4.792   1.047  10.718 -0.3773  1.2587 -0.3493
  151SAPE  H12A16696   4.791   1.153  10.751 -2.1854  1.5302 -1.1535
  151SAPE  H12B16697   4.711   1.023  10.646 -0.4105  2.5915 -0.7842
  151SAPE   C1116698   4.932   1.031  10.652 -0.6196 -0.1590 -0.0098
  151SAPE  H11A16699   5.017   1.075  10.709  0.3763 -0.9339 -0.8758
  151SAPE  H11B16700   4.926   1.098  10.564 -1.0647 -0.2910 -0.0864
  151SAPE     P16701   4.881   0.813  10.500  0.0450 -0.5074  0.2153
  151SAPE   O1316702   4.936   0.677  10.496  0.6539  0.4520  0.4033
  151SAPE   O1416703   4.736   0.824  10.519  0.0247  0.0107  0.7534
  151SAPE   O1216704   4.951   0.894  10.620  0.3794 -0.4859  0.1882
  151SAPE   O1116705   4.924   0.903  10.381 -0.4863 -0.5874  0.0270
  151SAPE    C116706   5.048   0.889  10.316 -0.1796  0.3301 -0.4483
  151SAPE    HA16707   5.094   0.791  10.340 -1.3524 -0.2381 -0.4778
  151SAPE    HB16708   5.031   0.901  10.207  0.7877 -1.1340 -0.7825
  151SAPE    C216709   5.154   0.997  10.356 -0.5592  0.6154 -0.4941
  151SAPE    HS16710   5.184   0.984  10.462  0.0014 -0.0881 -0.7307
  151SAPE   O2116711   5.093   1.125  10.344  0.1563 -0.2672  0.1326
  151SAPE   C2116712   5.158   1.234  10.380 -1.0660 -0.4006 -0.0517
  151SAPE   O2216713   5.274   1.234  10.428  0.0875 -0.6615 -0.3935
  151SAPE   C2216714   5.072   1.349  10.347  0.0011 -0.8889  0.3297
  151SAPE   H2R16715   5.072   1.359  10.237  0.3075 -0.9627  0.3210
  151SAPE   H2S16716   4.966   1.342  10.379 -0.2422 -1.0076 -0.4994
  151SAPE    C316717   5.283   0.978  10.280 -0.1528  0.3204 -0.2329
  151SAPE    HX16718   5.301   0.868  10.287 -0.5587  0.2174 -0.7274
  151SAPE    HY16719   5.370   1.037  10.315  0.0465 -1.0586  1.7760
  151SAPE   O3116720   5.260   0.981  10.136  0.1251  0.3473  0.2324
  151SAPE   C3116721   5.292   1.098  10.081  0.3259 -0.3725  0.2163
  151SAPE   O3216722   5.349   1.194  10.130 -0.8567  0.1925 -0.2616
  151SAPE   C3216723   5.241   1.092   9.936  0.6365 -0.5720 -0.4303
  151SAPE   H2X16724   5.193   0.993   9.925 -0.1809 -0.0448 -1.9260
  151SAPE   H2Y16725   5.332   1.100   9.873  0.2709  2.4032 -0.7308
  151SAPE   C2316726   5.124   1.488  10.403  0.9538  0.4963  0.9310
  151SAPE   H3R16727   5.235   1.485  10.398  0.8879  0.6513 -1.0599
  151SAPE   H3S16728   5.096   1.496  10.510 -0.5470  0.3508  0.5641
  151SAPE   C2416729   5.066   1.606  10.323 -0.4367 -0.5435 -0.0852
  151SAPE   H4R16730   5.129   1.623  10.233 -0.4636  0.0468  0.0019
  151SAPE   H4S16731   5.084   1.698  10.382  0.6533  0.4758 -1.8997
  151SAPE   C2516732   4.920   1.604  10.292  0.0795 -0.1099 -0.1676
  151SAPE   H5R16733   4.856   1.631  10.377  1.5545 -0.2939  1.0510
  151SAPE   C2616734   4.868   1.571  10.170  0.0648  0.1481  0.0510
  151SAPE   H6R16735   4.759   1.555  10.170  0.3111 -1.6898  0.6031
  151SAPE   C2716736   4.946   1.540  10.042 -0.3016  0.1756 -0.0043
  151SAPE   H7R16737   4.908   1.442  10.006  1.5258 -0.9507  0.9970
  151SAPE   H7S16738   5.056   1.542  10.052 -0.3896 -0.7760  1.6625
  151SAPE   C2816739   4.903   1.651   9.945  0.1693  0.4978 -0.7818
  151SAPE   H8R16740   4.868   1.746   9.988 -0.0959  0.1827 -0.2913
  151SAPE   C2916741   4.911   1.654   9.810 -0.1049 -0.3274 -0.1733
  151SAPE   H9R16742   4.862   1.744   9.769  0.5066  0.2098  0.2539
  151SAPE  C21016743   4.950   1.542   9.718  0.4174  0.2405 -0.4142
  151SAPE  H10R16744   4.867   1.495   9.661  3.4378 -3.3201 -2.2822
  151SAPE  H10S16745   4.999   1.451   9.758 -0.2422 -0.6985 -1.6888
  151SAPE  C21116746   5.049   1.603   9.625  0.1632  0.2453  0.1557
  151SAPE  H11R16747   5.118   1.678   9.667 -1.3511  0.4904  2.3696
  151SAPE  C21216748   5.048   1.597   9.487  0.0798 -0.2585 -0.3782
  151SAPE  H12R16749   5.116   1.665   9.434  0.3498 -0.2982 -0.0893
  151SAPE  C21316750   4.948   1.527   9.403  0.4047 -0.4339 -0.0097
  151SAPE  H13R16751   4.907   1.440   9.459  0.8153 -0.3221  0.4720
  151SAPE  H13S16752   4.998   1.479   9.316  1.3095 -1.0227  0.8136
  151SAPE  C21416753   4.842   1.626   9.359 -0.3009  0.5622  0.3699
  151SAPE  H14R16754   4.820   1.709   9.428 -0.5009  0.0542  0.9276
  151SAPE  C21516755   4.777   1.617   9.242 -0.5035  0.0845  0.2508
  151SAPE  H15R16756   4.693   1.684   9.218  0.2486  0.0846 -2.8438
  151SAPE  C21616757   4.791   1.508   9.140  0.5851 -0.1187 -0.8971
  151SAPE  H16R16758   4.690   1.478   9.103  0.4283  1.8836 -2.2496
  151SAPE  H16S16759   4.836   1.416   9.183 -1.5569  0.8892  4.1357
  151SAPE  C21716760   4.872   1.551   9.020  0.2220  0.0244 -0.7465
  151SAPE  H17R16761   4.975   1.527   9.052 -0.3540 -0.8457  0.5969
  151SAPE  H17S16762   4.864   1.659   8.998  1.6081  0.1093 -0.8974
  151SAPE  C21816763   4.845   1.477   8.890 -0.2529 -0.0801 -0.1296
  151SAPE  H18R16764   4.840   1.366   8.898 -2.4636 -0.1384 -1.4744
  151SAPE  H18S16765   4.934   1.496   8.827  1.7272 -0.3354  2.4030
  151SAPE  C21916766   4.721   1.535   8.812 -0.7960 -0.7737 -0.2927
  151SAPE  H19R16767   4.719   1.646   8.821 -2.8615 -0.8119  0.4333
  151SAPE  H19S16768   4.626   1.505   8.861 -1.0339  1.7349  0.9889
  151SAPE  C22016769   4.708   1.496   8.667  0.1974 -0.3282 -0.6791
  151SAPE  H20R16770   4.727   1.387   8.655  0.2513 -0.3577 -0.3473
  151SAPE  H20S16771   4.767   1.553   8.592 -0.8193 -1.5774 -2.4989
  151SAPE  H20T16772   4.600   1.508   8.644  0.0979 -1.7320 -1.0546
  151SAPE   C3316773   5.143   1.205   9.897  0.4417  0.3970  0.0686
  151SAPE   H3X16774   5.207   1.285   9.856  2.4149  0.0972  2.3953
  151SAPE   H3Y16775   5.092   1.250   9.985  2.9994  1.8362  0.9151
  151SAPE   C3416776   5.036   1.148   9.798  0.8698 -0.0437 -1.1293
  151SAPE   H4X16777   4.954   1.219   9.777 -0.1572 -0.9272 -0.2365
  151SAPE   H4Y16778   4.978   1.065   9.843 -0.2700  0.0027 -2.4484
  151SAPE   C3516779   5.072   1.069   9.664 -1.1118 -0.7382  0.4880
  151SAPE   H5X16780   5.022   0.971   9.678 -1.4909 -0.5481  0.4694
  151SAPE   H5Y16781   5.182   1.051   9.658 -0.6928  1.9341 -1.7724
  151SAPE   C3616782   5.033   1.142   9.535  0.2501  0.0053  0.4046
  151SAPE   H6X16783   5.077   1.243   9.548 -0.4195  0.1692  1.5075
  151SAPE   H6Y16784   4.923   1.152   9.539  0.2441 -0.4521  1.5859
  151SAPE   C3716785   5.081   1.081   9.404 -0.1869 -0.6531  0.5094
  151SAPE   H7X16786   5.051   0.974   9.399 -3.6585  0.1883  0.9198
  151SAPE   H7Y16787   5.192   1.087   9.400 -0.1038 -1.5952  0.9955
  151SAPE   C3816788   5.034   1.149   9.276  0.6481 -0.5368  0.0160
  151SAPE   H8X16789   5.028   1.260   9.283  0.5952 -0.6132  1.5197
  151SAPE   H8Y16790   4.927   1.122   9.258 -0.0056  1.9134 -0.2094
  151SAPE   C3916791   5.107   1.111   9.145  0.4190  0.1521 -0.2949
  151SAPE   H9X16792   5.059   1.013   9.125 -0.2740  0.2744  0.7039
  151SAPE   H9Y16793   5.216   1.095   9.157  0.3860  0.2405  0.1338
  151SAPE  C31016794   5.071   1.208   9.030 -0.4474  0.6873  0.3488
  151SAPE  H10X16795   5.134   1.300   9.030 -1.7543  1.6145  1.1674
  151SAPE  H10Y16796   4.964   1.236   9.034 -0.6873 -0.3435  1.5852
  151SAPE  C31116797   5.088   1.124   8.899  0.3178 -0.0407  0.0794
  151SAPE  H11X16798   4.994   1.068   8.883 -0.2364  0.6907  0.6947
  151SAPE  H11Y16799   5.178   1.059   8.903  0.0468 -0.3310  2.6190
  151SAPE  C31216800   5.116   1.211   8.776 -0.1364  0.8557  0.0208
  151SAPE  H12X16801   5.206   1.275   8.787 -0.5041  1.2825  0.6555
  151SAPE  H12Y16802   5.019   1.258   8.750 -0.2921 -0.5735 -2.1826
  151SAPE  C31316803   5.154   1.120   8.659 -0.0670 -0.5341 -0.7974
  151SAPE  H13X16804   5.072   1.046   8.660 -1.0303  0.4040 -2.9115
  151SAPE  H13Y16805   5.247   1.067   8.686  1.1664  1.8412 -0.0832
  151SAPE  C31416806   5.164   1.188   8.521  0.5551  0.3906  0.0829
  151SAPE  H14X16807   5.199   1.119   8.441 -0.1798  2.2594 -1.9608
  151SAPE  H14Y16808   5.248   1.261   8.519  0.0005  1.2483  3.2369
  151SAPE  C31516809   5.037   1.265   8.484 -0.1892 -0.1543  0.8275
  151SAPE  H15X16810   5.024   1.357   8.544 -1.1913  0.5227 -0.3894
  151SAPE  H15Y16811   4.948   1.209   8.520 -0.3224 -0.7228 -0.3240
  151SAPE  C31616812   5.028   1.287   8.331  0.1144 -0.0490 -0.4663
  151SAPE  H16X16813   5.002   1.191   8.282  1.8342 -1.2090  0.7819
  151SAPE  H16Y16814   5.129   1.319   8.298  1.6474  0.9833  4.4448
  151SAPE  C31716815   4.918   1.385   8.285  0.1176 -0.0299  0.5611
  151SAPE  H17X16816   4.954   1.487   8.311  2.3671 -0.3974 -0.7981
  151SAPE  H17Y16817   4.823   1.365   8.339 -1.1131 -0.2418 -1.5870
  151SAPE  C31816818   4.893   1.375   8.138  0.0323  0.4000 -0.0774
  151SAPE  H18X16819   4.908   1.271   8.102 -1.3514 -0.0823  0.6801
  151SAPE  H18Y16820   4.969   1.437   8.085  0.6359  0.9848  1.4234
  151SAPE  H18Z16821   4.795   1.415   8.106  0.0855  0.5931  0.0044
  152SAPE     N16822   5.557   1.243  10.528 -0.1890  0.4054  0.1105
  152SAPE   HN116823   5.533   1.150  10.568  0.7143 -0.6240 -1.5962
  152SAPE   HN216824   5.468   1.297  10.525 -0.7006 -0.3482 -3.4508
  152SAPE   HN316825   5.585   1.212  10.433  2.6950  1.3676  0.5406
  152SAPE   C1216826   5.661   1.313  10.608 -0.0925  0.4617 -0.4360
  152SAPE  H12A16827   5.638   1.304  10.717 -0.0072  1.2390 -0.3504
  152SAPE  H12B16828   5.650   1.420  10.580 -1.9043  0.1450 -1.0810
  152SAPE   C1116829   5.805   1.266  10.590  0.4379  0.4049  0.2710
  152SAPE  H11A16830   5.872   1.348  10.624 -0.7743  0.3466  3.0247
  152SAPE  H11B16831   5.821   1.232  10.485  1.5799  2.1565 -0.1681
  152SAPE     P16832   5.955   1.122  10.732  0.2249 -0.1301  0.4539
  152SAPE   O1316833   6.011   1.217  10.826  0.4002 -0.7011 -0.1570
  152SAPE   O1416834   5.946   0.983  10.778  0.5402 -0.0453  0.3499
  152SAPE   O1216835   5.817   1.158  10.677  0.0884 -0.4964 -0.1257
  152SAPE   O1116836   6.038   1.114  10.602 -0.2016  0.1059 -0.0055
  152SAPE    C116837   6.186   1.102  10.620 -0.3151 -0.6538  0.4404
  152SAPE    HA16838   6.231   1.144  10.712  0.5639 -0.4229 -0.0784
  152SAPE    HB16839   6.219   0.996  10.632  2.7472  0.3252  1.7247
  152SAPE    C216840   6.262   1.176  10.508  0.6113  0.1857 -0.2689
  152SAPE    HS16841   6.304   1.270  10.547 -0.3748  0.4880  0.0984
  152SAPE   O2116842   6.189   1.204  10.392  0.6656 -1.0431  0.7739
  152SAPE   C2116843   6.106   1.309  10.388 -0.3403 -0.0374  0.0620
  152SAPE   O2216844   6.074   1.373  10.483 -0.1065  0.6230 -0.2236
  152SAPE   C2216845   6.070   1.335  10.242 -0.2415 -0.0199 -0.5883
  152SAPE   H2R16846   6.074   1.445  10.227 -2.6520  0.3740  1.0299
  152SAPE   H2S16847   6.146   1.296  10.171  1.0370  1.2424  0.0703
  152SAPE    C316848   6.382   1.093  10.448  0.0605  0.3224 -0.7206
  152SAPE    HX16849   6.333   1.004  10.403 -0.0429 -0.0128  0.0346
  152SAPE    HY16850   6.450   1.050  10.525 -2.4754 -0.7555  1.0807
  152SAPE   O3116851   6.445   1.175  10.353 -0.0868 -0.2465  0.5357
  152SAPE   C3116852   6.510   1.091  10.277  0.4452  1.4411  0.5910
  152SAPE   O3216853   6.540   0.977  10.296  0.2223 -0.0126  0.5204
  152SAPE   C3216854   6.529   1.161  10.137  0.5080 -0.5257  0.3487
  152SAPE   H2X16855   6.634   1.146  10.103  0.5918 -0.6094  0.6367
  152SAPE   H2Y16856   6.501   1.267  10.154  0.5377 -0.8359  2.6841
  152SAPE   C2316857   5.922   1.301  10.226 -0.7852 -0.4932 -0.0839
  152SAPE   H3R16858   5.862   1.374  10.283 -4.0369 -2.4004 -0.7923
  152SAPE   H3S16859   5.900   1.201  10.269 -0.5185  0.0252  1.2827
  152SAPE   C2416860   5.867   1.280  10.082  0.4346 -0.6050 -0.5891
  152SAPE   H4R16861   5.873   1.373  10.022 -0.9099 -1.5879 -2.2973
  152SAPE   H4S16862   5.757   1.265  10.085  0.4486 -0.5408  1.0497
  152SAPE   C2516863   5.921   1.160  10.008 -0.2212  0.6217 -0.1100
  152SAPE   H5R16864   5.896   1.070  10.065  0.2777  0.0576 -0.7707
  152SAPE   C2616865   5.987   1.151   9.892  0.3957 -0.3245  0.4867
  152SAPE   H6R16866   6.020   1.051   9.860  0.9306 -0.8130  2.4209
  152SAPE   C2716867   6.015   1.277   9.809  0.3304  1.0015 -1.0946
  152SAPE   H7R16868   6.075   1.342   9.875  2.5520  0.0840 -2.1312
  152SAPE   H7S16869   5.918   1.325   9.783 -0.2325  0.6851  0.3181
  152SAPE   C2816870   6.088   1.240   9.682 -0.0110  0.0916  0.4338
  152SAPE   H8R16871   6.188   1.283   9.673  0.8534 -1.9075 -0.1969
  152SAPE   C2916872   6.040   1.169   9.577  0.8678  0.0750  0.2256
  152SAPE   H9R16873   6.114   1.144   9.500  2.7001  1.6230  1.3597
  152SAPE  C21016874   5.900   1.114   9.569  0.2347  0.4108  0.3142
  152SAPE  H10R16875   5.847   1.149   9.661 -0.4827  0.0937  0.0300
  152SAPE  H10S16876   5.920   1.004   9.574  1.6118  0.7007  2.6051
  152SAPE  C21116877   5.820   1.157   9.451  0.1451 -0.1772  0.2498
  152SAPE  H11R16878   5.725   1.209   9.472 -0.7028 -1.4247 -0.3365
  152SAPE  C21216879   5.842   1.132   9.321  0.0634 -0.3044 -0.3858
  152SAPE  H12R16880   5.767   1.175   9.252  1.3576  1.6022 -0.6705
  152SAPE  C21316881   5.966   1.063   9.261  0.0479 -0.6818 -0.0597
  152SAPE  H13R16882   5.928   0.965   9.224  0.4807 -0.8527 -0.0632
  152SAPE  H13S16883   6.037   1.045   9.345  0.2196  2.6163  0.6322
  152SAPE  C21416884   6.031   1.138   9.147 -0.4442  1.1609 -0.1400
  152SAPE  H14R16885   6.124   1.193   9.169  0.7873  0.3487 -2.8430
  152SAPE  C21516886   5.984   1.135   9.018  0.7131  0.3855  0.2901
  152SAPE  H15R16887   6.045   1.191   8.945 -1.3336  1.3163 -0.8087
  152SAPE  C21616888   5.860   1.070   8.962 -0.8514  0.7397  0.1302
  152SAPE  H16R16889   5.777   1.057   9.034 -1.8195 -0.2727 -1.1050
  152SAPE  H16S16890   5.897   0.970   8.927 -1.0496 -0.1197  2.2446
  152SAPE  C21716891   5.813   1.160   8.846  0.5833 -0.3070 -0.2945
  152SAPE  H17R16892   5.889   1.159   8.766  1.8856 -0.6060  0.9047
  152SAPE  H17S16893   5.785   1.261   8.883  0.7385 -0.1387 -0.6388
  152SAPE  C21816894   5.679   1.107   8.791 -0.4849 -0.0212  0.8304
  152SAPE  H18R16895   5.598   1.130   8.863 -0.5435  0.0059  0.7567
  152SAPE  H18S16896   5.672   0.997   8.775 -4.0533 -0.0455  1.7859
  152SAPE  C21916897   5.649   1.181   8.658 -0.0748 -0.0841 -0.0367
  152SAPE  H19R16898   5.634   1.289   8.675  3.8060  1.0388 -2.4058
  152SAPE  H19S16899   5.548   1.146   8.625 -0.4695  1.1456 -0.1717
  152SAPE  C22016900   5.750   1.167   8.543  0.5265 -0.9252 -0.3355
  152SAPE  H20R16901   5.840   1.231   8.552  0.9696 -1.3576 -1.4340
  152SAPE  H20S16902   5.704   1.183   8.443 -0.6966 -0.6879  0.2453
  152SAPE  H20T16903   5.781   1.060   8.538  1.8315 -0.6885  1.7352
  152SAPE   C3316904   6.440   1.092  10.032  0.1238 -0.6261 -0.1720
  152SAPE   H3X16905   6.336   1.082  10.069 -0.4444 -1.4305 -1.9093
  152SAPE   H3Y16906   6.475   0.988  10.012  0.6415 -0.5588  0.3374
  152SAPE   C3416907   6.437   1.158   9.888 -0.0292  0.7073  0.3439
  152SAPE   H4X16908   6.445   1.269   9.881  1.5440  0.5816 -0.4066
  152SAPE   H4Y16909   6.340   1.118   9.853  0.2381  1.5727 -1.4755
  152SAPE   C3516910   6.561   1.114   9.800  0.1706  0.0637  0.0118
  152SAPE   H5X16911   6.567   1.004   9.813 -1.2967 -0.1676 -0.9981
  152SAPE   H5Y16912   6.649   1.165   9.845 -0.9194  1.3142  0.7921
  152SAPE   C3616913   6.562   1.151   9.655 -0.7490 -0.2221  0.3726
  152SAPE   H6X16914   6.661   1.126   9.611 -1.5898 -2.7544 -0.2421
  152SAPE   H6Y16915   6.561   1.261   9.636  2.5657 -0.2508 -0.5263
  152SAPE   C3716916   6.458   1.063   9.584  0.3281  0.4473 -0.1080
  152SAPE   H7X16917   6.351   1.087   9.603 -0.3076 -0.5671 -2.1400
  152SAPE   H7Y16918   6.472   0.961   9.625  0.9395  0.5939  0.0552
  152SAPE   C3816919   6.466   1.062   9.429  0.6460 -0.1759 -0.3482
  152SAPE   H8X16920   6.567   1.025   9.401  1.5607  0.1914  2.1827
  152SAPE   H8Y16921   6.449   1.167   9.397  0.6981  0.2911  1.0686
  152SAPE   C3916922   6.350   0.977   9.365  0.8415  0.5915  0.2058
  152SAPE   H9X16923   6.260   1.029   9.405  0.1660 -1.4080  1.4283
  152SAPE   H9Y16924   6.347   0.878   9.415  0.9977  0.2093 -0.5318
  152SAPE  C31016925   6.363   0.946   9.221  0.8016 -0.1064 -0.8088
  152SAPE  H10X16926   6.266   0.916   9.176  0.0809  0.9398  0.0015
  152SAPE  H10Y16927   6.453   0.881   9.211  0.8437 -0.0782 -0.6195
  152SAPE  C31116928   6.398   1.067   9.134  0.4308  0.2945  0.3299
  152SAPE  H11X16929   6.499   1.109   9.152  0.2300  0.7841  0.3105
  152SAPE  H11Y16930   6.314   1.137   9.145 -0.3195 -0.6758  0.9708
  152SAPE  C31216931   6.389   1.029   8.984  0.2600  0.9497 -0.6435
  152SAPE  H12X16932   6.286   0.994   8.962 -0.3479  1.3471  1.3578
  152SAPE  H12Y16933   6.445   0.933   8.975  1.5347  1.5008  0.9031
  152SAPE  C31316934   6.433   1.138   8.888 -0.8485  0.1069  0.3166
  152SAPE  H13X16935   6.541   1.164   8.892 -1.2576  2.3188 -1.5128
  152SAPE  H13Y16936   6.387   1.234   8.921  2.5293  1.4321  1.5923
  152SAPE  C31416937   6.404   1.101   8.741  0.0088 -0.6591  0.3937
  152SAPE  H14X16938   6.435   0.995   8.730  0.9591 -0.2135 -1.5121
  152SAPE  H14Y16939   6.463   1.159   8.668 -1.1298 -1.3338 -1.1200
  152SAPE  C31516940   6.251   1.114   8.706  0.1191 -0.4988  0.3487
  152SAPE  H15X16941   6.222   1.221   8.702 -1.0039 -0.6166  3.0278
  152SAPE  H15Y16942   6.191   1.077   8.792  0.5859  3.7601  2.7780
  152SAPE  C31616943   6.209   1.042   8.578 -0.3500 -0.1938  0.3449
  152SAPE  H16X16944   6.104   1.008   8.586 -0.9331  1.2178 -0.9011
  152SAPE  H16Y16945   6.271   0.952   8.559 -0.0402  0.0510  0.1821
  152SAPE  C31716946   6.206   1.139   8.452 -0.1416  0.0670  0.4628
  152SAPE  H17X16947   6.315   1.161   8.454 -0.2679  0.6366  1.6623
  152SAPE  H17Y16948   6.136   1.224   8.464 -0.3239  0.1321 -0.8677
  152SAPE  C31816949   6.166   1.067   8.329 -0.1754  0.0107  0.4650
  152SAPE  H18X16950   6.072   1.009   8.334  0.3432 -0.7769  1.3203
  152SAPE  H18Y16951   6.242   0.991   8.302  0.3663  0.5093  0.5663
  152SAPE  H18Z16952   6.178   1.132   8.240  2.2455 -1.7948 -0.6482
  153SAPE     N16953   2.080   6.295  10.500  0.4569 -0.1592  0.3944
  153SAPE   HN116954   2.101   6.343  10.590  5.1224 -0.0428 -0.4928
  153SAPE   HN216955   1.979   6.295  10.478  0.1700  0.0960  1.6528
  153SAPE   HN316956   2.119   6.199  10.516 -0.0409 -0.1945  1.4871
  153SAPE   C1216957   2.164   6.372  10.398  0.1071  0.4118  0.7485
  153SAPE  H12A16958   2.157   6.315  10.302  0.9316  2.0298 -0.3254
  153SAPE  H12B16959   2.267   6.359  10.438  0.9246  2.6794 -0.4696
  153SAPE   C1116960   2.131   6.520  10.370  0.0566 -0.0111  0.2795
  153SAPE  H11A16961   2.024   6.524  10.340  0.4911  0.1955 -1.2987
  153SAPE  H11B16962   2.195   6.552  10.285  0.3224  1.2972  0.9498
  153SAPE     P16963   2.295   6.651  10.528  0.2118 -0.0982  0.2782
  153SAPE   O1316964   2.290   6.792  10.577  0.1161  0.2601  0.4310
  153SAPE   O1416965   2.343   6.548  10.623 -0.6636 -0.2881 -0.5610
  153SAPE   O1216966   2.150   6.602  10.483  0.4521  0.0603 -0.2594
  153SAPE   O1116967   2.386   6.654  10.395  0.1309 -0.5072  0.2144
  153SAPE    C116968   2.464   6.776  10.368 -0.3551  0.9727 -0.1817
  153SAPE    HA16969   2.516   6.807  10.461 -0.4469 -2.1202  1.0084
  153SAPE    HB16970   2.542   6.754  10.292 -0.3158 -2.6903  0.7303
  153SAPE    C216971   2.381   6.886  10.303 -0.0728 -0.2043 -0.1529
  153SAPE    HS16972   2.286   6.907  10.357 -0.3777  0.8641 -1.0502
  153SAPE   O2116973   2.344   6.854  10.169  0.4296 -0.4902 -0.4145
  153SAPE   C2116974   2.265   6.929  10.105 -0.3165 -0.0709 -0.1461
  153SAPE   O2216975   2.198   7.020  10.148  0.3241 -0.4833  0.2026
  153SAPE   C2216976   2.246   6.873   9.965 -0.4035  0.1088 -0.7307
  153SAPE   H2R16977   2.339   6.826   9.924 -0.6876 -1.1724  0.0506
  153SAPE   H2S16978   2.181   6.785   9.981  0.3058 -0.3419 -0.3007
  153SAPE    C316979   2.463   7.020  10.302 -1.0755  0.3391  0.3713
  153SAPE    HX16980   2.460   7.059  10.405  0.6267  1.4819  0.0145
  153SAPE    HY16981   2.408   7.099  10.246 -0.9053 -0.2863 -0.7067
  153SAPE   O3116982   2.601   6.998  10.249 -0.1386  0.4863 -0.1714
  153SAPE   C3116983   2.620   7.012  10.115  0.7291  0.3923  0.1462
  153SAPE   O3216984   2.538   7.048  10.038  0.3958  0.0246  0.4404
  153SAPE   C3216985   2.758   6.965  10.073 -0.1352 -0.0561  0.4156
  153SAPE   H2X16986   2.810   6.952  10.170 -1.9055  1.2217  1.5943
  153SAPE   H2Y16987   2.781   7.059  10.017 -0.2386 -0.6603 -0.6702
  153SAPE   C2316988   2.176   6.978   9.866 -0.5626  0.1445 -1.2552
  153SAPE   H3R16989   2.255   7.056   9.851 -0.4060  0.4425  0.8212
  153SAPE   H3S16990   2.095   7.030   9.922  0.6209  0.0305  0.6736
  153SAPE   C2416991   2.133   6.915   9.739  0.1525 -0.1428  0.7578
  153SAPE   H4R16992   2.102   6.999   9.673 -1.8769  0.2888  2.1635
  153SAPE   H4S16993   2.038   6.862   9.762 -0.2522  0.7340  1.1588
  153SAPE   C2516994   2.240   6.829   9.675 -0.0618  0.1454 -0.1525
  153SAPE   H5R16995   2.232   6.728   9.717 -1.8532 -0.5528 -1.9960
  153SAPE   C2616996   2.346   6.864   9.602 -0.2361 -0.3799  0.0112
  153SAPE   H6R16997   2.406   6.777   9.572 -0.1272 -1.4846  3.0439
  153SAPE   C2716998   2.385   6.999   9.555  0.4717 -0.0449  0.3544
  153SAPE   H7R16999   2.488   7.028   9.584  0.1968  1.3385  0.0296
  153SAPE   H7S17000   2.341   7.088   9.604  1.7131  0.8686 -0.1297
  153SAPE   C2817001   2.359   7.007   9.407 -0.2628  0.1461  1.0682
  153SAPE   H8R17002   2.254   7.009   9.376  0.2225  0.3004 -0.6919
  153SAPE   C2917003   2.456   7.021   9.318 -0.4770 -0.3145 -0.8037
  153SAPE   H9R17004   2.435   7.026   9.210  0.0838  0.9651 -0.8766
  153SAPE  C21017005   2.605   7.029   9.351  0.2248 -0.5583  0.2207
  153SAPE  H10R17006   2.644   6.928   9.376  2.2401 -0.0410 -0.6589
  153SAPE  H10S17007   2.619   7.101   9.434  0.2046  0.1540 -0.3874
  153SAPE  C21117008   2.688   7.080   9.235  0.3540 -0.2856 -0.2408
  153SAPE  H11R17009   2.631   7.120   9.150 -0.1931 -2.1988 -0.8168
  153SAPE  C21217010   2.823   7.085   9.226  0.8575  0.3323  0.0674
  153SAPE  H12R17011   2.869   7.121   9.133 -0.8122  0.8341 -0.5976
  153SAPE  C21317012   2.919   7.051   9.332  0.3768  0.6158 -0.3398
  153SAPE  H13R17013   2.878   7.083   9.430  0.0786 -0.2496 -0.1691
  153SAPE  H13S17014   3.013   7.107   9.312  0.6760  0.1902 -0.1524
  153SAPE  C21417015   2.943   6.903   9.350 -0.4545  0.0293  0.2027
  153SAPE  H14R17016   2.886   6.839   9.281 -1.7884  0.2506  1.0559
  153SAPE  C21517017   3.025   6.845   9.439 -0.0001 -0.3844 -0.7645
  153SAPE  H15R17018   3.037   6.736   9.440 -2.9923 -0.8343  1.6902
  153SAPE  C21617019   3.108   6.906   9.543 -0.3795 -0.2373  0.2079
  153SAPE  H16R17020   3.081   7.011   9.565  2.1893  0.3785  0.8146
  153SAPE  H16S17021   3.214   6.910   9.509 -0.0738 -2.7699  0.6398
  153SAPE  C21717022   3.093   6.821   9.675  0.0693 -0.4323  0.3328
  153SAPE  H17R17023   3.092   6.710   9.667 -0.1836 -0.4747  0.8919
  153SAPE  H17S17024   2.989   6.844   9.708 -0.2979 -1.4013 -0.1274
  153SAPE  C21817025   3.189   6.869   9.782 -0.0201  0.1672 -0.3764
  153SAPE  H18R17026   3.293   6.846   9.752  0.2564  0.1060  0.5951
  153SAPE  H18S17027   3.164   6.820   9.879 -1.0418  0.3280 -0.5441
  153SAPE  C21917028   3.189   7.020   9.823 -0.1169 -1.2776  0.4245
  153SAPE  H19R17029   3.216   7.079   9.733 -1.1076 -0.2347  0.7902
  153SAPE  H19S17030   3.270   7.030   9.897 -0.9092  1.8285  1.0093
  153SAPE  C22017031   3.066   7.087   9.893 -0.2540  0.1945  0.2109
  153SAPE  H20R17032   3.090   7.186   9.938 -2.2466  0.3030  1.1584
  153SAPE  H20S17033   3.022   7.033   9.979 -1.0382  1.8959  0.9294
  153SAPE  H20T17034   2.978   7.104   9.829  0.1538  1.0126 -0.1460
  153SAPE   C3317035   2.752   6.842   9.984 -0.3894 -0.1334 -0.6818
  153SAPE   H3X17036   2.680   6.768  10.024 -0.6040  0.1052 -0.6197
  153SAPE   H3Y17037   2.848   6.789   9.998 -0.4378 -0.7786 -2.5056
  153SAPE   C3417038   2.715   6.870   9.846 -0.0749 -0.5727  0.9677
  153SAPE   H4X17039   2.782   6.941   9.794  0.8280 -0.7629  1.8438
  153SAPE   H4Y17040   2.610   6.905   9.832  1.0693  3.0629  0.3399
  153SAPE   C3517041   2.723   6.732   9.771  0.0954 -0.0056  0.0410
  153SAPE   H5X17042   2.644   6.661   9.802 -0.7258  0.1593 -1.6191
  153SAPE   H5Y17043   2.825   6.690   9.786  0.0831 -0.6388 -1.5237
  153SAPE   C3617044   2.706   6.747   9.621 -0.0179 -0.0405  0.0618
  153SAPE   H6X17045   2.802   6.792   9.586 -0.3293  1.1328  0.6694
  153SAPE   H6Y17046   2.627   6.819   9.591 -1.8353 -1.2956  1.6058
  153SAPE   C3717047   2.659   6.623   9.544  0.1995 -0.1458 -0.7014
  153SAPE   H7X17048   2.567   6.580   9.589 -0.6543  0.0065 -2.2269
  153SAPE   H7Y17049   2.739   6.549   9.561  2.6365  1.6664 -3.4002
  153SAPE   C3817050   2.639   6.650   9.391 -0.5579 -0.1546  0.1220
  153SAPE   H8X17051   2.735   6.696   9.357 -0.8856 -0.7878 -1.7780
  153SAPE   H8Y17052   2.564   6.731   9.380  0.2301  0.3783 -2.0265
  153SAPE   C3917053   2.583   6.535   9.311 -0.1012  0.3640  0.6380
  153SAPE   H9X17054   2.496   6.489   9.362 -1.0838 -0.1088 -1.3481
  153SAPE   H9Y17055   2.657   6.452   9.299 -0.9028 -0.0355 -2.3877
  153SAPE  C31017056   2.545   6.579   9.168 -0.0107  0.0119 -0.3419
  153SAPE  H10X17057   2.519   6.491   9.105  0.5745  0.7584 -1.6785
  153SAPE  H10Y17058   2.626   6.630   9.111  1.3756 -1.7600 -0.0490
  153SAPE  C31117059   2.419   6.663   9.175 -0.5760 -0.1675 -1.1199
  153SAPE  H11X17060   2.433   6.760   9.226  0.7777 -0.8637 -0.0899
  153SAPE  H11Y17061   2.339   6.602   9.220 -0.5743 -1.7040 -3.0562
  153SAPE  C31217062   2.370   6.691   9.039 -0.5683 -0.4492 -0.2241
  153SAPE  H12X17063   2.357   6.593   8.989 -2.5811 -1.7489  2.5711
  153SAPE  H12Y17064   2.443   6.759   8.991  0.1943 -1.4383 -0.4762
  153SAPE  C31317065   2.229   6.764   9.042 -0.0514 -0.6068  0.1431
  153SAPE  H13X17066   2.226   6.842   9.121 -1.2980 -0.0955 -0.3730
  153SAPE  H13Y17067   2.147   6.691   9.064 -1.0426  0.5623  0.4264
  153SAPE  C31417068   2.217   6.830   8.902  0.9617  0.5034  0.2824
  153SAPE  H14X17069   2.251   6.756   8.826  0.9813  0.7303  0.0668
  153SAPE  H14Y17070   2.280   6.922   8.904  2.1762 -0.2581 -0.7885
  153SAPE  C31517071   2.077   6.868   8.857 -0.0341 -0.1841 -0.0905
  153SAPE  H15X17072   2.034   6.954   8.913 -1.6975 -1.6176  0.9376
  153SAPE  H15Y17073   2.007   6.783   8.875  0.8718 -0.9042  0.1202
  153SAPE  C31617074   2.059   6.904   8.711 -0.2701  0.0107  0.5452
  153SAPE  H16X17075   2.109   6.818   8.661 -0.3035 -0.9240  2.0718
  153SAPE  H16Y17076   2.113   6.994   8.675 -1.6151  0.7613  0.3250
  153SAPE  C31717077   1.913   6.902   8.665  0.3346 -0.5126 -0.1637
  153SAPE  H17X17078   1.868   6.817   8.721 -0.6091  0.5316  0.6983
  153SAPE  H17Y17079   1.924   6.890   8.556 -1.1943 -1.9384 -0.1972
  153SAPE  C31817080   1.845   7.038   8.701  0.7101 -0.2603 -0.1512
  153SAPE  H18X17081   1.890   7.119   8.639  0.7584 -0.8523 -0.8943
  153SAPE  H18Y17082   1.852   7.059   8.810  0.3425  0.8705 -0.3266
  153SAPE  H18Z17083   1.738   7.033   8.674  1.0469  0.6289 -1.7603
  154SAPE     N17084   6.012   2.315  10.874 -0.1614  0.5330 -0.3275
  154SAPE   HN117085   5.974   2.411  10.889 -2.8008  0.1223 -3.2734
  154SAPE   HN217086   5.955   2.248  10.930  0.7415  1.4963  1.8140
  154SAPE   HN317087   6.111   2.298  10.901 -0.2053  1.9395  0.7874
  154SAPE   C1217088   5.990   2.278  10.727  0.4021 -0.4244 -0.2647
  154SAPE  H12A17089   6.047   2.185  10.706  0.3558 -0.6370  0.5148
  154SAPE  H12B17090   6.029   2.359  10.661  1.5643  0.2020  1.1105
  154SAPE   C1117091   5.845   2.247  10.700  0.4789  1.1624 -0.2630
  154SAPE  H11A17092   5.824   2.221  10.594 -0.8881 -2.3113  0.7411
  154SAPE  H11B17093   5.783   2.337  10.721  0.5330  1.2874 -0.6278
  154SAPE     P17094   5.836   1.983  10.764 -0.4359  0.3322  0.1399
  154SAPE   O1317095   5.938   1.942  10.867  0.3480 -0.6073 -0.0426
  154SAPE   O1417096   5.713   1.904  10.765  0.0818 -0.2021 -0.2888
  154SAPE   O1217097   5.797   2.133  10.781  0.9284  0.8060  0.3352
  154SAPE   O1117098   5.906   1.983  10.628 -0.3311 -0.5160 -0.1501
  154SAPE    C117099   5.835   1.949  10.509 -0.1861  0.4965 -0.0767
  154SAPE    HA17100   5.765   1.867  10.533  1.7117 -0.9917  0.5733
  154SAPE    HB17101   5.763   2.029  10.479 -0.8723 -0.8542 -2.2386
  154SAPE    C217102   5.926   1.918  10.384 -0.1044 -0.1649  0.0063
  154SAPE    HS17103   6.004   1.842  10.406  0.4799  0.0321 -1.3246
  154SAPE   O2117104   5.986   2.040  10.340 -0.5119  0.0424  0.4067
  154SAPE   C2117105   6.094   2.067  10.414 -0.0727 -0.2524 -0.4761
  154SAPE   O2217106   6.147   1.995  10.495 -0.0693 -0.6196  0.1945
  154SAPE   C2217107   6.147   2.205  10.377  0.6644 -0.5118 -0.1403
  154SAPE   H2R17108   6.107   2.238  10.279  0.6251 -0.3967 -0.0865
  154SAPE   H2S17109   6.117   2.266  10.465 -0.1302  0.1450 -0.8451
  154SAPE    C317110   5.845   1.879  10.263  0.2448  0.3047  0.4872
  154SAPE    HX17111   5.910   1.852  10.177 -0.5654 -0.9430  0.2414
  154SAPE    HY17112   5.779   1.964  10.235 -1.1046 -0.4062  1.4050
  154SAPE   O3117113   5.758   1.766  10.290 -0.0837  0.7783  0.1705
  154SAPE   C3117114   5.631   1.785  10.312 -0.1254  0.6969 -0.0219
  154SAPE   O3217115   5.580   1.895  10.332 -0.3185  0.2726  0.1875
  154SAPE   C3217116   5.557   1.654  10.292 -0.3339  0.1716  0.8307
  154SAPE   H2X17117   5.447   1.662  10.303 -0.8495 -2.2426 -1.3898
  154SAPE   H2Y17118   5.598   1.577  10.362 -2.5715 -0.6611  1.3022
  154SAPE   C2317119   6.298   2.204  10.366 -0.1614 -0.0618  0.3521
  154SAPE   H3R17120   6.352   2.164  10.455  0.9525 -0.0756 -0.3134
  154SAPE   H3S17121   6.325   2.312  10.371 -2.0494  0.4588 -0.0404
  154SAPE   C2417122   6.357   2.130  10.247  0.2377 -0.2962  0.6858
  154SAPE   H4R17123   6.291   2.041  10.235  1.7593 -1.1778 -1.9230
  154SAPE   H4S17124   6.458   2.095  10.277  0.0363 -2.2491 -0.7197
  154SAPE   C2517125   6.372   2.228  10.130 -0.1838 -0.4455  0.3899
  154SAPE   H5R17126   6.422   2.320  10.163 -1.2808  0.4741 -0.4360
  154SAPE   C2617127   6.337   2.213  10.002  0.4199 -0.1136 -0.8251
  154SAPE   H6R17128   6.362   2.298   9.936 -2.0938 -0.8950 -2.9661
  154SAPE   C2717129   6.255   2.105   9.941  0.8196  0.4682  0.6800
  154SAPE   H7R17130   6.269   2.013  10.001 -1.7801 -0.7914 -0.4843
  154SAPE   H7S17131   6.289   2.097   9.835 -2.0281  2.4515 -0.4900
  154SAPE   C2817132   6.106   2.132   9.936 -0.5287 -0.0934 -0.1040
  154SAPE   H8R17133   6.067   2.204  10.010  0.5243 -0.0084  0.3957
  154SAPE   C2917134   6.022   2.094   9.843  0.1842 -0.2695  0.2662
  154SAPE   H9R17135   5.915   2.118   9.847  0.0228 -0.9140 -0.0262
  154SAPE  C21017136   6.051   2.001   9.720  0.5153  0.0774 -0.2143
  154SAPE  H10R17137   6.161   2.000   9.705  0.4686  0.6912 -0.6590
  154SAPE  H10S17138   5.999   2.043   9.631  1.6996  3.4106  0.5257
  154SAPE  C21117139   6.009   1.860   9.760 -0.1670 -0.2389 -0.4461
  154SAPE  H11R17140   6.046   1.828   9.859 -2.7184  0.1172  0.6985
  154SAPE  C21217141   5.917   1.786   9.692  0.1173  0.1073 -0.5860
  154SAPE  H12R17142   5.885   1.687   9.730  2.6397 -0.5473  0.0821
  154SAPE  C21317143   5.851   1.829   9.557 -0.1969 -0.4080 -0.0909
  154SAPE  H13R17144   5.928   1.844   9.479  0.5262 -0.9854  0.4962
  154SAPE  H13S17145   5.802   1.928   9.569  1.1747  0.2906 -0.0845
  154SAPE  C21417146   5.740   1.735   9.524  0.0110 -0.4304  0.4716
  154SAPE  H14R17147   5.671   1.708   9.605 -1.1735  1.8320  0.3090
  154SAPE  C21517148   5.700   1.700   9.394  0.1336 -0.0308 -0.3114
  154SAPE  H15R17149   5.614   1.632   9.382  1.4549 -1.6755 -0.9252
  154SAPE  C21617150   5.770   1.745   9.267  0.2254 -0.7287  0.0837
  154SAPE  H16R17151   5.800   1.654   9.210 -1.0589 -0.2874 -1.3863
  154SAPE  H16S17152   5.868   1.797   9.280  0.9772 -1.4278 -2.2592
  154SAPE  C21717153   5.675   1.831   9.178  0.0920  0.5675 -0.0735
  154SAPE  H17R17154   5.682   1.935   9.216  0.8222  0.0564  1.2686
  154SAPE  H17S17155   5.569   1.801   9.189 -0.3302  2.4675  1.6018
  154SAPE  C21817156   5.703   1.828   9.021 -0.1019  0.0615  0.3956
  154SAPE  H18R17157   5.709   1.719   8.998  0.6092 -0.5239  2.9725
  154SAPE  H18S17158   5.804   1.871   9.005 -0.2999 -0.4648 -2.7777
  154SAPE  C21917159   5.612   1.914   8.934  0.3799  0.1976 -0.2689
  154SAPE  H19R17160   5.602   2.019   8.970 -1.7326 -0.2089  0.4743
  154SAPE  H19S17161   5.510   1.873   8.947 -0.2335  1.7511  0.0905
  154SAPE  C22017162   5.655   1.918   8.785  0.4212 -0.2167  0.0942
  154SAPE  H20R17163   5.757   1.959   8.771  0.3964 -0.3076 -0.3703
  154SAPE  H20S17164   5.585   1.977   8.722  1.6432 -0.3304 -1.4447
  154SAPE  H20T17165   5.659   1.815   8.745  0.9519 -0.6151  1.1375
  154SAPE   C3317166   5.571   1.608  10.146  0.7644  0.5783 -0.0670
  154SAPE   H3X17167   5.675   1.575  10.127  0.5815 -0.6089  0.8704
  154SAPE   H3Y17168   5.538   1.692  10.081 -2.6332  0.2990  1.0729
  154SAPE   C3417169   5.478   1.485  10.114 -0.3547 -0.0186  0.3460
  154SAPE   H4X17170   5.377   1.522  10.142 -0.7639  2.0045 -3.2218
  154SAPE   H4Y17171   5.497   1.400  10.183 -1.5367 -2.6089 -2.2904
  154SAPE   C3517172   5.485   1.444   9.967 -0.6859 -0.2096  0.3197
  154SAPE   H5X17173   5.431   1.348   9.960  0.4937 -0.9165  0.5694
  154SAPE   H5Y17174   5.593   1.424   9.949 -0.6256  1.4527 -1.5649
  154SAPE   C3617175   5.417   1.548   9.871 -0.0121 -0.7484 -0.1831
  154SAPE   H6X17176   5.479   1.637   9.892 -2.3263  0.6305  1.1765
  154SAPE   H6Y17177   5.311   1.562   9.902  0.1716  0.9572 -0.2372
  154SAPE   C3717178   5.440   1.505   9.723  0.3197  0.3849 -0.2437
  154SAPE   H7X17179   5.545   1.531   9.695  0.0975  1.7716  0.1115
  154SAPE   H7Y17180   5.386   1.578   9.659  0.6190  0.6032 -0.2484
  154SAPE   C3817181   5.397   1.360   9.682 -0.2368 -0.1563  0.3528
  154SAPE   H8X17182   5.286   1.350   9.684 -0.2560 -0.5036 -1.3273
  154SAPE   H8Y17183   5.426   1.284   9.758  0.5400  1.3063  1.5869
  154SAPE   C3917184   5.435   1.340   9.532  0.2510  0.5352 -0.0142
  154SAPE   H9X17185   5.431   1.232   9.506 -1.0496  0.1847  1.4553
  154SAPE   H9Y17186   5.539   1.375   9.515  0.9948 -1.1286  0.8558
  154SAPE  C31017187   5.337   1.402   9.424  0.3736 -0.0668 -0.5675
  154SAPE  H10X17188   5.316   1.511   9.435  0.8036  0.1903 -2.0159
  154SAPE  H10Y17189   5.238   1.353   9.432  0.2065  0.4877  1.3382
  154SAPE  C31117190   5.367   1.375   9.273  0.5847  0.2616  0.4129
  154SAPE  H11X17191   5.283   1.397   9.204  1.3650 -0.2135 -0.7185
  154SAPE  H11Y17192   5.384   1.265   9.269 -2.2717 -0.2317 -1.4685
  154SAPE  C31217193   5.507   1.431   9.232  0.0094 -0.7317 -0.2504
  154SAPE  H12X17194   5.587   1.389   9.297  1.7356 -0.0039 -1.8216
  154SAPE  H12Y17195   5.526   1.539   9.247 -1.5185 -0.5341  0.4734
  154SAPE  C31317196   5.537   1.407   9.086  0.2096 -0.2047 -0.2594
  154SAPE  H13X17197   5.526   1.299   9.061  0.7713 -0.4053  0.3349
  154SAPE  H13Y17198   5.642   1.436   9.065 -0.5914  0.7380 -3.6258
  154SAPE  C31417199   5.455   1.495   8.986  0.5762 -0.1138  0.2839
  154SAPE  H14X17200   5.456   1.602   9.016  2.0300  0.1746 -0.7195
  154SAPE  H14Y17201   5.351   1.455   8.985  1.0946 -1.7003  2.2302
  154SAPE  C31517202   5.508   1.507   8.847  0.3161 -0.8108  1.0189
  154SAPE  H15X17203   5.528   1.404   8.810  1.0612 -0.0569 -0.7668
  154SAPE  H15Y17204   5.604   1.561   8.839 -0.4624  0.3273 -1.7729
  154SAPE  C31617205   5.399   1.559   8.747 -0.1952 -0.3201  0.1982
  154SAPE  H16X17206   5.390   1.667   8.770  1.3906  0.0773 -0.8932
  154SAPE  H16Y17207   5.301   1.507   8.759 -0.2600 -0.4420 -0.8072
  154SAPE  C31717208   5.453   1.549   8.601  0.2164  0.0964 -0.4973
  154SAPE  H17X17209   5.496   1.449   8.576 -0.0282  0.3225 -1.8653
  154SAPE  H17Y17210   5.534   1.623   8.583 -0.3688  1.0970  0.8458
  154SAPE  C31817211   5.346   1.587   8.497 -0.7338 -0.6313  0.3201
  154SAPE  H18X17212   5.383   1.595   8.392  0.7114  3.6293  0.9672
  154SAPE  H18Y17213   5.304   1.688   8.512  0.6150  0.2780 -1.6357
  154SAPE  H18Z17214   5.271   1.505   8.500  0.8562 -2.2234 -1.0628
  155SAPE     N17215   0.820   0.220  10.910 -0.0622 -0.7545 -0.0272
  155SAPE   HN117216   0.760   0.160  10.970 -2.2295 -0.4704 -1.7879
  155SAPE   HN217217   0.894   0.262  10.971  0.1460  0.1178 -0.8573
  155SAPE   HN317218   0.770   0.301  10.869  1.2682 -0.3712 -1.0018
  155SAPE   C1217219   0.875   0.134  10.801  0.5904  0.2643 -0.2491
  155SAPE  H12A17220   0.793   0.115  10.728  0.9680 -4.4539  0.2963
  155SAPE  H12B17221   0.897   0.041  10.857 -2.8413 -0.3691  0.2996
  155SAPE   C1117222   0.997   0.197  10.737 -0.3388 -0.1394 -0.2864
  155SAPE  H11A17223   0.949   0.276  10.676 -0.5624 -0.7265 -0.8744
  155SAPE  H11B17224   1.049   0.128  10.668 -1.1869 -0.4038 -0.6723
  155SAPE     P17225   1.207   0.187  10.899  0.0136  0.0347 -0.2481
  155SAPE   O1317226   1.292   0.284  10.964  0.2178 -0.9037  0.6544
  155SAPE   O1417227   1.163   0.067  10.983  0.7747  0.5902  0.3825
  155SAPE   O1217228   1.084   0.257  10.831 -0.3386 -0.5633  0.4859
  155SAPE   O1117229   1.289   0.121  10.780  0.5808  0.1457  0.1506
  155SAPE    C117230   1.336   0.205  10.670 -0.1514 -0.1238 -0.4786
  155SAPE    HA17231   1.249   0.232  10.606 -0.4715 -1.8944 -0.8668
  155SAPE    HB17232   1.380   0.300  10.705 -0.4673  0.8397 -2.5594
  155SAPE    C217233   1.430   0.124  10.576 -0.7879  0.1983 -0.1549
  155SAPE    HS17234   1.531   0.120  10.622 -1.3963 -0.1249  1.1876
  155SAPE   O2117235   1.425   0.175  10.442 -0.2443 -0.5870 -0.1081
  155SAPE   C2117236   1.506   0.278  10.435  0.3566  0.1831 -0.8398
  155SAPE   O2217237   1.569   0.330  10.524 -0.5234  0.8887 -0.3753
  155SAPE   C2217238   1.519   0.325  10.288 -0.2038  0.1896 -0.0233
  155SAPE   H2R17239   1.584   0.415  10.290 -0.0664  0.1099  2.1663
  155SAPE   H2S17240   1.566   0.246  10.226  1.6689  0.9924  0.3233
  155SAPE    C317241   1.399  -0.025  10.568 -0.4044 -0.1095 -0.3621
  155SAPE    HX17242   1.290  -0.038  10.550 -0.4749  1.9774 -1.8808
  155SAPE    HY17243   1.440  -0.064  10.663 -1.3785  2.0989  1.0514
  155SAPE   O3117244   1.474  -0.086  10.462  0.5448 -0.0968  0.0226
  155SAPE   C3117245   1.411  -0.119  10.349  0.1798  1.2149 -0.4773
  155SAPE   O3217246   1.288  -0.116  10.331 -0.1391  0.3022 -0.4307
  155SAPE   C3217247   1.516  -0.167  10.237 -0.3204  0.7507  0.2583
  155SAPE   H2X17248   1.574  -0.260  10.256 -0.9678 -0.1464 -1.8335
  155SAPE   H2Y17249   1.588  -0.084  10.221  0.4277 -0.2430 -1.8846
  155SAPE   C2317250   1.395   0.382  10.223  0.6962  0.6158 -0.0050
  155SAPE   H3R17251   1.424   0.446  10.137 -2.0518  0.8341 -0.8523
  155SAPE   H3S17252   1.357   0.447  10.304  1.2640 -0.7936  1.4508
  155SAPE   C2417253   1.274   0.284  10.179 -0.9922  0.5877  0.7441
  155SAPE   H4R17254   1.204   0.353  10.129  0.2654 -0.0195 -2.0314
  155SAPE   H4S17255   1.230   0.244  10.273  2.0754 -1.1817  1.5589
  155SAPE   C2517256   1.306   0.174  10.085  0.0640 -0.1541  0.2677
  155SAPE   H5R17257   1.329   0.085  10.146  0.7890 -1.2713 -1.5619
  155SAPE   C2617258   1.313   0.168   9.955  0.0150 -0.3949 -0.6202
  155SAPE   H6R17259   1.326   0.069   9.910 -1.6565 -1.1307  0.4321
  155SAPE   C2717260   1.270   0.279   9.860 -0.8554 -0.0506  0.4026
  155SAPE   H7R17261   1.251   0.372   9.918  0.5651  0.0221  0.7934
  155SAPE   H7S17262   1.168   0.254   9.824 -1.4957 -0.5555  2.3902
  155SAPE   C2817263   1.381   0.321   9.764  1.1287 -0.1103  0.8536
  155SAPE   H8R17264   1.468   0.374   9.804  1.1199  0.7197 -0.1819
  155SAPE   C2917265   1.385   0.302   9.628 -0.3331  0.3648 -0.7661
  155SAPE   H9R17266   1.460   0.353   9.565  0.5764 -0.3390 -0.2815
  155SAPE  C21017267   1.276   0.236   9.545 -0.0334 -0.1894 -0.3060
  155SAPE  H10R17268   1.177   0.285   9.554  0.6047  0.9531  0.9019
  155SAPE  H10S17269   1.264   0.137   9.593 -2.1644  0.5014  0.7266
  155SAPE  C21117270   1.329   0.218   9.409 -0.6339  0.6963 -0.3972
  155SAPE  H11R17271   1.417   0.151   9.409 -0.5479  0.7907  0.8400
  155SAPE  C21217272   1.273   0.252   9.291 -0.6441 -0.2813  0.1378
  155SAPE  H12R17273   1.329   0.228   9.199  0.5293  2.3999  0.0654
  155SAPE  C21317274   1.136   0.320   9.276 -0.0146  0.3792  0.7393
  155SAPE  H13R17275   1.139   0.407   9.207 -2.6187  0.2578  0.3351
  155SAPE  H13S17276   1.105   0.361   9.374  0.7588  0.4058  0.9742
  155SAPE  C21417277   1.038   0.216   9.233 -0.0549  0.3459  0.7115
  155SAPE  H14R17278   1.038   0.131   9.304  1.7332 -0.0933  0.2281
  155SAPE  C21517279   0.957   0.220   9.123 -0.2542 -0.7988 -0.6773
  155SAPE  H15R17280   0.886   0.141   9.093 -1.6210 -0.1003  0.5834
  155SAPE  C21617281   0.953   0.331   9.021  0.2979 -0.1368 -0.2543
  155SAPE  H16R17282   1.027   0.410   9.044 -0.4799  0.2207  1.1473
  155SAPE  H16S17283   0.850   0.374   9.018  1.1032  1.9898  0.5151
  155SAPE  C21717284   0.991   0.272   8.881  0.0657 -0.1879  0.6148
  155SAPE  H17R17285   0.946   0.176   8.849  1.1719 -0.3694 -0.4871
  155SAPE  H17S17286   1.102   0.274   8.885  0.0515  0.5547  0.8162
  155SAPE  C21817287   0.971   0.371   8.762  0.4174  0.1976 -0.0618
  155SAPE  H18R17288   0.976   0.476   8.798 -0.1035  0.8161 -1.7317
  155SAPE  H18S17289   0.867   0.365   8.724 -0.0607 -1.4196  1.3222
  155SAPE  C21917290   1.075   0.338   8.653 -0.0745 -0.3744  0.3856
  155SAPE  H19R17291   1.058   0.237   8.610  0.9210 -0.0853 -0.7328
  155SAPE  H19S17292   1.175   0.343   8.701  0.5163 -1.1006 -0.7320
  155SAPE  C22017293   1.083   0.438   8.537  0.6589 -0.6193  0.7303
  155SAPE  H20R17294   0.985   0.457   8.489  1.3308 -0.2540 -0.5471
  155SAPE  H20S17295   1.137   0.390   8.453  0.0967  2.0029 -1.2524
  155SAPE  H20T17296   1.128   0.536   8.564  0.4353 -0.9534  2.4442
  155SAPE   C3317297   1.454  -0.193  10.094  0.3030  0.2235 -0.2365
  155SAPE   H3X17298   1.527  -0.163  10.016  0.8532 -0.2641  0.0858
  155SAPE   H3Y17299   1.365  -0.128  10.075  0.0232  0.3603  1.3522
  155SAPE   C3417300   1.421  -0.343  10.070  0.3236 -0.0051  0.3397
  155SAPE   H4X17301   1.363  -0.387  10.154  1.1544 -0.8084  0.5070
  155SAPE   H4Y17302   1.514  -0.404  10.063 -0.9107 -1.9509  0.2598
  155SAPE   C3517303   1.344  -0.374   9.941  0.3238 -0.3021 -0.6105
  155SAPE   H5X17304   1.245  -0.323   9.948 -0.4554 -1.9582  2.5193
  155SAPE   H5Y17305   1.316  -0.481   9.931 -2.0641  0.1108  0.8339
  155SAPE   C3617306   1.413  -0.329   9.807  0.0233 -0.5783  0.3161
  155SAPE   H6X17307   1.511  -0.381   9.806 -0.2911 -1.1904  0.7491
  155SAPE   H6Y17308   1.434  -0.221   9.826 -1.4116  0.0992 -1.5875
  155SAPE   C3717309   1.332  -0.345   9.684  0.1714 -0.0618  0.0427
  155SAPE   H7X17310   1.290  -0.447   9.674  3.8715 -1.6234 -1.0565
  155SAPE   H7Y17311   1.402  -0.329   9.600  0.9997 -2.0611  0.3127
  155SAPE   C3817312   1.217  -0.247   9.672  0.4585 -0.5420 -0.0358
  155SAPE   H8X17313   1.260  -0.145   9.676 -0.1117 -0.2986 -0.0957
  155SAPE   H8Y17314   1.139  -0.262   9.750  0.5685  1.4639  0.4980
  155SAPE   C3917315   1.151  -0.248   9.531  0.2124 -0.3327 -0.2948
  155SAPE   H9X17316   1.040  -0.249   9.529  0.2045 -0.7689  0.1774
  155SAPE   H9Y17317   1.167  -0.351   9.491 -0.1720 -0.8088  0.7553
  155SAPE  C31017318   1.214  -0.150   9.428  0.4242 -1.0050  0.9730
  155SAPE  H10X17319   1.324  -0.166   9.433  0.6495  0.1480  0.2206
  155SAPE  H10Y17320   1.192  -0.045   9.456 -0.7419 -1.2391  0.9675
  155SAPE  C31117321   1.188  -0.166   9.280  0.5255  0.5679 -0.0419
  155SAPE  H11X17322   1.091  -0.125   9.246  0.5824  0.2850 -0.5630
  155SAPE  H11Y17323   1.180  -0.274   9.256 -0.3765  0.3723  1.0554
  155SAPE  C31217324   1.305  -0.116   9.193  0.3333 -0.4100 -0.3211
  155SAPE  H12X17325   1.382  -0.196   9.196 -0.2757 -0.9891  1.6265
  155SAPE  H12Y17326   1.336  -0.031   9.258  1.2012 -0.9734  0.0169
  155SAPE  C31317327   1.265  -0.073   9.052 -0.0899 -0.7365 -0.5157
  155SAPE  H13X17328   1.193   0.011   9.051 -0.2889 -0.8873  0.4657
  155SAPE  H13Y17329   1.218  -0.159   8.999 -1.7159  0.4010 -1.0160
  155SAPE  C31417330   1.384  -0.026   8.971  0.4307  1.2580 -0.2698
  155SAPE  H14X17331   1.464  -0.102   8.981 -0.4399  0.1047 -1.7043
  155SAPE  H14Y17332   1.419   0.074   9.006  0.9781  2.0603 -2.8750
  155SAPE  C31517333   1.341   0.004   8.827 -0.7291 -0.3366  0.5411
  155SAPE  H15X17334   1.287   0.101   8.833 -1.1858 -0.5687  0.3029
  155SAPE  H15Y17335   1.272  -0.070   8.779 -1.4272  1.2578 -1.0234
  155SAPE  C31617336   1.472   0.014   8.743 -0.3211 -0.5544  0.0730
  155SAPE  H16X17337   1.497  -0.089   8.708  2.8738 -0.1287  0.8739
  155SAPE  H16Y17338   1.568   0.031   8.795 -0.6851  0.3133  0.4779
  155SAPE  C31717339   1.460   0.098   8.614  0.2776 -1.0026 -0.3011
  155SAPE  H17X17340   1.550   0.074   8.554 -0.0045 -0.4606 -0.9647
  155SAPE  H17Y17341   1.468   0.206   8.639  0.2320 -1.2074  0.6226
  155SAPE  C31817342   1.336   0.077   8.519 -1.0523  0.1000 -0.1577
  155SAPE  H18X17343   1.331  -0.029   8.488 -2.2037 -0.1589  0.8701
  155SAPE  H18Y17344   1.352   0.142   8.430 -0.9448 -0.1826 -0.3458
  155SAPE  H18Z17345   1.233   0.094   8.555 -1.1524  0.0659 -0.4264
  156SAPE     N17346   1.782   0.989  10.562  0.8961  0.2418 -0.1561
  156SAPE   HN117347   1.862   0.924  10.546 -0.9512 -3.0152  2.4438
  156SAPE   HN217348   1.709   0.958  10.494  1.8314  0.0493 -1.0997
  156SAPE   HN317349   1.806   1.085  10.529 -0.0471  0.4194 -0.3540
  156SAPE   C1217350   1.730   0.974  10.699  0.6357 -0.1246 -0.2038
  156SAPE  H12A17351   1.675   1.063  10.736  0.3437 -0.6596  0.6928
  156SAPE  H12B17352   1.821   0.963  10.762  0.8647 -0.2529 -0.5499
  156SAPE   C1117353   1.628   0.859  10.721 -0.2490  0.3206 -0.1328
  156SAPE  H11A17354   1.600   0.865  10.828 -2.0045  0.4223 -0.5612
  156SAPE  H11B17355   1.684   0.764  10.707 -1.1627 -0.1581 -0.6889
  156SAPE     P17356   1.395   0.941  10.621  0.3976 -0.0742  0.3714
  156SAPE   O1317357   1.295   0.861  10.703 -0.2955 -0.0540 -0.0049
  156SAPE   O1417358   1.414   1.082  10.653 -0.0327 -0.1869  0.5721
  156SAPE   O1217359   1.526   0.859  10.625 -0.0160  0.2025 -0.2101
  156SAPE   O1117360   1.369   0.931  10.469 -0.4513  0.0004 -0.1243
  156SAPE    C117361   1.261   0.861  10.410 -0.1943  0.2271  0.7021
  156SAPE    HA17362   1.280   0.751  10.410 -0.8113  0.1036  2.0518
  156SAPE    HB17363   1.169   0.862  10.471  0.6131 -1.8601  2.0631
  156SAPE    C217364   1.243   0.904  10.263  0.7347 -0.1374  0.8623
  156SAPE    HS17365   1.139   0.874  10.237  1.2522 -0.4561 -1.0299
  156SAPE   O2117366   1.337   0.835  10.176  0.0575  0.3605  0.6772
  156SAPE   C2117367   1.288   0.736  10.094 -0.1763 -0.1106 -0.6023
  156SAPE   O2217368   1.174   0.694  10.087 -0.0959 -0.3951 -0.1945
  156SAPE   C2217369   1.402   0.683  10.011  0.2255  0.1540  0.5472
  156SAPE   H2R17370   1.487   0.652  10.077  2.8299 -0.4961 -2.8567
  156SAPE   H2S17371   1.374   0.590   9.957  2.1798  0.6914 -1.5735
  156SAPE    C317372   1.250   1.055  10.244  0.2747  0.7418  0.0317
  156SAPE    HX17373   1.355   1.076  10.215  1.1738 -1.9234  1.0609
  156SAPE    HY17374   1.233   1.110  10.339  1.7459 -2.9698  2.6828
  156SAPE   O3117375   1.160   1.101  10.140 -0.1050 -0.0163 -0.1337
  156SAPE   C3117376   1.211   1.110  10.026  0.1065 -0.2163 -0.2812
  156SAPE   O3217377   1.328   1.097   9.986  0.1891 -0.7544 -0.7908
  156SAPE   C3217378   1.098   1.167   9.930 -1.1376 -0.2678 -0.6033
  156SAPE   H2X17379   1.132   1.270   9.908 -1.2838  0.0803  0.7255
  156SAPE   H2Y17380   0.998   1.174   9.978 -0.1019  1.9882  1.4443
  156SAPE   C2317381   1.451   0.780   9.901  0.5257  0.2712  0.8001
  156SAPE   H3R17382   1.542   0.729   9.862  1.2121  1.5500  0.6420
  156SAPE   H3S17383   1.483   0.884   9.925  1.5489  0.3330 -0.7100
  156SAPE   C2417384   1.342   0.798   9.792 -0.4338 -0.3989  0.1811
  156SAPE   H4R17385   1.262   0.853   9.845  0.0831 -1.5841  2.2830
  156SAPE   H4S17386   1.312   0.693   9.771  3.7053 -1.8074  0.3756
  156SAPE   C2517387   1.378   0.859   9.659  0.1458  0.5748  0.4076
  156SAPE   H5R17388   1.428   0.956   9.667  0.8718  0.0923  2.1972
  156SAPE   C2617389   1.374   0.806   9.533 -0.0633  0.7453  0.3534
  156SAPE   H6R17390   1.407   0.869   9.449  0.8039  0.4101  0.4320
  156SAPE   C2717391   1.323   0.661   9.494 -0.2173 -0.3325  0.5291
  156SAPE   H7R17392   1.253   0.621   9.570  0.1076 -0.5724  0.7048
  156SAPE   H7S17393   1.406   0.587   9.491  0.1198  0.0349 -2.8832
  156SAPE   C2817394   1.261   0.669   9.355 -0.6514  0.8502  0.0142
  156SAPE   H8R17395   1.159   0.708   9.345 -1.1852  0.0125  1.7588
  156SAPE   C2917396   1.328   0.644   9.239 -0.3617  0.4602 -0.7335
  156SAPE   H9R17397   1.267   0.657   9.148 -1.6663  0.2197  0.0843
  156SAPE  C21017398   1.478   0.611   9.229 -0.2028 -0.1251 -0.2646
  156SAPE  H10R17399   1.493   0.503   9.213 -0.3651 -0.0560 -0.9067
  156SAPE  H10S17400   1.534   0.637   9.321 -0.3495  0.8160 -0.4309
  156SAPE  C21117401   1.550   0.690   9.120 -0.1421 -0.2426 -0.3766
  156SAPE  H11R17402   1.540   0.798   9.134 -0.2755 -0.2852 -0.1444
  156SAPE  C21217403   1.651   0.646   9.045 -0.2756 -0.3289  0.1938
  156SAPE  H12R17404   1.698   0.730   8.993 -0.0978 -0.7400 -0.3283
  156SAPE  C21317405   1.711   0.510   9.043  0.2564  0.3733  0.0466
  156SAPE  H13R17406   1.627   0.446   9.008 -0.2819  0.8830  0.4055
  156SAPE  H13S17407   1.736   0.471   9.144  0.8440 -1.7106 -0.8447
  156SAPE  C21417408   1.836   0.496   8.959  0.4926 -0.0275  0.3907
  156SAPE  H14R17409   1.827   0.510   8.850 -0.9359  1.9745  0.7135
  156SAPE  C21517410   1.955   0.459   8.998  0.1525  0.1063 -0.3078
  156SAPE  H15R17411   2.026   0.446   8.915 -1.5506  1.5097 -2.0704
  156SAPE  C21617412   2.013   0.417   9.131  0.8595 -0.2983  0.1956
  156SAPE  H16R17413   2.117   0.384   9.108  1.1857 -0.0403  1.2362
  156SAPE  H16S17414   1.950   0.331   9.161 -1.9766  1.6244  0.1063
  156SAPE  C21717415   2.014   0.526   9.235 -0.2195  0.3663  0.1822
  156SAPE  H17R17416   1.913   0.570   9.246 -0.5659 -0.5253  0.6984
  156SAPE  H17S17417   2.084   0.607   9.206  0.3802 -0.3696 -0.4597
  156SAPE  C21817418   2.042   0.487   9.380  0.0919  0.2016  0.1012
  156SAPE  H18R17419   2.039   0.589   9.424  0.4031  0.6268 -0.8505
  156SAPE  H18S17420   2.146   0.448   9.380  1.0609  2.6320 -0.1507
  156SAPE  C21917421   1.937   0.396   9.448 -0.0551  0.1227  1.0480
  156SAPE  H19R17422   1.954   0.404   9.557  1.2562  0.3491  0.8463
  156SAPE  H19S17423   1.947   0.288   9.422  2.4649 -0.4713  3.9680
  156SAPE  C22017424   1.791   0.434   9.425  0.6280  0.3622 -1.0782
  156SAPE  H20R17425   1.782   0.544   9.433  0.4282  0.4543 -2.4631
  156SAPE  H20S17426   1.723   0.387   9.500  1.2928 -2.6450 -2.2367
  156SAPE  H20T17427   1.750   0.411   9.325 -1.0200  1.6867 -0.7652
  156SAPE   C3317428   1.079   1.077   9.806  0.6308 -0.0686 -0.1681
  156SAPE   H3X17429   1.032   0.985   9.848  2.5168 -0.6707  0.7402
  156SAPE   H3Y17430   1.176   1.057   9.755  0.6063 -0.1473 -0.1839
  156SAPE   C3417431   0.979   1.141   9.704  0.2626 -0.1725 -0.4198
  156SAPE   H4X17432   1.018   1.240   9.671 -0.3910 -0.0462 -0.8316
  156SAPE   H4Y17433   0.884   1.163   9.757 -0.0249 -3.8742  0.9193
  156SAPE   C3517434   0.949   1.064   9.580  0.1451 -0.4019 -0.4102
  156SAPE   H5X17435   0.892   1.124   9.505  0.9188 -0.3521 -0.9722
  156SAPE   H5Y17436   0.893   0.973   9.610 -1.4147  0.9832  1.1192
  156SAPE   C3617437   1.074   0.993   9.518  0.0642 -0.3752  0.2981
  156SAPE   H6X17438   1.036   0.929   9.435  0.9333 -0.4329 -0.0759
  156SAPE   H6Y17439   1.130   0.936   9.596 -0.7863  1.4420  2.3376
  156SAPE   C3717440   1.167   1.091   9.445 -0.0735 -0.0797  0.0291
  156SAPE   H7X17441   1.247   1.119   9.517 -0.7054  2.7386 -0.2235
  156SAPE   H7Y17442   1.120   1.188   9.419 -0.5580 -0.4615 -0.5219
  156SAPE   C3817443   1.220   1.038   9.312  0.6164 -0.2708  0.8790
  156SAPE   H8X17444   1.139   1.015   9.239  2.6624  0.1040 -1.6850
  156SAPE   H8Y17445   1.266   0.937   9.322 -2.3828 -1.5896  2.5885
  156SAPE   C3917446   1.320   1.124   9.221  0.3550 -0.1050  0.2640
  156SAPE   H9X17447   1.401   1.165   9.286 -0.5743  1.1233  0.7050
  156SAPE   H9Y17448   1.269   1.213   9.177  4.4687  1.9761 -0.7739
  156SAPE  C31017449   1.370   1.042   9.108  0.0176 -0.0810  1.0978
  156SAPE  H10X17450   1.300   0.978   9.051  2.7730 -1.0794 -1.4278
  156SAPE  H10Y17451   1.444   0.972   9.153  1.6537 -0.9821 -2.6655
  156SAPE  C31117452   1.445   1.112   8.992 -0.1389 -0.8240  0.2157
  156SAPE  H11X17453   1.526   1.169   9.041 -0.1610 -0.5197 -0.0983
  156SAPE  H11Y17454   1.374   1.184   8.946  0.7666  2.5269  3.5917
  156SAPE  C31217455   1.515   1.019   8.890 -0.3178  0.2463 -0.4284
  156SAPE  H12X17456   1.577   0.946   8.947  0.5738  0.8989 -0.5376
  156SAPE  H12Y17457   1.575   1.084   8.822 -0.5164  0.7126 -0.1589
  156SAPE  C31317458   1.412   0.939   8.801 -0.5611  0.1109 -0.8120
  156SAPE  H13X17459   1.357   1.008   8.734 -1.8202 -0.8129 -0.7739
  156SAPE  H13Y17460   1.352   0.880   8.873  0.5981 -0.0796  0.0297
  156SAPE  C31417461   1.480   0.833   8.710  0.9274 -0.3450 -0.7192
  156SAPE  H14X17462   1.524   0.768   8.788  1.1664  2.6791  1.8853
  156SAPE  H14Y17463   1.556   0.877   8.642 -0.0674 -0.2143 -1.7814
  156SAPE  C31517464   1.388   0.763   8.629  0.2221 -0.2462 -0.1712
  156SAPE  H15X17465   1.331   0.831   8.562 -0.9989  0.8660  1.9100
  156SAPE  H15Y17466   1.303   0.707   8.674 -1.2011  0.1106 -2.2743
  156SAPE  C31617467   1.452   0.663   8.531  0.1085  0.2996 -0.0178
  156SAPE  H16X17468   1.542   0.707   8.485  0.3578  0.6951  0.8239
  156SAPE  H16Y17469   1.365   0.638   8.466  0.7859 -1.4920 -0.2952
  156SAPE  C31717470   1.501   0.537   8.604  0.1310  0.0755  0.8684
  156SAPE  H17X17471   1.410   0.492   8.650  0.2129  2.1488  3.3186
  156SAPE  H17Y17472   1.564   0.579   8.685  1.9744 -0.3964 -0.2762
  156SAPE  C31817473   1.557   0.443   8.505 -0.0135  0.2165 -0.2325
  156SAPE  H18X17474   1.492   0.418   8.419  1.4881 -2.4354 -0.6981
  156SAPE  H18Y17475   1.572   0.347   8.559 -0.4595  0.4163  0.2544
  156SAPE  H18Z17476   1.656   0.477   8.468 -0.2268  0.6939 -0.3640
  157SAPE     N17477   1.651   5.797  10.679 -0.2806 -0.4660  0.3848
  157SAPE   HN117478   1.610   5.726  10.743 -0.8558 -1.1583 -0.7158
  157SAPE   HN217479   1.600   5.791  10.589 -0.0328 -0.8474  0.2671
  157SAPE   HN317480   1.752   5.779  10.660  0.0568  1.3936  0.2524
  157SAPE   C1217481   1.648   5.928  10.737  0.5193 -1.0061  0.1225
  157SAPE  H12A17482   1.724   5.938  10.817 -0.9986  0.6282  1.4537
  157SAPE  H12B17483   1.544   5.950  10.769  0.2322 -0.0007 -1.3781
  157SAPE   C1117484   1.689   6.028  10.618 -0.0778 -1.0033 -0.5354
  157SAPE  H11A17485   1.636   6.125  10.613  1.7472  0.3077  2.6295
  157SAPE  H11B17486   1.658   5.978  10.524  0.2141  0.3052 -1.3513
  157SAPE     P17487   1.939   5.944  10.562  0.1296 -0.4165  0.1627
  157SAPE   O1317488   2.075   6.001  10.536  1.0621 -0.0452  0.3936
  157SAPE   O1417489   1.931   5.848  10.673  0.0075  0.7718  0.4590
  157SAPE   O1217490   1.831   6.056  10.611 -0.4091 -0.0113  0.5093
  157SAPE   O1117491   1.876   5.879  10.433 -0.4299  0.4068  0.0031
  157SAPE    C117492   1.840   5.960  10.319 -0.5828  0.6628 -0.6637
  157SAPE    HA17493   1.733   5.933  10.317 -0.1271 -1.3318 -0.1872
  157SAPE    HB17494   1.844   6.068  10.344  1.7074  0.5490 -0.2748
  157SAPE    C217495   1.910   5.915  10.191 -0.0401  0.1493 -0.6561
  157SAPE    HS17496   1.866   5.938  10.091  0.1311  0.9083 -0.5642
  157SAPE   O2117497   1.940   5.775  10.190 -0.7217 -0.7507 -0.5925
  157SAPE   C2117498   1.841   5.696  10.147 -0.5076  0.2170 -0.2768
  157SAPE   O2217499   1.734   5.733  10.114  0.4828 -0.4926 -0.1169
  157SAPE   C2217500   1.894   5.552  10.146 -1.0524 -0.1330 -0.1561
  157SAPE   H2R17501   1.949   5.538  10.241 -1.0945 -2.2372 -0.3932
  157SAPE   H2S17502   1.804   5.487  10.137 -1.1061 -0.1026  0.1739
  157SAPE    C317503   2.051   5.977  10.197  0.0366 -0.2091 -0.7925
  157SAPE    HX17504   2.101   5.934  10.286 -1.3853 -2.3841 -0.9683
  157SAPE    HY17505   2.044   6.087  10.214  0.6823 -0.1417 -0.9368
  157SAPE   O3117506   2.131   5.941  10.075  0.3769 -0.3780  0.0807
  157SAPE   C3117507   2.257   5.919  10.096  0.7493 -0.3322  0.2220
  157SAPE   O3217508   2.321   5.946  10.199 -0.0156  0.0954 -0.0064
  157SAPE   C3217509   2.316   5.863   9.969 -0.3667 -0.3536  0.2201
  157SAPE   H2X17510   2.242   5.806   9.909  0.2585  0.0694 -0.9950
  157SAPE   H2Y17511   2.402   5.804  10.005  0.5570 -0.2909 -1.7653
  157SAPE   C2317512   1.988   5.536  10.032 -0.0648  0.8212 -0.3153
  157SAPE   H3R17513   2.025   5.432  10.046 -2.5141  0.0665  1.1846
  157SAPE   H3S17514   2.080   5.599  10.040  2.0699 -2.0557 -0.5024
  157SAPE   C2417515   1.930   5.538   9.895  0.2724  0.5911 -0.7901
  157SAPE   H4R17516   1.832   5.486   9.885  0.4583  0.1497 -0.3767
  157SAPE   H4S17517   1.998   5.476   9.834  0.4797 -1.6239  1.5027
  157SAPE   C2517518   1.910   5.682   9.848 -0.2990 -0.7294 -0.0130
  157SAPE   H5R17519   1.820   5.736   9.882  0.4261  0.5045 -0.0075
  157SAPE   C2617520   1.988   5.742   9.755 -0.3077 -0.1658  0.2962
  157SAPE   H6R17521   1.967   5.842   9.715 -0.8236 -1.7384 -3.8201
  157SAPE   C2717522   2.103   5.673   9.683  0.8966  0.9114  0.5611
  157SAPE   H7R17523   2.051   5.603   9.614  0.9736  2.2181 -0.8622
  157SAPE   H7S17524   2.173   5.625   9.755  1.2612  0.8679  0.1731
  157SAPE   C2817525   2.178   5.765   9.590 -0.2981 -0.1047  0.3066
  157SAPE   H8R17526   2.250   5.829   9.643 -1.3285  0.4807  1.0590
  157SAPE   C2917527   2.156   5.790   9.460  0.5556  0.0029  0.1026
  157SAPE   H9R17528   2.224   5.857   9.407  0.1826  0.5811  0.3399
  157SAPE  C21017529   2.044   5.727   9.379 -0.8220  0.5490 -1.0655
  157SAPE  H10R17530   1.967   5.700   9.455 -0.0112 -2.7106 -1.2589
  157SAPE  H10S17531   2.080   5.628   9.346  0.9293  0.9264 -0.3734
  157SAPE  C21117532   1.981   5.813   9.273  0.4004  0.1980 -0.4763
  157SAPE  H11R17533   1.956   5.916   9.301  0.1776  0.1507 -0.4954
  157SAPE  C21217534   1.948   5.777   9.147 -0.3302  0.2859 -0.8718
  157SAPE  H12R17535   1.895   5.848   9.082 -1.4984 -0.7683 -1.1232
  157SAPE  C21317536   1.981   5.642   9.095  0.4272  0.1654 -0.4478
  157SAPE  H13R17537   2.064   5.591   9.147  1.8585  0.3783 -2.4013
  157SAPE  H13S17538   2.018   5.664   8.992 -1.7059 -0.0138 -1.3114
  157SAPE  C21417539   1.859   5.560   9.092  0.4776 -0.2452  0.6066
  157SAPE  H14R17540   1.815   5.531   9.189 -0.1633  0.2307  0.4667
  157SAPE  C21517541   1.787   5.543   8.982  0.3109 -0.5498 -0.1688
  157SAPE  H15R17542   1.694   5.485   8.988 -0.3365  0.6011  1.5725
  157SAPE  C21617543   1.822   5.597   8.843  0.7088  0.7484 -0.3815
  157SAPE  H16R17544   1.913   5.551   8.798  1.1638 -0.7599  1.9473
  157SAPE  H16S17545   1.840   5.706   8.843  2.2344  0.5147  0.1247
  157SAPE  C21717546   1.695   5.585   8.752  0.0005 -0.3184 -0.6995
  157SAPE  H17R17547   1.605   5.622   8.805 -0.2366 -0.9816 -0.6190
  157SAPE  H17S17548   1.671   5.480   8.725 -2.9352 -0.4954  1.9718
  157SAPE  C21817549   1.703   5.674   8.626  0.0030  0.1236 -0.4277
  157SAPE  H18R17550   1.800   5.671   8.571  0.5546 -0.9009  0.5606
  157SAPE  H18S17551   1.712   5.778   8.664 -1.2677  0.3543 -0.7188
  157SAPE  C21917552   1.579   5.661   8.542  0.4279 -0.6086  0.0480
  157SAPE  H19R17553   1.583   5.560   8.498  1.8081 -0.7895  0.5491
  157SAPE  H19S17554   1.591   5.735   8.461  1.7525  0.5946  1.2780
  157SAPE  C22017555   1.443   5.680   8.620  0.0672 -0.0500 -0.4381
  157SAPE  H20R17556   1.421   5.582   8.667  1.5438 -0.0140  0.3718
  157SAPE  H20S17557   1.367   5.715   8.547  0.3526  2.2879  0.2960
  157SAPE  H20T17558   1.449   5.766   8.690 -4.7133  1.0896 -1.0746
  157SAPE   C3317559   2.342   5.976   9.876  0.3111  0.1367  0.2628
  157SAPE   H3X17560   2.386   6.064   9.929 -1.5279  0.7140  0.9351
  157SAPE   H3Y17561   2.244   6.011   9.837  1.1076  0.5511 -1.4622
  157SAPE   C3417562   2.458   5.940   9.777 -0.0003 -0.1233 -0.6157
  157SAPE   H4X17563   2.443   5.837   9.741 -3.2119 -1.0034  2.6038
  157SAPE   H4Y17564   2.556   5.937   9.829  0.7371  0.2887 -1.9365
  157SAPE   C3517565   2.473   6.043   9.659 -0.6684  0.0130  0.5101
  157SAPE   H5X17566   2.470   6.145   9.701 -0.8854 -0.5320  1.8808
  157SAPE   H5Y17567   2.395   6.016   9.585  0.1194 -0.3074 -0.2244
  157SAPE   C3617568   2.606   6.037   9.576  0.1423 -0.2574 -0.2371
  157SAPE   H6X17569   2.639   5.936   9.542  1.0139  0.0879 -0.4484
  157SAPE   H6Y17570   2.689   6.080   9.636 -1.1868  0.0384  1.4710
  157SAPE   C3717571   2.601   6.129   9.449 -0.1332 -0.4310  0.5318
  157SAPE   H7X17572   2.707   6.160   9.433  0.0065 -0.9634  0.3908
  157SAPE   H7Y17573   2.551   6.227   9.464  0.0316 -0.1523 -0.6186
  157SAPE   C3817574   2.549   6.069   9.320  0.3123  0.4668  0.0413
  157SAPE   H8X17575   2.452   6.019   9.340  0.7916 -0.7520 -0.5922
  157SAPE   H8Y17576   2.617   5.991   9.281 -1.7516 -0.6654 -1.5393
  157SAPE   C3917577   2.544   6.173   9.205 -0.0087  0.1636 -0.0076
  157SAPE   H9X17578   2.631   6.242   9.201 -1.8806  2.6870  0.2384
  157SAPE   H9Y17579   2.454   6.239   9.214  0.0700  0.1232  1.1506
  157SAPE  C31017580   2.544   6.116   9.072 -0.8963 -0.3479  0.0752
  157SAPE  H10X17581   2.458   6.053   9.041  0.3023 -0.9274 -2.3287
  157SAPE  H10Y17582   2.633   6.052   9.055 -1.4154 -0.3776 -3.1703
  157SAPE  C31117583   2.556   6.231   8.966 -0.0720  0.0433  0.0134
  157SAPE  H11X17584   2.656   6.280   8.974  0.5045 -1.0213 -0.4893
  157SAPE  H11Y17585   2.475   6.303   8.992 -2.5667 -2.3749 -0.5971
  157SAPE  C31217586   2.530   6.179   8.818 -0.2726 -0.6600  0.2952
  157SAPE  H12X17587   2.532   6.263   8.746  1.2262 -1.2729 -0.4028
  157SAPE  H12Y17588   2.424   6.154   8.798 -0.1522 -0.3999 -0.6957
  157SAPE  C31317589   2.613   6.063   8.764 -0.4262  0.5675 -0.6337
  157SAPE  H13X17590   2.577   6.032   8.663 -1.1183 -2.7128  0.5035
  157SAPE  H13Y17591   2.593   5.971   8.823 -0.3497 -0.0684 -1.5725
  157SAPE  C31417592   2.769   6.097   8.769 -0.5629 -0.5378 -0.1393
  157SAPE  H14X17593   2.828   6.019   8.718  1.8615  0.8070  0.4537
  157SAPE  H14Y17594   2.800   6.116   8.874 -0.6740  0.3801 -0.2629
  157SAPE  C31517595   2.799   6.223   8.691 -0.0374 -0.4263 -0.0042
  157SAPE  H15X17596   2.768   6.315   8.745  1.9677  1.5665 -2.0054
  157SAPE  H15Y17597   2.749   6.209   8.593 -0.4035 -0.0789  0.1286
  157SAPE  C31617598   2.944   6.245   8.661  0.3728  0.6811 -1.1758
  157SAPE  H16X17599   3.000   6.155   8.627 -0.0501  0.4651 -1.3033
  157SAPE  H16Y17600   2.992   6.277   8.756 -1.5449 -1.0981  0.4844
  157SAPE  C31717601   2.972   6.354   8.549 -0.0663  0.1026 -0.4660
  157SAPE  H17X17602   3.082   6.369   8.547  0.3875 -2.6226 -2.1670
  157SAPE  H17Y17603   2.922   6.446   8.585  0.7083  0.4105 -0.1646
  157SAPE  C31817604   2.928   6.314   8.412  1.0874 -0.6719 -0.5953
  157SAPE  H18X17605   2.967   6.386   8.337 -0.0478  0.3891 -0.1997
  157SAPE  H18Y17606   2.818   6.324   8.401  0.7473 -2.0897  1.1055
  157SAPE  H18Z17607   2.960   6.210   8.389 -0.6269 -1.5025  0.5586
  158SAPE     N17608   5.973   0.020  10.740  0.6953  0.0833  0.5032
  158SAPE   HN117609   5.904   0.097  10.746  2.2053  1.8058 -2.0951
  158SAPE   HN217610   6.060   0.074  10.760  0.8269 -0.5539  1.7375
  158SAPE   HN317611   5.979  -0.023  10.646 -2.9853  0.6430 -0.1283
  158SAPE   C1217612   5.974  -0.093  10.837  0.7646 -0.2004 -0.1548
  158SAPE  H12A17613   5.927  -0.186  10.798  0.8506 -0.9588  1.4776
  158SAPE  H12B17614   5.925  -0.052  10.927  1.1287 -0.3071  0.0920
  158SAPE   C1117615   6.113  -0.146  10.874 -0.5863 -0.0139 -0.3997
  158SAPE  H11A17616   6.106  -0.206  10.967  1.2812 -2.2741 -1.6095
  158SAPE  H11B17617   6.191  -0.069  10.892 -0.7106  0.0549 -0.1458
  158SAPE     P17618   6.319  -0.278  10.745  0.1067  0.1759 -0.3464
  158SAPE   O1317619   6.402  -0.246  10.867 -0.4926  0.5789  0.7209
  158SAPE   O1417620   6.319  -0.421  10.710  0.1183 -0.1820  0.2260
  158SAPE   O1217621   6.159  -0.233  10.768  0.1177 -0.0666  0.2017
  158SAPE   O1117622   6.374  -0.191  10.630 -0.2716 -0.0928 -0.2095
  158SAPE    C117623   6.309  -0.103  10.534  0.3961  0.2775 -0.1689
  158SAPE    HA17624   6.217  -0.058  10.577  0.2351  1.3943 -1.6206
  158SAPE    HB17625   6.372  -0.015  10.509  1.9104  0.4755  3.5808
  158SAPE    C217626   6.251  -0.178  10.409  0.0627  0.4694  0.3948
  158SAPE    HS17627   6.160  -0.233  10.441 -1.0830  0.8812 -1.9214
  158SAPE   O2117628   6.349  -0.264  10.360  0.0576  0.2789 -0.1017
  158SAPE   C2117629   6.303  -0.380  10.302 -0.3252  0.2392 -0.0760
  158SAPE   O2217630   6.189  -0.417  10.304  0.1656 -0.2265 -0.4155
  158SAPE   C2217631   6.418  -0.439  10.224 -0.5147 -0.7215 -0.2501
  158SAPE   H2R17632   6.451  -0.354  10.160 -0.2288  0.1632  1.0242
  158SAPE   H2S17633   6.490  -0.473  10.302 -0.2590 -1.3763 -0.7627
  158SAPE    C317634   6.217  -0.074  10.294 -0.0522  0.0885  0.0758
  158SAPE    HX17635   6.314  -0.024  10.271  0.5718 -0.2405  1.7972
  158SAPE    HY17636   6.147   0.006  10.326  1.9468  1.8065  0.3975
  158SAPE   O3117637   6.163  -0.145  10.174 -0.0320 -0.2219  0.4705
  158SAPE   C3117638   6.035  -0.159  10.174 -0.7306 -0.1524  0.3314
  158SAPE   O3217639   5.957  -0.097  10.242 -0.8046 -0.0353  0.5848
  158SAPE   C3217640   6.007  -0.262  10.078  0.0740  0.6209  0.6808
  158SAPE   H2X17641   6.015  -0.354  10.141 -1.7111  1.0736  1.6392
  158SAPE   H2Y17642   6.078  -0.271   9.993  0.2320 -0.1400  0.8885
  158SAPE   C2317643   6.358  -0.551  10.136  0.2558 -1.1120  0.0445
  158SAPE   H3R17644   6.276  -0.500  10.081  0.1678  0.4852  1.5530
  158SAPE   H3S17645   6.309  -0.629  10.198  1.6312 -2.0449 -0.0046
  158SAPE   C2417646   6.454  -0.609  10.033  0.3193  0.1329 -0.7777
  158SAPE   H4R17647   6.527  -0.536   9.990  0.9119  0.2412  0.3802
  158SAPE   H4S17648   6.395  -0.649   9.947  0.4542 -0.5342 -0.5628
  158SAPE   C2517649   6.538  -0.709  10.109 -0.0309 -0.3100  0.0543
  158SAPE   H5R17650   6.519  -0.720  10.217  1.0310 -0.2253  0.2620
  158SAPE   C2617651   6.628  -0.792  10.054  0.2594  0.2171  0.0920
  158SAPE   H6R17652   6.677  -0.855  10.129 -0.0187 -0.7018 -0.4849
  158SAPE   C2717653   6.660  -0.804   9.906 -0.4077 -0.5353 -0.4268
  158SAPE   H7R17654   6.589  -0.744   9.845 -3.6664 -2.0186  1.6170
  158SAPE   H7S17655   6.626  -0.907   9.881  0.0234 -0.2428 -2.4652
  158SAPE   C2817656   6.807  -0.786   9.876  0.2846 -0.1227 -0.7322
  158SAPE   H8R17657   6.865  -0.862   9.930 -1.1212 -1.4828 -1.0517
  158SAPE   C2917658   6.872  -0.685   9.804  0.2836 -0.1431 -0.3104
  158SAPE   H9R17659   6.978  -0.685   9.777  0.6597 -0.8335  1.0748
  158SAPE  C21017660   6.807  -0.573   9.728  0.4744 -0.1782 -0.2772
  158SAPE  H10R17661   6.887  -0.495   9.724 -0.0437  0.3261 -1.2556
  158SAPE  H10S17662   6.734  -0.520   9.793  0.7244  0.2532 -0.3398
  158SAPE  C21117663   6.744  -0.609   9.597 -0.6192  0.1130  0.4455
  158SAPE  H11R17664   6.642  -0.649   9.601 -1.5446  2.1276 -1.0173
  158SAPE  C21217665   6.795  -0.579   9.475 -0.4369  0.3257  0.2898
  158SAPE  H12R17666   6.737  -0.604   9.385 -0.2350 -0.6595  0.4214
  158SAPE  C21317667   6.912  -0.499   9.438 -0.1194 -1.0968  0.5953
  158SAPE  H13R17668   6.943  -0.451   9.533 -0.0523 -1.3695  0.7144
  158SAPE  H13S17669   6.878  -0.426   9.363 -0.9710 -0.8535  1.2071
  158SAPE  C21417670   7.026  -0.578   9.386 -0.1788  0.3183  0.7899
  158SAPE  H14R17671   7.030  -0.683   9.420  2.9338 -0.3803 -1.3565
  158SAPE  C21517672   7.123  -0.538   9.298  0.6858  0.4240 -0.5216
  158SAPE  H15R17673   7.205  -0.608   9.279  3.3972  3.4185 -0.6660
  158SAPE  C21617674   7.136  -0.403   9.230 -0.5622 -0.1842  0.1096
  158SAPE  H16R17675   7.244  -0.376   9.239  0.2701 -2.2258 -2.5220
  158SAPE  H16S17676   7.067  -0.332   9.281 -0.6067 -0.0507 -0.1383
  158SAPE  C21717677   7.104  -0.423   9.084  0.2444  0.0857 -0.9477
  158SAPE  H17R17678   7.000  -0.462   9.079  0.2314  0.1740 -1.4027
  158SAPE  H17S17679   7.178  -0.484   9.028 -0.2548 -1.5213  0.0540
  158SAPE  C21817680   7.118  -0.285   9.015 -0.7765 -0.6482  0.0055
  158SAPE  H18R17681   7.220  -0.246   9.037 -1.1143 -0.0590  0.5473
  158SAPE  H18S17682   7.051  -0.210   9.060 -0.3278  0.8269 -1.6737
  158SAPE  C21917683   7.080  -0.277   8.870 -0.1254 -0.8395 -0.4834
  158SAPE  H19R17684   7.154  -0.334   8.810  3.8826  1.6643  1.6861
  158SAPE  H19S17685   7.092  -0.171   8.840 -1.4346 -0.2201  1.0360
  158SAPE  C22017686   6.936  -0.312   8.833 -0.0468  0.0538  0.1150
  158SAPE  H20R17687   6.865  -0.257   8.899 -1.6693 -2.1029  0.2841
  158SAPE  H20S17688   6.914  -0.420   8.850 -0.2181  0.1885  0.7965
  158SAPE  H20T17689   6.915  -0.287   8.727  1.0089 -0.5059 -0.2413
  158SAPE   C3317690   5.860  -0.259  10.023 -0.6611  0.2803  0.0807
  158SAPE   H3X17691   5.788  -0.276  10.106 -1.0322  0.5837 -0.1749
  158SAPE   H3Y17692   5.860  -0.345   9.953  0.9463  0.5167 -0.2569
  158SAPE   C3417693   5.816  -0.133   9.953  0.2093 -0.0417  0.3857
  158SAPE   H4X17694   5.812  -0.048  10.025  1.0022  0.0756  0.2965
  158SAPE   H4Y17695   5.713  -0.156   9.918 -0.5998  0.3895  2.3217
  158SAPE   C3517696   5.905  -0.086   9.840 -0.6440  0.3274  0.3354
  158SAPE   H5X17697   6.014  -0.090   9.865  0.3104  2.5203 -2.8720
  158SAPE   H5Y17698   5.893   0.018   9.805 -1.0914  0.2607  0.2878
  158SAPE   C3617699   5.897  -0.174   9.709 -0.3678 -0.0656 -0.2131
  158SAPE   H6X17700   5.788  -0.182   9.691  0.0067 -0.8988 -2.3177
  158SAPE   H6Y17701   5.946  -0.271   9.729  1.4336  0.6302 -1.0770
  158SAPE   C3717702   5.962  -0.097   9.587 -0.8678 -0.1491  0.0485
  158SAPE   H7X17703   6.071  -0.081   9.602 -0.5967 -0.8292 -1.0335
  158SAPE   H7Y17704   5.912   0.001   9.592 -1.4816 -0.5234  2.5033
  158SAPE   C3817705   5.942  -0.169   9.455  0.0585  0.3927  0.4677
  158SAPE   H8X17706   5.838  -0.206   9.442  0.7270 -1.4110 -0.0427
  158SAPE   H8Y17707   6.005  -0.260   9.445 -1.2126 -0.2952 -2.2075
  158SAPE   C3917708   5.977  -0.070   9.342 -0.1240  0.6812 -0.4979
  158SAPE   H9X17709   6.057  -0.000   9.377 -1.5306  1.1511  2.0634
  158SAPE   H9Y17710   5.895   0.005   9.339 -1.5533 -0.7962  0.3558
  158SAPE  C31017711   5.976  -0.132   9.203  0.1992 -0.1354 -0.5032
  158SAPE  H10X17712   6.055  -0.210   9.208 -1.6077 -1.9841  1.2630
  158SAPE  H10Y17713   6.000  -0.058   9.124 -0.6165 -0.7208 -1.3086
  158SAPE  C31117714   5.849  -0.210   9.174 -0.8581 -0.2329 -0.2800
  158SAPE  H11X17715   5.764  -0.141   9.188  0.5333  2.9455 -4.9675
  158SAPE  H11Y17716   5.841  -0.284   9.255 -0.3524  2.4157  2.3696
  158SAPE  C31217717   5.830  -0.255   9.023  0.4257 -0.1692 -0.1900
  158SAPE  H12X17718   5.915  -0.324   9.002  1.0723  0.6973 -0.4826
  158SAPE  H12Y17719   5.826  -0.167   8.955 -0.9092 -2.3089 -3.0914
  158SAPE  C31317720   5.695  -0.320   9.005  0.6101 -0.3616  0.3047
  158SAPE  H13X17721   5.656  -0.344   9.106  0.6220  1.0194  0.6528
  158SAPE  H13Y17722   5.712  -0.417   8.953 -1.2685  0.4001 -1.8713
  158SAPE  C31417723   5.589  -0.233   8.925 -1.1276 -0.8909  0.1538
  158SAPE  H14X17724   5.587  -0.131   8.970 -0.4647 -0.3959 -0.9114
  158SAPE  H14Y17725   5.487  -0.277   8.927 -1.3774 -0.3671 -0.8791
  158SAPE  C31517726   5.630  -0.198   8.785 -0.3006  0.1815  0.0246
  158SAPE  H15X17727   5.737  -0.168   8.779 -0.7193  1.9925  0.9233
  158SAPE  H15Y17728   5.567  -0.114   8.749  0.3531  1.2018  1.1765
  158SAPE  C31617729   5.604  -0.324   8.695 -0.2765 -0.1870  0.2896
  158SAPE  H16X17730   5.498  -0.357   8.698 -1.1826  2.5026  1.1720
  158SAPE  H16Y17731   5.658  -0.410   8.739 -1.0065 -0.7265  0.1471
  158SAPE  C31717732   5.656  -0.325   8.551  0.3518 -0.9327  1.0133
  158SAPE  H17X17733   5.677  -0.426   8.509 -0.9610 -0.4157 -1.0164
  158SAPE  H17Y17734   5.752  -0.270   8.546 -0.1749  0.0328 -3.8927
  158SAPE  C31817735   5.557  -0.245   8.449 -0.1484 -0.1523 -0.7054
  158SAPE  H18X17736   5.567  -0.272   8.342  2.1070 -2.9319  0.0679
  158SAPE  H18Y17737   5.572  -0.135   8.458  1.0621 -0.3679  0.2005
  158SAPE  H18Z17738   5.458  -0.273   8.491 -0.3794  2.9606  1.0899
  159SAPE     N17739   1.953   5.320   6.532 -0.3223  0.3174 -0.9922
  159SAPE   HN117740   1.897   5.369   6.459  1.4285  2.9156 -0.7368
  159SAPE   HN217741   1.989   5.232   6.492 -0.0810 -0.4113  0.7211
  159SAPE   HN317742   1.888   5.290   6.608  2.3854 -1.0739  0.9512
  159SAPE   C1217743   2.055   5.417   6.582  0.4679  0.5005 -0.5230
  159SAPE  H12A17744   2.005   5.491   6.648 -0.3629 -0.7136  0.2316
  159SAPE  H12B17745   2.102   5.474   6.498 -0.3418 -0.5435 -1.7117
  159SAPE   C1117746   2.163   5.330   6.651 -0.1933 -0.1961 -0.1348
  159SAPE  H11A17747   2.121   5.280   6.741 -0.4981 -0.3634 -0.3706
  159SAPE  H11B17748   2.240   5.401   6.690 -0.5124  0.1178 -0.0707
  159SAPE     P17749   2.310   5.117   6.604  0.2784  0.0128 -0.3153
  159SAPE   O1317750   2.224   4.998   6.631 -0.1522 -0.1607 -0.1444
  159SAPE   O1417751   2.411   5.114   6.500 -1.1472  0.4235 -0.5644
  159SAPE   O1217752   2.216   5.238   6.555 -0.5240  0.5757 -0.0083
  159SAPE   O1117753   2.382   5.175   6.730  0.3949  0.7550 -0.1211
  159SAPE    C117754   2.470   5.100   6.813 -0.3744 -0.1826  0.4469
  159SAPE    HA17755   2.544   5.046   6.751  1.4278  1.4925  1.0220
  159SAPE    HB17756   2.538   5.174   6.862  0.8617 -0.4050 -0.8866
  159SAPE    C217757   2.403   5.015   6.929 -1.0071 -0.1312  0.3697
  159SAPE    HS17758   2.342   4.934   6.883 -0.0192 -0.1559 -0.9398
  159SAPE   O2117759   2.327   5.105   7.012  0.3885  0.0784  0.6176
  159SAPE   C2117760   2.241   5.043   7.096  0.8344 -0.6968  1.0501
  159SAPE   O2217761   2.226   4.925   7.093 -0.0888  0.5360  0.4003
  159SAPE   C2217762   2.152   5.138   7.172 -0.0040 -0.6480  0.2649
  159SAPE   H2R17763   2.216   5.192   7.246 -0.3839  3.0139 -1.8000
  159SAPE   H2S17764   2.113   5.217   7.104  0.0885 -0.7058  0.1428
  159SAPE    C317765   2.528   4.947   6.998  0.1307  0.6568 -0.8570
  159SAPE    HX17766   2.603   5.029   7.007  1.8452 -1.0275  1.5157
  159SAPE    HY17767   2.571   4.864   6.938 -1.8851  0.4940 -2.1655
  159SAPE   O3117768   2.493   4.916   7.134 -0.4596  0.5646 -0.2427
  159SAPE   C3117769   2.464   4.784   7.158  0.1586 -0.2400  0.3803
  159SAPE   O3217770   2.500   4.693   7.086  0.3800  0.4291 -0.3711
  159SAPE   C3217771   2.387   4.775   7.292 -0.0582  0.0212 -0.0600
  159SAPE   H2X17772   2.301   4.704   7.285 -0.9829  1.0561  0.4167
  159SAPE   H2Y17773   2.349   4.876   7.319 -0.8675 -0.0811 -0.7558
  159SAPE   C2317774   2.030   5.063   7.225  0.6951 -0.6789  0.2074
  159SAPE   H3R17775   2.074   4.976   7.278  0.2913 -1.6995 -1.0618
  159SAPE   H3S17776   1.969   5.032   7.136 -1.5397  2.6400  0.3882
  159SAPE   C2417777   1.944   5.143   7.328  0.7177  0.0702  0.3357
  159SAPE   H4R17778   1.900   5.231   7.276 -1.7533 -0.0594  2.0554
  159SAPE   H4S17779   2.012   5.185   7.405  0.0282  1.1850  0.3528
  159SAPE   C2517780   1.830   5.071   7.399 -0.2715 -0.6186  0.3624
  159SAPE   H5R17781   1.732   5.082   7.350  0.9126  0.9768 -1.7964
  159SAPE   C2617782   1.857   4.995   7.517 -0.2323 -0.2313  0.6655
  159SAPE   H6R17783   1.769   4.942   7.557  0.8187 -0.8683  2.2261
  159SAPE   C2717784   1.991   4.974   7.580  0.6623 -0.0423 -0.6909
  159SAPE   H7R17785   2.021   5.073   7.622 -0.6144  0.5212 -1.0340
  159SAPE   H7S17786   2.060   4.960   7.495  0.9614  1.2350 -0.6765
  159SAPE   C2817787   2.011   4.863   7.676 -0.1410 -0.1875 -0.1113
  159SAPE   H8R17788   2.032   4.768   7.625  0.1173 -1.1067  1.6150
  159SAPE   C2917789   1.999   4.869   7.811 -0.9298  0.7959 -0.7928
  159SAPE   H9R17790   2.016   4.777   7.869  1.7801  2.7424  1.7992
  159SAPE  C21017791   1.960   4.985   7.898 -0.0377  0.5078 -0.5687
  159SAPE  H10R17792   1.873   5.041   7.858  0.7127  0.5509 -2.2166
  159SAPE  H10S17793   2.043   5.060   7.891 -0.9259  1.3932 -2.2732
  159SAPE  C21117794   1.911   4.955   8.041  0.0809 -0.5603 -0.9108
  159SAPE  H11R17795   1.845   4.867   8.043 -1.4978  0.5951 -0.4307
  159SAPE  C21217796   1.939   5.016   8.157  0.2000  0.5192  0.5292
  159SAPE  H12R17797   1.885   4.974   8.244 -0.2793  0.6550  0.2998
  159SAPE  C21317798   2.025   5.129   8.182 -0.7268  0.6959 -0.1591
  159SAPE  H13R17799   1.990   5.224   8.136  0.6588  0.2834 -2.2261
  159SAPE  H13S17800   2.113   5.100   8.120 -0.7484 -0.7511  0.4683
  159SAPE  C21417801   2.064   5.151   8.329 -0.6865  0.3562  0.9547
  159SAPE  H14R17802   1.988   5.195   8.395 -1.7807 -0.5099  0.3185
  159SAPE  C21517803   2.179   5.108   8.387  0.5546  0.0643 -0.1043
  159SAPE  H15R17804   2.186   5.125   8.495 -1.3295 -2.1688  0.4466
  159SAPE  C21617805   2.293   5.039   8.322 -0.2328  0.4187  0.6954
  159SAPE  H16R17806   2.369   5.111   8.286  1.3008 -1.8973 -0.9734
  159SAPE  H16S17807   2.262   4.978   8.235  5.1876  0.7653 -1.8530
  159SAPE  C21717808   2.361   4.941   8.418  0.8942 -0.4507 -0.1786
  159SAPE  H17R17809   2.285   4.877   8.469 -1.2904  1.6112 -0.6625
  159SAPE  H17S17810   2.415   4.995   8.498 -0.7883  1.5597 -0.3193
  159SAPE  C21817811   2.466   4.846   8.357 -0.1997  0.2883  0.0250
  159SAPE  H18R17812   2.555   4.908   8.335 -1.0655  1.7795  0.5629
  159SAPE  H18S17813   2.437   4.793   8.263 -1.5702  1.1585 -0.0716
  159SAPE  C21917814   2.486   4.733   8.462 -0.3235 -0.9409  0.1767
  159SAPE  H19R17815   2.392   4.675   8.480 -0.9633  0.2570  0.8151
  159SAPE  H19S17816   2.520   4.777   8.558 -1.4627  1.8969 -0.6437
  159SAPE  C22017817   2.593   4.625   8.416  0.3834 -0.7609  0.6241
  159SAPE  H20R17818   2.550   4.576   8.326 -1.1945 -0.6174  1.2657
  159SAPE  H20S17819   2.622   4.551   8.493  0.4878 -1.1339  0.2258
  159SAPE  H20T17820   2.688   4.669   8.377 -0.0242 -1.7331 -1.6566
  159SAPE   C3317821   2.465   4.718   7.414 -0.2858 -0.3215  0.1648
  159SAPE   H3X17822   2.560   4.775   7.414  0.1268 -0.9771 -0.7811
  159SAPE   H3Y17823   2.500   4.615   7.391  0.3814  0.2683 -1.6680
  159SAPE   C3417824   2.392   4.723   7.547 -0.5481 -0.5890 -0.5777
  159SAPE   H4X17825   2.290   4.678   7.544  0.2132 -2.7279  1.8149
  159SAPE   H4Y17826   2.385   4.832   7.568  2.2929  0.0137 -2.2516
  159SAPE   C3517827   2.467   4.646   7.662 -0.2250  0.5966 -0.4702
  159SAPE   H5X17828   2.570   4.681   7.685  0.1694 -0.7082 -0.1155
  159SAPE   H5Y17829   2.477   4.541   7.625  1.8108  1.4860 -2.6802
  159SAPE   C3617830   2.391   4.650   7.799 -0.2800 -0.0735 -0.4148
  159SAPE   H6X17831   2.288   4.609   7.788 -0.6925  0.4451  1.2784
  159SAPE   H6Y17832   2.383   4.756   7.829  3.1357  0.8475 -2.2472
  159SAPE   C3717833   2.478   4.573   7.895  0.3584 -0.0497 -0.7833
  159SAPE   H7X17834   2.584   4.604   7.888  0.6844 -0.0513  2.5815
  159SAPE   H7Y17835   2.464   4.466   7.867 -1.1345 -0.2652  0.5755
  159SAPE   C3817836   2.430   4.593   8.042 -0.1676 -0.2135  1.2016
  159SAPE   H8X17837   2.425   4.701   8.069 -2.0145  0.1883 -0.4931
  159SAPE   H8Y17838   2.499   4.536   8.108  0.9005 -0.0539  0.2624
  159SAPE   C3917839   2.294   4.535   8.064  0.3301 -0.0341  0.4630
  159SAPE   H9X17840   2.297   4.424   8.067  0.8825 -0.0115  0.8303
  159SAPE   H9Y17841   2.224   4.574   7.987  0.3420 -0.8711  0.0273
  159SAPE  C31017842   2.234   4.580   8.199 -0.9612  0.2327 -0.3895
  159SAPE  H10X17843   2.240   4.691   8.203  0.1345  0.1720  0.0203
  159SAPE  H10Y17844   2.299   4.530   8.274 -1.2376 -0.0193 -0.3216
  159SAPE  C31117845   2.088   4.537   8.209 -0.2674 -0.2038 -0.3503
  159SAPE  H11X17846   2.083   4.429   8.186 -1.4235  0.1074 -1.7098
  159SAPE  H11Y17847   2.031   4.580   8.124 -0.4183 -2.3930 -1.4293
  159SAPE  C31217848   2.027   4.565   8.353 -0.4675  0.0392  0.1965
  159SAPE  H12X17849   2.113   4.552   8.422 -0.2941 -1.9196 -0.3058
  159SAPE  H12Y17850   1.956   4.480   8.369  1.0468 -1.1216  1.0008
  159SAPE  C31317851   1.962   4.697   8.373 -0.3387 -0.4935  0.0176
  159SAPE  H13X17852   1.877   4.728   8.309 -2.0508 -1.9885  1.4464
  159SAPE  H13Y17853   2.038   4.776   8.355 -0.9200  0.6123  2.0500
  159SAPE  C31417854   1.914   4.715   8.519  0.3586 -0.1522 -1.0485
  159SAPE  H14X17855   1.892   4.823   8.532  0.7781 -0.3820  2.7077
  159SAPE  H14Y17856   1.999   4.697   8.588 -0.2002  1.3269  0.0700
  159SAPE  C31517857   1.790   4.630   8.556 -0.1692  0.6483 -0.2075
  159SAPE  H15X17858   1.817   4.522   8.561 -0.4934  0.5466 -0.6376
  159SAPE  H15Y17859   1.717   4.645   8.474  0.2315  1.8821 -0.3553
  159SAPE  C31617860   1.718   4.680   8.684 -1.1017 -0.0207 -0.2076
  159SAPE  H16X17861   1.737   4.789   8.692  1.3397 -0.4623  1.2847
  159SAPE  H16Y17862   1.772   4.633   8.769  0.6146  1.3837 -0.4452
  159SAPE  C31717863   1.568   4.640   8.677  0.7325  0.6226 -0.4950
  159SAPE  H17X17864   1.545   4.533   8.654 -3.0263  1.3960 -0.9843
  159SAPE  H17Y17865   1.527   4.689   8.586  2.0106 -0.0763 -1.4882
  159SAPE  C31817866   1.487   4.670   8.802 -0.7485  0.2500 -0.3806
  159SAPE  H18X17867   1.379   4.653   8.784 -0.8040 -0.0738  0.2291
  159SAPE  H18Y17868   1.487   4.778   8.831 -1.3950 -0.0107  0.6422
  159SAPE  H18Z17869   1.526   4.618   8.892 -2.3372  0.5777  0.5276
  160SAPE     N17870   3.343   5.240   6.231 -0.7402 -0.2894  0.1505
  160SAPE   HN117871   3.383   5.144   6.223  1.3256  0.6610 -2.4959
  160SAPE   HN217872   3.267   5.235   6.301  2.0913 -0.4841  3.4231
  160SAPE   HN317873   3.302   5.267   6.139 -0.8247  1.1990  0.6069
  160SAPE   C1217874   3.439   5.347   6.269 -0.2122 -0.2381  0.5127
  160SAPE  H12A17875   3.376   5.438   6.257  0.2018 -0.2669 -2.7390
  160SAPE  H12B17876   3.519   5.352   6.193 -0.9394 -1.6194 -0.3866
  160SAPE   C1117877   3.487   5.316   6.414  0.1830 -0.0975  0.5416
  160SAPE  H11A17878   3.526   5.212   6.417  0.9555  0.1461 -0.3958
  160SAPE  H11B17879   3.411   5.328   6.494  0.3788  1.7760  0.4911
  160SAPE     P17880   3.747   5.386   6.449  0.5717  0.2946 -0.0493
  160SAPE   O1317881   3.774   5.242   6.462  0.2166 -0.5367  0.1983
  160SAPE   O1417882   3.798   5.453   6.326  0.4471  0.4790 -0.1047
  160SAPE   O1217883   3.588   5.412   6.455 -0.3300  0.0111 -0.1937
  160SAPE   O1117884   3.807   5.459   6.577  0.4976 -0.3601  0.0408
  160SAPE    C117885   3.742   5.585   6.610 -0.0737  0.3297 -0.3627
  160SAPE    HA17886   3.809   5.655   6.664 -1.3239  1.8118 -0.6681
  160SAPE    HB17887   3.705   5.636   6.519 -0.1136  0.2082 -0.4144
  160SAPE    C217888   3.621   5.559   6.702  0.4053  0.2057 -0.6583
  160SAPE    HS17889   3.535   5.517   6.645  0.1318 -0.2693  0.1022
  160SAPE   O2117890   3.582   5.677   6.776 -0.1802  0.4392 -0.4468
  160SAPE   C2117891   3.506   5.762   6.705  0.3067 -0.9086  0.3520
  160SAPE   O2217892   3.491   5.769   6.584 -0.4776 -0.1291 -0.1581
  160SAPE   C2217893   3.449   5.871   6.800  0.8435  0.1058 -0.1642
  160SAPE   H2R17894   3.383   5.826   6.877  1.5433  1.5243  1.3491
  160SAPE   H2S17895   3.531   5.906   6.867 -1.7093  2.0785  2.1317
  160SAPE    C317896   3.654   5.460   6.812  0.3368 -0.4223 -0.1007
  160SAPE    HX17897   3.736   5.508   6.869 -0.3179  0.5609  0.0315
  160SAPE    HY17898   3.697   5.367   6.767  3.0157 -0.4053  2.1058
  160SAPE   O3117899   3.535   5.431   6.894 -0.6162  0.0558  0.4449
  160SAPE   C3117900   3.519   5.512   6.996  0.3624 -1.0257  0.7574
  160SAPE   O3217901   3.597   5.593   7.038  0.2431  0.1863 -0.2800
  160SAPE   C3217902   3.385   5.485   7.052  0.6642 -0.2032  0.2619
  160SAPE   H2X17903   3.321   5.410   6.999  0.3205 -1.3331  2.1926
  160SAPE   H2Y17904   3.341   5.587   7.051  2.7834  0.7557 -0.3150
  160SAPE   C2317905   3.379   5.996   6.736 -0.5166  0.1708  0.7128
  160SAPE   H3R17906   3.280   5.975   6.692  0.1190 -2.2937  0.2605
  160SAPE   H3S17907   3.445   6.033   6.655  0.5574 -2.0186  0.5202
  160SAPE   C2417908   3.371   6.113   6.841 -0.0171 -0.2040  0.3484
  160SAPE   H4R17909   3.304   6.090   6.926 -0.1231  0.3552  0.4193
  160SAPE   H4S17910   3.309   6.189   6.788  0.3389  0.9415  1.4991
  160SAPE   C2517911   3.495   6.181   6.892  0.0133 -0.1017 -0.0171
  160SAPE   H5R17912   3.567   6.229   6.823 -0.8609 -1.2267 -1.8014
  160SAPE   C2617913   3.523   6.191   7.020 -0.2509  0.3246 -0.2326
  160SAPE   H6R17914   3.617   6.243   7.044  1.9199 -3.5597  0.5961
  160SAPE   C2717915   3.450   6.147   7.141 -0.3678 -0.4955  0.1744
  160SAPE   H7R17916   3.346   6.187   7.151 -0.1859 -0.1790  0.8202
  160SAPE   H7S17917   3.490   6.201   7.229 -1.7470 -0.2519  0.6807
  160SAPE   C2817918   3.432   6.002   7.168 -0.3811 -0.4845 -1.1607
  160SAPE   H8R17919   3.466   5.938   7.085  0.8093 -2.5407  0.7808
  160SAPE   C2917920   3.381   5.944   7.280 -0.1660 -0.4657  0.3331
  160SAPE   H9R17921   3.365   5.835   7.275  1.9270 -0.7882 -0.2690
  160SAPE  C21017922   3.323   6.022   7.400  0.2448 -0.1029  0.2594
  160SAPE  H10R17923   3.213   6.020   7.391  0.2218 -2.2359  0.3898
  160SAPE  H10S17924   3.343   6.131   7.391  1.0013 -0.4085 -2.6093
  160SAPE  C21117925   3.360   5.955   7.533  0.0704  0.3402  0.6831
  160SAPE  H11R17926   3.441   6.009   7.586 -1.7591  4.4247 -0.2756
  160SAPE  C21217927   3.310   5.855   7.601  0.2592 -0.3009 -0.7424
  160SAPE  H12R17928   3.342   5.838   7.706 -2.3112 -0.5662  0.0596
  160SAPE  C21317929   3.204   5.768   7.544  0.0858  0.2813  0.5307
  160SAPE  H13R17930   3.224   5.662   7.571 -0.6844  0.1779  0.7166
  160SAPE  H13S17931   3.208   5.770   7.433 -2.2024  2.7640  0.3844
  160SAPE  C21417932   3.064   5.815   7.581  0.6279  0.4761  0.5174
  160SAPE  H14R17933   3.047   5.922   7.561 -1.5526  0.2764  1.0265
  160SAPE  C21517934   2.957   5.743   7.627  0.2001  0.8255  0.5121
  160SAPE  H15R17935   2.871   5.800   7.665  0.0820 -0.3038  2.0481
  160SAPE  C21617936   2.952   5.594   7.668  0.2347  0.6285  0.5920
  160SAPE  H16R17937   3.057   5.561   7.689  0.1391  0.5766  0.9878
  160SAPE  H16S17938   2.909   5.518   7.598  3.4007  1.1396 -2.2126
  160SAPE  C21717939   2.861   5.565   7.791 -0.7690 -0.0328  0.4900
  160SAPE  H17R17940   2.896   5.609   7.886 -0.7814  2.7062 -0.6835
  160SAPE  H17S17941   2.878   5.455   7.800 -0.0341 -0.0523 -0.8570
  160SAPE  C21817942   2.718   5.587   7.779 -0.3785 -0.4997  0.9275
  160SAPE  H18R17943   2.686   5.556   7.677  1.8384  2.0170 -0.6771
  160SAPE  H18S17944   2.692   5.693   7.759 -0.7968 -0.8090 -0.2656
  160SAPE  C21917945   2.628   5.520   7.878  0.3112 -0.3302  0.4842
  160SAPE  H19R17946   2.660   5.553   7.979  0.0887  1.5661 -0.0113
  160SAPE  H19S17947   2.627   5.409   7.879 -0.7258 -0.3288  0.7842
  160SAPE  C22017948   2.481   5.568   7.852 -0.4692 -0.0625 -0.2390
  160SAPE  H20R17949   2.454   5.554   7.745  0.6045 -0.9567 -0.4202
  160SAPE  H20S17950   2.475   5.677   7.871  2.6739  0.1430  0.1292
  160SAPE  H20T17951   2.404   5.526   7.920 -3.2869  2.4324 -1.6672
  160SAPE   C3317952   3.382   5.437   7.200  0.1614  0.3622  0.3383
  160SAPE   H3X17953   3.459   5.495   7.256 -0.8635  0.6474  1.4961
  160SAPE   H3Y17954   3.405   5.329   7.214 -2.0086 -0.1823  0.0984
  160SAPE   C3417955   3.237   5.453   7.262  0.3651 -0.2015 -0.5272
  160SAPE   H4X17956   3.164   5.432   7.181  0.0740 -1.2007 -0.0171
  160SAPE   H4Y17957   3.210   5.556   7.296 -0.3190 -0.1125 -1.3083
  160SAPE   C3517958   3.209   5.359   7.377  0.2233  0.0579 -0.1488
  160SAPE   H5X17959   3.197   5.253   7.345 -1.0936 -0.5049  1.9469
  160SAPE   H5Y17960   3.107   5.384   7.415  0.1447  0.8282 -0.8462
  160SAPE   C3617961   3.306   5.383   7.498 -0.3545 -0.0709 -0.1226
  160SAPE   H6X17962   3.310   5.490   7.528 -0.4409  0.0226 -0.4409
  160SAPE   H6Y17963   3.410   5.357   7.471 -0.6393  0.0081 -1.3345
  160SAPE   C3717964   3.262   5.295   7.615  0.0246 -0.1702 -0.1918
  160SAPE   H7X17965   3.274   5.190   7.582 -1.7331  0.4518 -3.0735
  160SAPE   H7Y17966   3.158   5.318   7.648 -0.2883 -0.7254 -0.7845
  160SAPE   C3817967   3.352   5.317   7.732  0.4742 -0.0477 -0.6370
  160SAPE   H8X17968   3.455   5.305   7.693  0.3878 -0.5257 -0.7290
  160SAPE   H8Y17969   3.324   5.234   7.801  0.4207  0.8852  0.4870
  160SAPE   C3917970   3.332   5.453   7.802  0.0904  0.4882 -0.0942
  160SAPE   H9X17971   3.225   5.453   7.832  0.5526 -0.7552  1.7200
  160SAPE   H9Y17972   3.343   5.533   7.726 -0.0874 -0.6839 -1.3709
  160SAPE  C31017973   3.417   5.469   7.926 -0.3437 -0.3492  0.0099
  160SAPE  H10X17974   3.523   5.467   7.892 -0.7384  3.3113 -1.8730
  160SAPE  H10Y17975   3.403   5.377   7.988  0.6621 -0.1509  0.5564
  160SAPE  C31117976   3.378   5.593   8.008 -0.6188  0.3463  0.4445
  160SAPE  H11X17977   3.270   5.588   8.036 -0.4855 -0.8866  0.7948
  160SAPE  H11Y17978   3.383   5.686   7.947 -0.7664 -1.2265 -2.1313
  160SAPE  C31217979   3.473   5.602   8.125 -0.4147  0.0367  0.2041
  160SAPE  H12X17980   3.482   5.707   8.158 -2.1816  0.5818 -0.8867
  160SAPE  H12Y17981   3.577   5.580   8.093  0.3901  2.2420  1.0990
  160SAPE  C31317982   3.429   5.503   8.247  0.1443 -0.7294  0.1227
  160SAPE  H13X17983   3.502   5.515   8.330  0.3918  0.8492 -0.2951
  160SAPE  H13Y17984   3.430   5.397   8.212 -2.1696 -0.0474 -2.3287
  160SAPE  C31417985   3.296   5.535   8.314 -0.1466 -0.6922  0.1327
  160SAPE  H14X17986   3.281   5.466   8.400  0.0621  0.3987  1.0677
  160SAPE  H14Y17987   3.221   5.515   8.235 -1.1408  0.2827  0.7917
  160SAPE  C31517988   3.272   5.674   8.370  0.2724 -0.3271 -0.3392
  160SAPE  H15X17989   3.256   5.753   8.293  0.2519 -0.0757 -0.0760
  160SAPE  H15Y17990   3.365   5.706   8.421  0.3341 -0.1311 -0.5727
  160SAPE  C31617991   3.150   5.677   8.461 -0.0226  0.1374 -0.0344
  160SAPE  H16X17992   3.167   5.605   8.544 -0.3194  0.8353  0.6447
  160SAPE  H16Y17993   3.055   5.660   8.405  0.4778 -0.5285 -0.6947
  160SAPE  C31717994   3.138   5.802   8.550 -0.0705 -0.0281 -0.1981
  160SAPE  H17X17995   3.141   5.890   8.483  1.2705  1.9811  2.3221
  160SAPE  H17Y17996   3.226   5.812   8.616 -1.2030 -1.0538  1.5578
  160SAPE  C31817997   3.013   5.803   8.635 -0.9752 -0.9480 -0.1822
  160SAPE  H18X17998   2.927   5.808   8.564  0.5533  0.5179 -2.0075
  160SAPE  H18Y17999   3.012   5.884   8.711 -2.9499 -1.3161  0.2488
  160SAPE  H18Z18000   3.012   5.711   8.699  1.7541 -0.1111  1.1942
  161SAPE     N18001   3.203   2.980   6.163  0.1706  0.0537 -0.0972
  161SAPE   HN118002   3.144   2.964   6.247 -2.5180 -1.8347 -2.1762
  161SAPE   HN218003   3.197   2.892   6.108  2.2832 -0.1134 -0.1640
  161SAPE   HN318004   3.297   2.984   6.207  0.2757 -2.5393  0.0765
  161SAPE   C1218005   3.155   3.108   6.106 -0.2410 -0.0547  0.1071
  161SAPE  H12A18006   3.073   3.071   6.041  1.5814 -2.7106 -0.8331
  161SAPE  H12B18007   3.240   3.146   6.045  1.2781 -3.0481  0.1998
  161SAPE   C1118008   3.123   3.212   6.210  0.1043 -0.2146  0.2598
  161SAPE  H11A18009   3.114   3.309   6.157  0.1866  0.2143  1.0263
  161SAPE  H11B18010   3.204   3.225   6.285  0.2654  0.7948 -0.0731
  161SAPE     P18011   2.970   3.258   6.430  0.1783 -0.4099 -0.0490
  161SAPE   O1318012   2.871   3.363   6.408  0.5435 -0.4286 -0.1720
  161SAPE   O1418013   2.930   3.152   6.530 -0.2309 -0.1378  0.6306
  161SAPE   O1218014   3.000   3.198   6.289  0.2499 -0.1945 -0.2752
  161SAPE   O1118015   3.098   3.318   6.485 -0.0758  0.1484 -0.2178
  161SAPE    C118016   3.125   3.360   6.616 -0.9485  0.0703 -0.7837
  161SAPE    HA18017   3.194   3.447   6.610 -0.3405 -0.4251 -1.1040
  161SAPE    HB18018   3.037   3.408   6.664  0.6023  0.3182  2.0296
  161SAPE    C218019   3.177   3.242   6.705  0.3718  0.4473  0.7781
  161SAPE    HS18020   3.100   3.162   6.707  0.2455  0.5667  2.5072
  161SAPE   O2118021   3.187   3.294   6.838  0.2341  0.3980 -0.0728
  161SAPE   C2118022   3.072   3.304   6.902  0.0983  0.7818 -0.0251
  161SAPE   O2218023   2.968   3.250   6.871  0.6715 -0.3439  0.3147
  161SAPE   C2218024   3.084   3.398   7.024 -0.5354  0.5924 -0.0313
  161SAPE   H2R18025   3.176   3.459   7.009 -1.3778  1.2686 -3.1382
  161SAPE   H2S18026   2.989   3.455   7.029  0.1201  1.8017 -0.8839
  161SAPE    C318027   3.314   3.179   6.662 -0.1556  0.2002  0.0642
  161SAPE    HX18028   3.394   3.256   6.654 -0.6890  0.5733 -2.7306
  161SAPE    HY18029   3.305   3.137   6.560  2.7898  0.2292 -0.3102
  161SAPE   O3118030   3.353   3.078   6.754 -0.1338 -0.1637 -0.1627
  161SAPE   C3118031   3.320   2.953   6.726  0.2483  0.1337 -0.0770
  161SAPE   O3218032   3.258   2.912   6.628 -0.3009  0.3138  0.0668
  161SAPE   C3218033   3.376   2.860   6.838  0.9867  0.0579 -0.2897
  161SAPE   H2X18034   3.484   2.877   6.857  1.1961 -1.4023  0.0017
  161SAPE   H2Y18035   3.364   2.755   6.802  2.1158 -1.0910  2.3655
  161SAPE   C2318036   3.122   3.329   7.160  0.9947 -0.2486  0.4504
  161SAPE   H3R18037   3.223   3.287   7.143  1.4587  0.3631  1.5736
  161SAPE   H3S18038   3.059   3.239   7.176 -0.1336  0.4409 -0.0137
  161SAPE   C2418039   3.113   3.425   7.283  0.3148  0.2025 -0.1728
  161SAPE   H4R18040   3.182   3.512   7.273  0.3094  0.1478 -0.7595
  161SAPE   H4S18041   3.145   3.363   7.369  0.1629  1.2346  0.6494
  161SAPE   C2518042   2.975   3.484   7.311 -0.9676 -0.6509 -0.0246
  161SAPE   H5R18043   2.936   3.514   7.212 -0.1606 -1.6724 -0.6752
  161SAPE   C2618044   2.902   3.487   7.419  0.4810  0.0013 -0.8353
  161SAPE   H6R18045   2.795   3.512   7.421  0.9709  2.3292  1.4798
  161SAPE   C2718046   2.952   3.432   7.551  0.6572 -0.0414  0.3440
  161SAPE   H7R18047   2.963   3.322   7.547 -2.8979 -0.8756  4.7884
  161SAPE   H7S18048   2.862   3.437   7.617  1.1655 -0.3806  1.0707
  161SAPE   C2818049   3.069   3.482   7.615 -0.4697  0.1808 -0.0103
  161SAPE   H8R18050   3.156   3.498   7.550 -0.6918 -2.3264 -1.0416
  161SAPE   C2918051   3.098   3.480   7.744 -0.5115 -0.3388 -0.0148
  161SAPE   H9R18052   3.195   3.519   7.778 -1.3127  0.6129  1.2700
  161SAPE  C21018053   3.013   3.443   7.862  0.1556  0.6927 -0.1283
  161SAPE  H10R18054   3.072   3.393   7.942  3.0663  1.6729 -1.5051
  161SAPE  H10S18055   2.934   3.373   7.825  0.1486  1.9317 -2.6626
  161SAPE  C21118056   2.943   3.569   7.915 -0.3289  0.3217  0.5840
  161SAPE  H11R18057   2.859   3.602   7.852  1.1964  2.7198 -0.3572
  161SAPE  C21218058   2.989   3.644   8.011  0.5926 -0.0469  0.2806
  161SAPE  H12R18059   2.937   3.736   8.040  0.0502 -0.5543  0.9561
  161SAPE  C21318060   3.111   3.627   8.093 -0.3492  0.6529 -0.1494
  161SAPE  H13R18061   3.183   3.708   8.070  0.3062  0.3739  0.8391
  161SAPE  H13S18062   3.177   3.537   8.089 -1.1854 -0.0799  1.3850
  161SAPE  C21418063   3.076   3.631   8.236 -0.1100 -0.2408 -0.3148
  161SAPE  H14R18064   3.018   3.715   8.275 -3.0365 -2.2009 -0.1269
  161SAPE  C21518065   3.114   3.542   8.328  0.0488 -0.6026  0.0675
  161SAPE  H15R18066   3.101   3.562   8.435 -0.2635  1.2099 -0.2894
  161SAPE  C21618067   3.190   3.411   8.314 -0.4939  0.9280 -0.5924
  161SAPE  H16R18068   3.289   3.410   8.363  0.1767 -1.3145 -1.8335
  161SAPE  H16S18069   3.212   3.390   8.207 -1.1494 -0.3858 -0.4868
  161SAPE  C21718070   3.118   3.279   8.365  0.4504 -0.1593 -0.4591
  161SAPE  H17R18071   3.171   3.185   8.340 -1.0650 -0.5368 -2.4501
  161SAPE  H17S18072   3.023   3.267   8.310  1.0609 -1.4850 -1.2714
  161SAPE  C21818073   3.094   3.281   8.515 -0.1577 -0.0563  0.0103
  161SAPE  H18R18074   3.019   3.201   8.532  2.3024 -2.5651 -0.3132
  161SAPE  H18S18075   3.043   3.378   8.534 -2.5113 -0.7524 -2.1492
  161SAPE  C21918076   3.210   3.254   8.613  0.3268  0.0386  0.5118
  161SAPE  H19R18077   3.303   3.304   8.578  1.1722 -1.1499  1.0149
  161SAPE  H19S18078   3.226   3.145   8.601  0.5586  0.3021 -2.3571
  161SAPE  C22018079   3.179   3.298   8.757  0.4077 -0.2144  0.1978
  161SAPE  H20R18080   3.168   3.409   8.750 -2.6591 -0.4027  0.7097
  161SAPE  H20S18081   3.267   3.273   8.820  1.2997  3.0878  0.4370
  161SAPE  H20T18082   3.078   3.260   8.783 -0.1146  0.2130 -1.1100
  161SAPE   C3318083   3.305   2.871   6.973 -0.2135  0.1657 -0.8093
  161SAPE   H3X18084   3.362   2.795   7.031 -2.1369  0.7122  1.9553
  161SAPE   H3Y18085   3.200   2.833   6.969 -0.7274  1.4753 -0.0941
  161SAPE   C3418086   3.298   3.009   7.038 -0.1490  0.7362 -0.3420
  161SAPE   H4X18087   3.206   3.065   7.012 -0.8953 -0.8804 -1.3519
  161SAPE   H4Y18088   3.385   3.071   7.008 -0.2663  0.5298 -1.1283
  161SAPE   C3518089   3.282   2.998   7.189  0.0658  0.4387 -0.4114
  161SAPE   H5X18090   3.188   2.942   7.203 -0.2871  0.5724 -2.0979
  161SAPE   H5Y18091   3.269   3.098   7.236  0.9092 -0.1758  1.2134
  161SAPE   C3618092   3.400   2.936   7.267 -0.3840 -0.1898  0.9305
  161SAPE   H6X18093   3.488   3.003   7.254 -1.6876  1.2075 -1.4089
  161SAPE   H6Y18094   3.429   2.832   7.241 -0.5123  0.1773 -0.8335
  161SAPE   C3718095   3.372   2.946   7.417 -0.8454  0.6767 -0.1632
  161SAPE   H7X18096   3.296   2.870   7.443 -1.1335  1.0132 -0.0209
  161SAPE   H7Y18097   3.333   3.046   7.444  1.6637  1.6741  0.0592
  161SAPE   C3818098   3.501   2.903   7.496  0.3883 -0.4822 -0.8458
  161SAPE   H8X18099   3.571   2.988   7.480  0.1217  0.0507  0.6910
  161SAPE   H8Y18100   3.537   2.811   7.447  0.0064 -1.3071  0.3809
  161SAPE   C3918101   3.481   2.894   7.644  0.3340 -0.7768  0.0091
  161SAPE   H9X18102   3.576   2.850   7.681  0.5404 -0.7281 -0.4580
  161SAPE   H9Y18103   3.398   2.821   7.658  0.0158 -0.5757 -0.8142
  161SAPE  C31018104   3.448   3.025   7.716  0.0108  0.1716 -0.1929
  161SAPE  H10X18105   3.343   3.048   7.686 -1.2021 -2.8736  1.3063
  161SAPE  H10Y18106   3.509   3.113   7.690  1.8159 -1.3793 -1.4564
  161SAPE  C31118107   3.466   3.019   7.870  1.1450 -0.2745 -0.3507
  161SAPE  H11X18108   3.574   3.023   7.898  1.1500 -0.0215 -0.3962
  161SAPE  H11Y18109   3.417   2.930   7.914  0.9027 -0.6685 -1.3866
  161SAPE  C31218110   3.417   3.147   7.946 -0.4669  0.6820 -0.0892
  161SAPE  H12X18111   3.319   3.189   7.916 -1.5619  0.9899  3.3846
  161SAPE  H12Y18112   3.488   3.228   7.921 -0.9218  1.3272  0.6333
  161SAPE  C31318113   3.441   3.154   8.101 -0.3266 -0.6001 -0.2531
  161SAPE  H13X18114   3.400   3.068   8.158  0.0194 -0.3780  0.3299
  161SAPE  H13Y18115   3.385   3.244   8.133 -0.1727 -0.6309  0.1033
  161SAPE  C31418116   3.590   3.181   8.119 -0.9302 -0.3916 -0.4293
  161SAPE  H14X18117   3.639   3.269   8.072 -0.1618  0.2101  1.3922
  161SAPE  H14Y18118   3.643   3.092   8.080  0.9019  0.4275  0.0763
  161SAPE  C31518119   3.628   3.182   8.268 -0.3595 -0.2777 -0.1888
  161SAPE  H15X18120   3.578   3.093   8.311 -0.4245 -0.4546 -0.6255
  161SAPE  H15Y18121   3.581   3.268   8.321 -0.2558 -0.9368  0.9999
  161SAPE  C31618122   3.781   3.181   8.299 -0.8360 -0.0016  0.6579
  161SAPE  H16X18123   3.801   3.286   8.330  2.2549 -0.4858  0.6100
  161SAPE  H16Y18124   3.833   3.167   8.202 -0.3525  1.3572  0.6952
  161SAPE  C31718125   3.818   3.071   8.399  0.4215  0.3670  0.1507
  161SAPE  H17X18126   3.835   2.984   8.332 -0.4288  1.5743 -1.7313
  161SAPE  H17Y18127   3.730   3.055   8.465  1.1751  1.7709  1.5343
  161SAPE  C31818128   3.943   3.100   8.482  0.3075 -0.4359 -0.0966
  161SAPE  H18X18129   3.919   3.175   8.561 -1.0868 -0.6382 -0.3173
  161SAPE  H18Y18130   4.018   3.155   8.421  0.0683 -0.6517 -0.5849
  161SAPE  H18Z18131   3.986   3.007   8.524  0.6867  0.7820  2.4494
  162SAPE     N18132   4.456   0.787   6.046 -0.4065 -0.2971  0.0471
  162SAPE   HN118133   4.414   0.814   6.137 -0.3941  1.2254 -0.3646
  162SAPE   HN218134   4.496   0.873   6.003 -1.9194  0.1588 -0.5113
  162SAPE   HN318135   4.382   0.754   5.981 -1.2122  0.7602  0.3962
  162SAPE   C1218136   4.542   0.665   6.054 -0.4106 -0.2875  0.4665
  162SAPE  H12A18137   4.578   0.653   6.158 -1.2489  0.6773  0.8813
  162SAPE  H12B18138   4.637   0.682   5.999 -0.2321  0.0925  0.8953
  162SAPE   C1118139   4.465   0.540   6.008 -0.5309 -0.1391 -1.0256
  162SAPE  H11A18140   4.513   0.450   6.051 -2.6159 -0.4496  0.8197
  162SAPE  H11B18141   4.462   0.528   5.898 -0.8447 -0.8079 -0.9480
  162SAPE     P18142   4.242   0.419   6.102 -0.1078 -0.0049  0.2540
  162SAPE   O1318143   4.105   0.456   6.078  0.6475  0.4122 -0.1787
  162SAPE   O1418144   4.291   0.296   6.035  0.3806 -0.3609  0.1155
  162SAPE   O1218145   4.334   0.542   6.067 -1.3590  0.4155  0.3457
  162SAPE   O1118146   4.257   0.393   6.265  0.4291  0.2675 -0.1319
  162SAPE    C118147   4.330   0.485   6.340  0.6214  0.0938 -0.5113
  162SAPE    HA18148   4.423   0.506   6.284  0.1393 -3.5185 -3.0511
  162SAPE    HB18149   4.280   0.584   6.351 -1.4781 -1.0085  0.7267
  162SAPE    C218150   4.364   0.430   6.481  0.0385  0.4963 -0.4479
  162SAPE    HS18151   4.417   0.332   6.473  1.5584  1.2975 -0.5355
  162SAPE   O2118152   4.251   0.416   6.564  1.0411 -0.2091  0.1834
  162SAPE   C2118153   4.270   0.350   6.685 -0.8002  0.5469 -0.1958
  162SAPE   O2218154   4.373   0.293   6.716  0.0734  0.0690  0.2280
  162SAPE   C2218155   4.142   0.357   6.768  0.4185 -0.1602 -0.7875
  162SAPE   H2R18156   4.064   0.317   6.700 -1.0048  1.4725 -0.1706
  162SAPE   H2S18157   4.165   0.299   6.860 -0.9001 -0.8363 -0.8608
  162SAPE    C318158   4.467   0.530   6.540 -0.4861 -0.5918 -0.5002
  162SAPE    HX18159   4.563   0.530   6.484  0.3449  0.8966  0.8259
  162SAPE    HY18160   4.493   0.492   6.641  0.7140  1.8690  0.2119
  162SAPE   O3118161   4.409   0.661   6.556  0.3521 -0.1038  0.1951
  162SAPE   C3118162   4.490   0.761   6.526  0.5619  0.5081 -0.2493
  162SAPE   O3218163   4.600   0.750   6.472 -0.3222  0.0153  0.4330
  162SAPE   C3218164   4.442   0.885   6.583 -0.1519 -0.4925 -0.7753
  162SAPE   H2X18165   4.344   0.878   6.635  0.4575 -0.4093  0.4047
  162SAPE   H2Y18166   4.430   0.948   6.492 -0.1973  2.1422  0.9399
  162SAPE   C2318167   4.093   0.500   6.823  0.0691 -0.7537  0.1920
  162SAPE   H3R18168   3.997   0.483   6.876  0.3781 -0.5166  0.8484
  162SAPE   H3S18169   4.072   0.572   6.741  1.0900 -1.0515 -0.3415
  162SAPE   C2418170   4.195   0.555   6.925 -0.3816 -0.6481  0.4763
  162SAPE   H4R18171   4.290   0.580   6.871 -0.0012 -1.6224  0.6751
  162SAPE   H4S18172   4.222   0.468   6.988  3.3087  1.3743  1.9793
  162SAPE   C2518173   4.132   0.671   7.007  0.7983  0.5209  0.0699
  162SAPE   H5R18174   4.133   0.767   6.953 -0.0133  0.3260 -0.3063
  162SAPE   C2618175   4.087   0.668   7.135  0.5053  0.1900 -0.5079
  162SAPE   H6R18176   4.042   0.756   7.182  1.5285 -0.2562  1.3773
  162SAPE   C2718177   4.092   0.549   7.222 -0.0604 -0.5090  0.1296
  162SAPE   H7R18178   4.082   0.457   7.160 -1.8967 -1.0650  1.1581
  162SAPE   H7S18179   4.004   0.541   7.289 -0.3630  0.0026 -0.1935
  162SAPE   C2818180   4.229   0.526   7.287 -0.2851 -0.8292 -0.2232
  162SAPE   H8R18181   4.301   0.500   7.208  0.1510  0.2633 -0.1959
  162SAPE   C2918182   4.268   0.539   7.409 -0.0453 -0.0299 -0.6817
  162SAPE   H9R18183   4.374   0.526   7.434  0.3498  0.6240 -1.9234
  162SAPE  C21018184   4.182   0.574   7.529  0.4269  0.1700  0.2913
  162SAPE  H10R18185   4.179   0.491   7.602 -1.0449 -0.9184 -0.9266
  162SAPE  H10S18186   4.077   0.587   7.493  0.1333 -0.2088  0.9974
  162SAPE  C21118187   4.233   0.699   7.593 -0.1857  0.0934  0.2017
  162SAPE  H11R18188   4.271   0.769   7.517 -0.5976 -0.6579 -0.7256
  162SAPE  C21218189   4.250   0.726   7.720  0.3237  0.3501 -0.1772
  162SAPE  H12R18190   4.286   0.828   7.743  0.3027  0.5117 -0.8301
  162SAPE  C21318191   4.207   0.637   7.832 -0.3476 -0.2581  0.2917
  162SAPE  H13R18192   4.148   0.546   7.809  0.0220 -0.7781  1.3313
  162SAPE  H13S18193   4.144   0.697   7.901 -0.9645  0.8742 -1.1955
  162SAPE  C21418194   4.328   0.576   7.898  0.5057  0.1121 -0.2902
  162SAPE  H14R18195   4.421   0.573   7.841  0.8009  1.5311  0.0793
  162SAPE  C21518196   4.332   0.506   8.014  0.5814 -0.9444  0.0772
  162SAPE  H15R18197   4.427   0.455   8.035  2.0664  0.6462 -2.3011
  162SAPE  C21618198   4.205   0.484   8.100 -0.2051  0.0493  0.8590
  162SAPE  H16R18199   4.136   0.417   8.045 -0.0648  0.7713 -0.2177
  162SAPE  H16S18200   4.159   0.582   8.124  0.0121  0.9527 -1.9984
  162SAPE  C21718201   4.247   0.417   8.230 -0.1071  0.2789 -0.2135
  162SAPE  H17R18202   4.152   0.396   8.284  0.1713  0.2872  0.2870
  162SAPE  H17S18203   4.300   0.486   8.299  0.0562 -0.4839  0.4454
  162SAPE  C21818204   4.322   0.284   8.224 -0.4457  0.5404  0.9574
  162SAPE  H18R18205   4.410   0.293   8.157 -1.6685 -1.1934 -1.0113
  162SAPE  H18S18206   4.257   0.204   8.181  2.2990 -1.9401  1.0901
  162SAPE  C21918207   4.366   0.228   8.357 -0.2786 -0.1807  0.2581
  162SAPE  H19R18208   4.288   0.225   8.436 -0.7948  1.9471 -0.1192
  162SAPE  H19S18209   4.444   0.293   8.403 -1.5147  1.9376 -0.4885
  162SAPE  C22018210   4.416   0.084   8.331 -0.6505 -0.0164 -0.7861
  162SAPE  H20R18211   4.471   0.052   8.423 -0.8153  0.5642 -0.4768
  162SAPE  H20S18212   4.499   0.093   8.258  0.8616  0.9803  0.9604
  162SAPE  H20T18213   4.344   0.007   8.298 -1.4639  0.4762 -0.1911
  162SAPE   C3318214   4.543   0.934   6.695 -0.0776  0.5631  0.5631
  162SAPE   H3X18215   4.530   1.041   6.720 -2.3547 -0.0094  2.1234
  162SAPE   H3Y18216   4.649   0.935   6.660 -0.8690 -0.7939 -2.1898
  162SAPE   C3418217   4.524   0.851   6.824 -0.1739  0.3339  0.6293
  162SAPE   H4X18218   4.529   0.740   6.810 -0.8870  0.3732  0.0094
  162SAPE   H4Y18219   4.418   0.873   6.844 -0.7123 -1.2114 -0.3194
  162SAPE   C3518220   4.603   0.903   6.941 -0.3619  0.4131 -0.6478
  162SAPE   H5X18221   4.607   1.014   6.931  0.4242  0.6446  1.7017
  162SAPE   H5Y18222   4.708   0.866   6.947 -1.7291 -4.3269 -1.8700
  162SAPE   C3618223   4.538   0.867   7.071 -0.2097  0.3402 -0.0021
  162SAPE   H6X18224   4.514   0.759   7.062 -1.1385  0.7107 -3.5996
  162SAPE   H6Y18225   4.440   0.916   7.091  1.2949  2.2557  3.5162
  162SAPE   C3718226   4.619   0.903   7.196 -0.3100  0.5761 -1.0014
  162SAPE   H7X18227   4.662   1.006   7.195  1.2801 -0.0223  0.4810
  162SAPE   H7Y18228   4.708   0.837   7.192  0.7250  1.8017  0.4831
  162SAPE   C3818229   4.548   0.879   7.324 -0.3085  0.1212 -0.3534
  162SAPE   H8X18230   4.492   0.784   7.332  3.2545 -1.9495  3.7054
  162SAPE   H8Y18231   4.481   0.966   7.344  0.8843  1.0511 -0.3377
  162SAPE   C3918232   4.639   0.875   7.456  0.4182  0.0268  0.4347
  162SAPE   H9X18233   4.700   0.968   7.462  1.4641 -0.6792  0.9769
  162SAPE   H9Y18234   4.711   0.792   7.443  2.5154  1.5146  1.8417
  162SAPE  C31018235   4.554   0.871   7.583 -0.1361 -0.3920  0.2890
  162SAPE  H10X18236   4.512   0.768   7.593  1.7355 -1.6594 -3.0430
  162SAPE  H10Y18237   4.475   0.948   7.591  0.9310  0.6306  1.2582
  162SAPE  C31118238   4.651   0.902   7.696  0.6383  0.3251 -0.0207
  162SAPE  H11X18239   4.703   0.997   7.671  1.3907 -0.3755 -1.2060
  162SAPE  H11Y18240   4.723   0.818   7.696  0.6164  0.2287  2.1697
  162SAPE  C31218241   4.585   0.909   7.836 -0.4070  0.2905  0.2370
  162SAPE  H12X18242   4.520   0.824   7.866  0.1324 -0.6344 -1.0996
  162SAPE  H12Y18243   4.520   0.999   7.846 -1.0123  0.2526 -2.4732
  162SAPE  C31318244   4.700   0.922   7.946  0.0559  0.0864  0.6629
  162SAPE  H13X18245   4.763   1.007   7.912  0.0211 -0.6447 -1.3767
  162SAPE  H13Y18246   4.772   0.837   7.948  0.7446  0.6701  2.6624
  162SAPE  C31418247   4.651   0.944   8.090  0.3167 -0.6923  0.1988
  162SAPE  H14X18248   4.570   1.020   8.083  0.8249 -0.0836  0.8822
  162SAPE  H14Y18249   4.722   0.972   8.170  0.2226  0.4303 -0.0991
  162SAPE  C31518250   4.588   0.816   8.146 -0.3151  0.0748  0.8508
  162SAPE  H15X18251   4.672   0.744   8.153  1.2721  1.9850  2.4062
  162SAPE  H15Y18252   4.509   0.768   8.084 -0.3578 -0.3162  1.1954
  162SAPE  C31618253   4.524   0.836   8.280 -0.0967  0.7821  0.4827
  162SAPE  H16X18254   4.460   0.927   8.283 -0.1710  0.7928 -0.7878
  162SAPE  H16Y18255   4.613   0.848   8.345  0.0847  2.2779 -0.0032
  162SAPE  C31718256   4.432   0.717   8.317  0.2749 -0.6676  0.9313
  162SAPE  H17X18257   4.497   0.627   8.311  0.7135 -0.2568 -1.2098
  162SAPE  H17Y18258   4.342   0.708   8.252  0.0603  1.4317  0.8901
  162SAPE  C31818259   4.383   0.719   8.461  0.1000  0.1651 -0.2087
  162SAPE  H18X18260   4.336   0.816   8.488 -1.5989 -1.4867  3.5584
  162SAPE  H18Y18261   4.467   0.688   8.527  1.0061 -1.8983 -2.1801
  162SAPE  H18Z18262   4.290   0.657   8.471 -0.0022  0.5161  1.2325
  163SAPE     N18263   1.038   5.650   6.661 -0.0019 -0.4320 -0.0382
  163SAPE   HN118264   1.078   5.745   6.644 -1.6624  0.1309 -1.1055
  163SAPE   HN218265   1.010   5.608   6.570 -1.6189  1.1635 -0.3358
  163SAPE   HN318266   0.949   5.663   6.713 -0.3879  2.0863 -1.1375
  163SAPE   C1218267   1.137   5.566   6.731 -0.1365  1.0746 -0.7684
  163SAPE  H12A18268   1.113   5.464   6.693 -2.1005  0.6682  1.3443
  163SAPE  H12B18269   1.121   5.554   6.840  0.5598 -3.0337 -0.9402
  163SAPE   C1118270   1.278   5.609   6.694 -0.4674  0.4423 -0.0676
  163SAPE  H11A18271   1.348   5.535   6.739 -0.1561  1.0643  0.4871
  163SAPE  H11B18272   1.307   5.708   6.736  1.5789 -0.0643 -0.1487
  163SAPE     P18273   1.426   5.682   6.501 -0.1661 -0.0163  0.5053
  163SAPE   O1318274   1.529   5.652   6.605 -0.0265 -0.0792 -0.4239
  163SAPE   O1418275   1.443   5.618   6.366 -0.4307 -0.3857 -0.0404
  163SAPE   O1218276   1.294   5.613   6.555 -0.0089  0.0234  0.6498
  163SAPE   O1118277   1.394   5.841   6.496 -0.2483  0.2299  0.4908
  163SAPE    C118278   1.488   5.945   6.494  0.3466  0.1583  0.3703
  163SAPE    HA18279   1.564   5.927   6.415  1.2966  3.8350  0.2537
  163SAPE    HB18280   1.433   6.038   6.465  1.2880  0.5572 -0.1652
  163SAPE    C218281   1.551   5.971   6.628  0.1126  0.0735  0.4138
  163SAPE    HS18282   1.607   5.884   6.668  0.5816  0.4339  0.5441
  163SAPE   O2118283   1.450   6.000   6.721 -0.3047 -0.0052 -0.2945
  163SAPE   C2118284   1.476   5.963   6.849 -0.1676 -0.5434 -0.0007
  163SAPE   O2218285   1.566   5.893   6.886  0.6807  0.1461  0.2164
  163SAPE   C2218286   1.391   6.048   6.930  0.3701 -0.5241 -0.1361
  163SAPE   H2R18287   1.435   6.150   6.928  0.3224 -0.3657  2.7860
  163SAPE   H2S18288   1.291   6.071   6.890  0.5473  0.2279 -0.1605
  163SAPE    C318289   1.634   6.103   6.621  0.6688  0.0974 -0.9165
  163SAPE    HX18290   1.554   6.178   6.606  1.6937  1.3892 -0.2109
  163SAPE    HY18291   1.700   6.095   6.532  1.1374 -0.7681 -0.5029
  163SAPE   O3118292   1.704   6.153   6.741 -0.2912 -0.5279 -0.1876
  163SAPE   C3118293   1.801   6.071   6.768  0.0382 -0.4084  0.2144
  163SAPE   O3218294   1.848   5.982   6.698 -0.0109  0.4179 -0.3770
  163SAPE   C3218295   1.837   6.091   6.917 -0.5932 -0.8714  0.9801
  163SAPE   H2X18296   1.745   6.124   6.970  1.3386  2.7115  2.4646
  163SAPE   H2Y18297   1.908   6.176   6.924 -0.7451 -0.6033 -0.3414
  163SAPE   C2318298   1.360   5.994   7.066 -0.0180 -0.1901  0.2246
  163SAPE   H3R18299   1.304   6.070   7.124 -1.7739 -0.6471 -0.8133
  163SAPE   H3S18300   1.451   5.967   7.124  0.3051 -0.5482 -0.4339
  163SAPE   C2418301   1.289   5.856   7.065  0.5620  0.1902  0.2713
  163SAPE   H4R18302   1.293   5.813   7.167  0.6300 -2.6889 -0.8446
  163SAPE   H4S18303   1.361   5.785   7.018 -0.3204 -0.8285  0.4267
  163SAPE   C2518304   1.157   5.843   6.992 -0.7089 -0.2277 -0.9899
  163SAPE   H5R18305   1.151   5.893   6.894  0.5030 -0.4710 -1.1983
  163SAPE   C2618306   1.042   5.782   7.030  0.2567  0.0966 -0.1865
  163SAPE   H6R18307   0.954   5.789   6.964 -0.4525  0.6002  0.7872
  163SAPE   C2718308   1.012   5.708   7.161 -0.6632 -0.4496  0.2471
  163SAPE   H7R18309   0.977   5.784   7.234 -1.1686 -0.4720  0.0313
  163SAPE   H7S18310   1.106   5.662   7.198 -0.5208  0.9115  1.6821
  163SAPE   C2818311   0.931   5.584   7.130  0.0963 -0.1804  0.5797
  163SAPE   H8R18312   0.926   5.559   7.023  4.0788  2.0945 -0.3417
  163SAPE   C2918313   0.881   5.510   7.225  0.0707  0.1016 -0.0055
  163SAPE   H9R18314   0.828   5.418   7.195 -2.0551  1.0950  0.4671
  163SAPE  C21018315   0.890   5.533   7.372 -0.2969 -0.4643  0.3104
  163SAPE  H10R18316   0.949   5.626   7.389 -2.3482  0.8246  0.6465
  163SAPE  H10S18317   0.947   5.449   7.418 -2.3609 -0.1568  3.8305
  163SAPE  C21118318   0.762   5.547   7.441  0.6124  0.1497  0.3698
  163SAPE  H11R18319   0.672   5.533   7.380 -0.9067  1.2277  2.2454
  163SAPE  C21218320   0.738   5.580   7.576 -0.1271  0.3021 -0.2347
  163SAPE  H12R18321   0.635   5.589   7.612 -1.0502 -0.1609 -2.5980
  163SAPE  C21318322   0.850   5.600   7.681 -0.4471 -0.1425 -0.8800
  163SAPE  H13R18323   0.950   5.580   7.639  0.5032  0.4557  1.0035
  163SAPE  H13S18324   0.835   5.522   7.758 -0.2113  0.0625 -0.6270
  163SAPE  C21418325   0.848   5.736   7.740 -0.0098 -0.0141 -1.1293
  163SAPE  H14R18326   0.840   5.823   7.673 -0.7116 -0.1836 -1.2819
  163SAPE  C21518327   0.876   5.767   7.867 -0.5193  0.0516  0.0202
  163SAPE  H15R18328   0.861   5.872   7.898 -0.7041 -0.5505  2.1062
  163SAPE  C21618329   0.916   5.677   7.979  0.4404 -0.0076 -0.1519
  163SAPE  H16R18330   1.010   5.718   8.021  0.1674  0.6561 -0.1691
  163SAPE  H16S18331   0.924   5.570   7.950  4.2181  0.5885 -1.9231
  163SAPE  C21718332   0.808   5.696   8.091 -0.4246 -0.2843 -0.3205
  163SAPE  H17R18333   0.773   5.802   8.096 -2.0285 -0.7583 -1.0612
  163SAPE  H17S18334   0.854   5.674   8.190 -0.2323 -1.2755 -0.6244
  163SAPE  C21818335   0.680   5.614   8.077  0.3730  0.1042  0.2996
  163SAPE  H18R18336   0.704   5.507   8.064 -0.2233  0.1006 -0.9470
  163SAPE  H18S18337   0.647   5.646   7.975 -0.8856  0.3945  0.7749
  163SAPE  C21918338   0.572   5.625   8.186 -0.1360 -0.2796  0.5310
  163SAPE  H19R18339   0.536   5.730   8.180 -3.5899 -1.3782 -0.2869
  163SAPE  H19S18340   0.616   5.612   8.287  1.2476 -0.1295 -0.0295
  163SAPE  C22018341   0.446   5.535   8.176 -0.2285  0.4654  0.2284
  163SAPE  H20R18342   0.474   5.435   8.217 -0.9026  1.1545  2.5009
  163SAPE  H20S18343   0.405   5.518   8.074 -2.7411 -3.1813  1.6290
  163SAPE  H20T18344   0.371   5.570   8.249 -1.0677 -1.8402  0.5497
  163SAPE   C3318345   1.871   5.961   6.993 -0.0359  0.5532 -0.0911
  163SAPE   H3X18346   1.968   5.924   6.952 -1.5157 -0.6355 -2.7930
  163SAPE   H3Y18347   1.805   5.874   6.972  1.2419 -0.3783 -0.3832
  163SAPE   C3418348   1.896   5.980   7.143  0.4315  0.8026  0.2659
  163SAPE   H4X18349   1.948   6.077   7.153  0.6878  0.6373  0.5213
  163SAPE   H4Y18350   1.961   5.900   7.185 -2.3182 -0.7892  1.8477
  163SAPE   C3518351   1.770   5.970   7.226  0.0019  0.6380  0.4525
  163SAPE   H5X18352   1.714   5.875   7.217 -2.1530  1.5489  3.0793
  163SAPE   H5Y18353   1.699   6.039   7.176 -2.4031 -1.7093  0.4138
  163SAPE   C3618354   1.792   6.010   7.364 -0.0412  1.0694  0.1955
  163SAPE   H6X18355   1.812   6.119   7.372 -1.3320  1.3547 -0.1611
  163SAPE   H6Y18356   1.877   5.949   7.403 -0.3157  0.3384 -0.3174
  163SAPE   C3718357   1.663   5.988   7.444 -1.0123 -0.0679 -0.1392
  163SAPE   H7X18358   1.640   5.879   7.435 -0.0782 -0.2380 -0.6824
  163SAPE   H7Y18359   1.578   6.045   7.401 -0.6731 -0.0050 -0.7471
  163SAPE   C3818360   1.677   6.018   7.593  0.4669  0.1739  0.1590
  163SAPE   H8X18361   1.575   6.022   7.636  1.1323 -1.5523  2.0804
  163SAPE   H8Y18362   1.724   6.117   7.607 -0.9402  0.9386 -0.3762
  163SAPE   C3918363   1.766   5.908   7.661  0.1280  0.5987  0.2168
  163SAPE   H9X18364   1.856   5.901   7.596  0.5673  0.4657  0.8358
  163SAPE   H9Y18365   1.711   5.812   7.666  0.3152  0.4021 -1.1277
  163SAPE  C31018366   1.803   5.955   7.805  0.0549  0.1655 -0.9482
  163SAPE  H10X18367   1.842   6.059   7.811  0.0751  0.0891  0.6892
  163SAPE  H10Y18368   1.887   5.895   7.845 -0.8725  0.4589  1.7179
  163SAPE  C31118369   1.683   5.950   7.902  0.1303  0.1493  0.0706
  163SAPE  H11X18370   1.658   5.845   7.925  1.1524 -0.0249  0.4766
  163SAPE  H11Y18371   1.593   5.998   7.858  0.7047  0.2294 -1.0511
  163SAPE  C31218372   1.714   6.030   8.027 -1.0057 -0.3942 -0.1956
  163SAPE  H12X18373   1.618   6.029   8.083 -0.4375 -0.9158  0.7805
  163SAPE  H12Y18374   1.724   6.134   7.990 -0.3859 -0.6557 -0.7948
  163SAPE  C31318375   1.823   5.976   8.119 -0.2047 -0.2040 -0.1485
  163SAPE  H13X18376   1.923   5.974   8.070 -0.1253 -1.7950  0.0190
  163SAPE  H13Y18377   1.801   5.870   8.143  1.0793 -0.3008  0.6916
  163SAPE  C31418378   1.841   6.051   8.254  0.0460 -0.0326 -0.5131
  163SAPE  H14X18379   1.740   6.057   8.299  0.1016 -1.9639 -0.0336
  163SAPE  H14Y18380   1.885   6.151   8.235  1.4057 -0.5527 -0.2282
  163SAPE  C31518381   1.928   5.978   8.355  0.8034 -0.4767  0.0229
  163SAPE  H15X18382   2.032   5.978   8.317  1.1167 -0.1321  0.8594
  163SAPE  H15Y18383   1.894   5.875   8.378  0.0409  0.0758  1.5493
  163SAPE  C31618384   1.913   6.049   8.491 -0.0354 -0.1739  0.5388
  163SAPE  H16X18385   1.804   6.050   8.511 -0.1855  0.6083 -0.2587
  163SAPE  H16Y18386   1.953   6.153   8.486  1.3698 -0.4538  3.6021
  163SAPE  C31718387   1.994   5.964   8.598  0.8086 -0.6412  0.1968
  163SAPE  H17X18388   2.103   5.978   8.582  0.5876 -0.4762 -1.3237
  163SAPE  H17Y18389   1.963   5.859   8.585  0.1628 -0.3019 -1.1578
  163SAPE  C31818390   1.958   5.998   8.743 -0.3013  0.7168  0.1999
  163SAPE  H18X18391   2.017   5.946   8.821  0.3069 -1.8358 -1.8214
  163SAPE  H18Y18392   1.852   5.972   8.760 -0.1162 -0.2082 -0.0195
  163SAPE  H18Z18393   1.963   6.106   8.768 -0.8977  0.9614 -0.6904
  164SAPE     N18394   4.010   2.874   6.299  0.4085 -0.3675 -0.0740
  164SAPE   HN118395   4.085   2.830   6.356  0.8063 -0.7386 -0.8688
  164SAPE   HN218396   3.967   2.808   6.231  2.2936 -1.0871 -0.6582
  164SAPE   HN318397   4.073   2.943   6.251  2.9375 -2.6646 -0.3139
  164SAPE   C1218398   3.908   2.946   6.380 -0.4839  0.2011 -0.4119
  164SAPE  H12A18399   3.955   3.044   6.404  0.0649  0.5216 -2.5890
  164SAPE  H12B18400   3.876   2.888   6.469 -2.1857 -2.2600 -2.5023
  164SAPE   C1118401   3.782   2.984   6.303 -0.2151 -0.8456  0.1899
  164SAPE  H11A18402   3.707   3.015   6.378 -0.8017 -1.3900 -0.1593
  164SAPE  H11B18403   3.738   2.892   6.260  0.2018 -1.7255  1.6066
  164SAPE     P18404   3.738   3.236   6.206 -0.2321  0.6210  0.4092
  164SAPE   O1318405   3.798   3.312   6.095  0.0343  0.1639  0.1770
  164SAPE   O1418406   3.590   3.220   6.206 -1.1972  0.0408  0.0216
  164SAPE   O1218407   3.802   3.093   6.203 -0.2021  0.4458  0.1694
  164SAPE   O1118408   3.779   3.281   6.353 -0.0953  1.0539 -0.0709
  164SAPE    C118409   3.894   3.355   6.387  0.1834  0.4535 -0.0016
  164SAPE    HA18410   3.972   3.277   6.401  1.4030  1.7485  0.7049
  164SAPE    HB18411   3.936   3.420   6.307  0.8330 -1.2398 -1.1179
  164SAPE    C218412   3.869   3.443   6.514 -0.4156  0.3560  0.4819
  164SAPE    HS18413   3.963   3.472   6.565 -0.3161 -1.9817  1.7439
  164SAPE   O2118414   3.791   3.380   6.609 -0.1862  0.3443 -0.0386
  164SAPE   C2118415   3.856   3.278   6.669 -0.6112 -0.2772  0.4621
  164SAPE   O2218416   3.975   3.257   6.654  0.1182  0.2317  0.6769
  164SAPE   C2218417   3.758   3.187   6.730 -0.1629  0.0762 -0.2123
  164SAPE   H2R18418   3.655   3.229   6.737  0.0314  0.3856  1.0204
  164SAPE   H2S18419   3.751   3.092   6.673  0.8824 -0.5038  0.5825
  164SAPE    C318420   3.801   3.576   6.475 -0.2082 -0.3879  0.5833
  164SAPE    HX18421   3.734   3.555   6.389 -1.5668 -0.3161  1.5809
  164SAPE    HY18422   3.883   3.639   6.434 -0.6475 -0.5040 -0.5112
  164SAPE   O3118423   3.738   3.646   6.583 -0.0642 -0.3891  0.0128
  164SAPE   C3118424   3.605   3.626   6.599 -0.0124  0.2796 -1.0094
  164SAPE   O3218425   3.540   3.555   6.527  0.1640 -0.1516 -0.1339
  164SAPE   C3218426   3.555   3.693   6.730  0.7035 -0.2642 -0.3954
  164SAPE   H2X18427   3.451   3.720   6.705  0.4889  0.2656  0.9600
  164SAPE   H2Y18428   3.620   3.780   6.754 -1.5817  1.3090  0.4299
  164SAPE   C2318429   3.799   3.150   6.875  0.0014 -0.4945  0.0750
  164SAPE   H3R18430   3.819   3.241   6.934  0.5408  0.0777 -0.9673
  164SAPE   H3S18431   3.893   3.092   6.877 -0.7116 -1.6876  2.5529
  164SAPE   C2418432   3.693   3.062   6.937 -0.6021  0.0557 -0.0430
  164SAPE   H4R18433   3.674   2.974   6.872 -0.1997 -0.8098  0.9998
  164SAPE   H4S18434   3.601   3.125   6.934 -0.2472  0.8862  3.0808
  164SAPE   C2518435   3.716   3.017   7.083 -0.3144 -0.2292  0.2642
  164SAPE   H5R18436   3.754   3.101   7.143 -2.2797  0.0775  1.1418
  164SAPE   C2618437   3.715   2.895   7.129  0.1106  0.1927  0.2414
  164SAPE   H6R18438   3.733   2.888   7.237 -1.9126  2.3311  0.7999
  164SAPE   C2718439   3.689   2.766   7.053  0.4514 -0.5006  0.0826
  164SAPE   H7R18440   3.654   2.770   6.947  0.5096 -2.1646 -0.0155
  164SAPE   H7S18441   3.602   2.728   7.111 -0.2393 -0.7996 -1.1130
  164SAPE   C2818442   3.805   2.664   7.073 -0.3213  0.2528  0.8431
  164SAPE   H8R18443   3.874   2.645   6.989 -4.0223  0.8195 -2.6227
  164SAPE   C2918444   3.823   2.606   7.193 -0.0286  0.4951  0.5583
  164SAPE   H9R18445   3.908   2.535   7.194  0.7020  1.3393  2.3586
  164SAPE  C21018446   3.741   2.610   7.312  0.7354 -0.0070  0.2703
  164SAPE  H10R18447   3.634   2.626   7.284  1.0060 -2.2561 -2.4621
  164SAPE  H10S18448   3.779   2.691   7.378  0.3448  0.8771 -0.5596
  164SAPE  C21118449   3.745   2.481   7.385  0.5064 -0.0289 -0.6043
  164SAPE  H11R18450   3.738   2.389   7.325 -0.3144  0.1055 -0.7331
  164SAPE  C21218451   3.748   2.458   7.514 -0.4494  0.5014  0.1964
  164SAPE  H12R18452   3.742   2.354   7.550 -0.0822  0.4236  0.0431
  164SAPE  C21318453   3.740   2.547   7.630 -0.1013  0.7860 -0.9357
  164SAPE  H13R18454   3.774   2.652   7.616  1.0260  0.9238  2.0353
  164SAPE  H13S18455   3.819   2.522   7.704  0.7159  0.7217 -1.7979
  164SAPE  C21418456   3.589   2.554   7.673 -0.7479 -0.2359 -0.6784
  164SAPE  H14R18457   3.517   2.559   7.590 -0.0985  2.4234 -1.1839
  164SAPE  C21518458   3.523   2.572   7.793 -0.6157 -0.2898 -0.2170
  164SAPE  H15R18459   3.415   2.595   7.801 -0.2261  1.5693  0.0055
  164SAPE  C21618460   3.587   2.558   7.932  0.2066  0.5689  0.6238
  164SAPE  H16R18461   3.696   2.573   7.921 -0.0629  1.3275 -1.3504
  164SAPE  H16S18462   3.557   2.458   7.970 -0.7030  0.4453 -0.3825
  164SAPE  C21718463   3.526   2.677   8.019  0.4742  0.1290  0.2763
  164SAPE  H17R18464   3.416   2.666   8.006  0.5303  1.5089 -1.9217
  164SAPE  H17S18465   3.543   2.778   7.977 -0.0953 -0.0896 -0.4879
  164SAPE  C21818466   3.549   2.674   8.169 -0.2740  0.3403 -0.1939
  164SAPE  H18R18467   3.633   2.735   8.207 -0.5741  0.5387  0.1667
  164SAPE  H18S18468   3.557   2.569   8.204 -2.5554 -0.8883 -2.9420
  164SAPE  C21918469   3.421   2.735   8.246 -0.5042 -0.1758 -0.7812
  164SAPE  H19R18470   3.333   2.673   8.221 -0.7855 -0.2885  0.4571
  164SAPE  H19S18471   3.407   2.823   8.180  0.0460 -0.6121 -1.5053
  164SAPE  C22018472   3.442   2.762   8.397 -0.2645 -0.3960  0.7073
  164SAPE  H20R18473   3.548   2.789   8.416 -0.0523 -0.3436 -0.4807
  164SAPE  H20S18474   3.418   2.668   8.452 -0.6324 -0.8487 -0.2021
  164SAPE  H20T18475   3.367   2.834   8.436  0.3714  1.2981 -1.0743
  164SAPE   C3318476   3.572   3.596   6.850 -0.3830 -0.0326 -0.5563
  164SAPE   H3X18477   3.570   3.658   6.942  1.3950  0.0860 -0.5542
  164SAPE   H3Y18478   3.670   3.542   6.846 -0.8853 -1.0070 -0.0819
  164SAPE   C3418479   3.468   3.479   6.858  0.5694 -0.1053  0.0418
  164SAPE   H4X18480   3.489   3.397   6.786 -3.1005 -0.4135 -0.9284
  164SAPE   H4Y18481   3.375   3.528   6.822 -0.3589 -2.1706 -0.5451
  164SAPE   C3518482   3.442   3.429   7.005  0.3725 -0.5976 -0.0503
  164SAPE   H5X18483   3.378   3.338   6.997 -0.1581 -0.2930  0.6394
  164SAPE   H5Y18484   3.380   3.496   7.068 -0.0439 -0.8396 -0.1932
  164SAPE   C3618485   3.571   3.403   7.079  0.1710 -0.2517 -0.1973
  164SAPE   H6X18486   3.631   3.497   7.091  0.6636 -0.5347 -0.3866
  164SAPE   H6Y18487   3.646   3.341   7.025  0.9551  0.8684 -0.4533
  164SAPE   C3718488   3.549   3.336   7.217  0.2150  0.2516  0.4854
  164SAPE   H7X18489   3.651   3.296   7.236  0.5071  1.3077  1.2511
  164SAPE   H7Y18490   3.474   3.255   7.216 -0.3564  0.7656 -0.9967
  164SAPE   C3818491   3.520   3.433   7.328 -0.5121 -0.7897 -0.6467
  164SAPE   H8X18492   3.414   3.465   7.328 -0.4776 -0.4472 -3.2593
  164SAPE   H8Y18493   3.595   3.513   7.308  2.1884 -2.2145  2.7559
  164SAPE   C3918494   3.546   3.372   7.468 -0.3570  0.2186  0.4915
  164SAPE   H9X18495   3.652   3.340   7.475 -0.2383 -0.0070 -1.6848
  164SAPE   H9Y18496   3.480   3.285   7.487  0.7889 -1.2884 -1.9783
  164SAPE  C31018497   3.527   3.487   7.572 -0.2209  0.3284 -0.7700
  164SAPE  H10X18498   3.432   3.545   7.566  0.7840  2.0728 -0.5294
  164SAPE  H10Y18499   3.604   3.563   7.548 -0.0508  0.2066 -0.6112
  164SAPE  C31118500   3.539   3.439   7.720  0.1651  0.8913  0.0763
  164SAPE  H11X18501   3.625   3.370   7.727  0.1162  0.9916  2.0397
  164SAPE  H11Y18502   3.446   3.380   7.735  0.2252  0.9242  0.5927
  164SAPE  C31218503   3.555   3.559   7.813 -0.2004  0.6736  0.6701
  164SAPE  H12X18504   3.471   3.631   7.798 -0.0078  1.1476  1.7670
  164SAPE  H12Y18505   3.649   3.610   7.784  0.5929 -0.2775  1.4866
  164SAPE  C31318506   3.560   3.523   7.963 -0.7058 -0.3548  0.7814
  164SAPE  H13X18507   3.657   3.473   7.984 -0.0554  0.9451  0.9727
  164SAPE  H13Y18508   3.480   3.449   7.986 -2.0778  0.7405 -0.3159
  164SAPE  C31418509   3.534   3.644   8.056  0.7969  0.2701 -0.0958
  164SAPE  H14X18510   3.448   3.710   8.031  1.3458  0.9047 -0.3347
  164SAPE  H14Y18511   3.624   3.708   8.062  0.0465  1.2975  0.4816
  164SAPE  C31518512   3.517   3.605   8.207  0.4488  0.6237  0.1970
  164SAPE  H15X18513   3.602   3.538   8.230  2.3809  2.3736 -1.4358
  164SAPE  H15Y18514   3.432   3.534   8.217  1.6500 -0.6221  2.2144
  164SAPE  C31618515   3.533   3.718   8.308 -0.1854 -0.6324 -0.0080
  164SAPE  H16X18516   3.473   3.806   8.279 -0.3620 -0.1432  1.7162
  164SAPE  H16Y18517   3.639   3.750   8.318  0.1305 -1.8376  0.7466
  164SAPE  C31718518   3.467   3.669   8.445 -0.4176 -0.4237  0.6342
  164SAPE  H17X18519   3.373   3.620   8.411 -2.6797  3.0095  1.4358
  164SAPE  H17Y18520   3.433   3.751   8.512 -0.3128 -0.6677  0.9943
  164SAPE  C31818521   3.551   3.578   8.540 -0.0612 -0.1064 -0.1521
  164SAPE  H18X18522   3.575   3.480   8.494  0.1629  0.9792 -2.4639
  164SAPE  H18Y18523   3.487   3.545   8.625 -0.4101 -3.2735 -1.5315
  164SAPE  H18Z18524   3.648   3.626   8.568 -0.4865  1.2949 -0.9976
  165SAPE     N18525   3.854   0.383   6.039 -0.4010 -0.7197 -0.1632
  165SAPE   HN118526   3.837   0.355   5.940 -1.9444 -2.1304  0.4453
  165SAPE   HN218527   3.791   0.463   6.059  1.6710  1.0162 -0.2121
  165SAPE   HN318528   3.950   0.422   6.050  0.0783 -1.8992 -0.0011
  165SAPE   C1218529   3.833   0.274   6.139  0.3747  0.6076  0.1750
  165SAPE  H12A18530   3.854   0.317   6.240 -0.9208  1.2343  0.1936
  165SAPE  H12B18531   3.902   0.189   6.125 -0.5581 -0.4493  1.7424
  165SAPE   C1118532   3.683   0.220   6.140 -0.6838 -0.4258 -0.6113
  165SAPE  H11A18533   3.654   0.142   6.214 -0.8266 -0.0721 -0.2886
  165SAPE  H11B18534   3.666   0.173   6.041  0.5406 -0.1359 -0.9725
  165SAPE     P18535   3.449   0.336   6.184  0.0544 -0.0061 -0.5699
  165SAPE   O1318536   3.379   0.431   6.092 -0.2264  0.1050  0.4866
  165SAPE   O1418537   3.401   0.198   6.172 -0.0322  0.2521  0.6503
  165SAPE   O1218538   3.601   0.341   6.150  0.1638 -0.7917 -0.1986
  165SAPE   O1118539   3.447   0.388   6.330  0.0851  0.2463  0.4737
  165SAPE    C118540   3.366   0.509   6.356 -1.1514  0.8121 -0.6713
  165SAPE    HA18541   3.436   0.578   6.406 -1.9144  0.3474  1.1151
  165SAPE    HB18542   3.321   0.558   6.267 -0.7074 -0.4687 -1.6426
  165SAPE    C218543   3.250   0.480   6.455 -0.1433 -0.0130  0.6310
  165SAPE    HS18544   3.190   0.568   6.487 -1.3035 -0.7696  0.5942
  165SAPE   O2118545   3.296   0.398   6.568 -0.3701  0.2553  0.2528
  165SAPE   C2118546   3.367   0.463   6.667  0.6617  0.1838  0.3184
  165SAPE   O2218547   3.383   0.583   6.665 -0.5231 -0.6392 -0.6777
  165SAPE   C2218548   3.403   0.366   6.780  0.2199  0.0596  0.0264
  165SAPE   H2R18549   3.452   0.273   6.745  2.1951  1.4353 -1.0415
  165SAPE   H2S18550   3.473   0.433   6.836 -1.4176  0.9263  1.1259
  165SAPE    C318551   3.143   0.399   6.381 -0.6371  0.4637 -0.7159
  165SAPE    HX18552   3.178   0.312   6.322 -1.4061  0.5426 -1.3020
  165SAPE    HY18553   3.096   0.460   6.301  0.4179  1.2974 -0.7269
  165SAPE   O3118554   3.049   0.354   6.475  0.4584 -0.3570 -0.4789
  165SAPE   C3118555   3.053   0.241   6.544 -0.1408 -0.1908  0.3895
  165SAPE   O3218556   3.143   0.157   6.528  0.7770  0.8093 -0.3560
  165SAPE   C3218557   2.929   0.213   6.624  0.4565 -0.3135 -0.3430
  165SAPE   H2X18558   2.857   0.166   6.554 -0.9980 -0.5165  1.2187
  165SAPE   H2Y18559   2.884   0.308   6.658 -0.5436 -0.1569 -1.9974
  165SAPE   C2318560   3.281   0.353   6.888  0.6061  0.3206  0.4948
  165SAPE   H3R18561   3.184   0.324   6.841  0.9034  1.6532 -1.0436
  165SAPE   H3S18562   3.253   0.456   6.921 -3.0332 -0.4395  0.2015
  165SAPE   C2418563   3.334   0.282   7.015 -0.0214  0.1990  0.6672
  165SAPE   H4R18564   3.258   0.263   7.093 -0.5278  0.7576  0.3195
  165SAPE   H4S18565   3.409   0.351   7.060  0.5175  0.2993 -0.3585
  165SAPE   C2518566   3.404   0.148   6.988  0.0201 -0.2432  0.3892
  165SAPE   H5R18567   3.423   0.132   6.881  1.1518 -1.9929  0.8018
  165SAPE   C2618568   3.455   0.062   7.082  0.3026 -0.0989  0.1585
  165SAPE   H6R18569   3.515  -0.023   7.047  1.1702 -0.0306  1.4168
  165SAPE   C2718570   3.442   0.068   7.231  0.0004  0.3154  0.0305
  165SAPE   H7R18571   3.375  -0.009   7.274  2.2707 -2.0124 -0.3566
  165SAPE   H7S18572   3.392   0.163   7.262  1.1832  1.6062 -1.7896
  165SAPE   C2818573   3.576   0.060   7.312  0.6529  0.5347  0.2409
  165SAPE   H8R18574   3.666   0.057   7.249 -1.1346 -1.3658 -2.4529
  165SAPE   C2918575   3.581   0.066   7.447  0.7674  0.0488  0.4470
  165SAPE   H9R18576   3.682   0.069   7.491  1.8535  3.6601 -1.8783
  165SAPE  C21018577   3.465   0.064   7.538 -0.6732 -0.4497 -0.4929
  165SAPE  H10R18578   3.444  -0.037   7.580  1.7588 -0.5394  0.6390
  165SAPE  H10S18579   3.372   0.081   7.480 -0.6227 -1.1303 -0.7918
  165SAPE  C21118580   3.480   0.164   7.646  0.4765  0.0346  0.5806
  165SAPE  H11R18581   3.455   0.263   7.604  0.5658 -0.5701 -0.9565
  165SAPE  C21218582   3.503   0.151   7.777  0.2176  0.7909 -0.2695
  165SAPE  H12R18583   3.487   0.235   7.846  1.1214 -0.6186  1.7666
  165SAPE  C21318584   3.532   0.024   7.853  0.2131  0.0843 -0.6296
  165SAPE  H13R18585   3.631   0.024   7.904 -0.9049 -0.6499  1.6866
  165SAPE  H13S18586   3.527  -0.066   7.788 -3.7853  1.0896 -2.0229
  165SAPE  C21418587   3.422  -0.005   7.951 -1.1824  0.1840  0.1622
  165SAPE  H14R18588   3.329   0.051   7.932  0.3853  1.6756 -4.4686
  165SAPE  C21518589   3.440  -0.071   8.075  0.0153  0.2333  0.5240
  165SAPE  H15R18590   3.352  -0.082   8.141 -0.7537  1.9701 -0.1507
  165SAPE  C21618591   3.560  -0.135   8.131  0.2848  0.8230 -0.2426
  165SAPE  H16R18592   3.638  -0.142   8.052  0.0186  1.1544 -0.5386
  165SAPE  H16S18593   3.544  -0.239   8.167  0.3871  0.6780 -0.6070
  165SAPE  C21718594   3.625  -0.053   8.250 -0.0265 -0.4092 -1.1900
  165SAPE  H17R18595   3.682   0.034   8.211  3.3399 -1.7990  0.2361
  165SAPE  H17S18596   3.708  -0.117   8.287  1.0186  0.8731 -1.2585
  165SAPE  C21818597   3.526  -0.012   8.369 -0.3634  0.7623 -0.0913
  165SAPE  H18R18598   3.442   0.049   8.327 -1.5722 -0.8916 -0.1626
  165SAPE  H18S18599   3.579   0.052   8.443 -0.1195  1.6262 -0.9930
  165SAPE  C21918600   3.457  -0.135   8.432  0.5876  0.0030 -0.3590
  165SAPE  H19R18601   3.535  -0.176   8.500  1.2335 -0.0747 -1.1270
  165SAPE  H19S18602   3.434  -0.214   8.357 -0.3893 -3.2762  3.0879
  165SAPE  C22018603   3.327  -0.089   8.511  0.1919 -0.4924 -0.1596
  165SAPE  H20R18604   3.260  -0.178   8.515  3.1185 -2.8543 -0.3542
  165SAPE  H20S18605   3.257  -0.022   8.456 -1.7969 -0.0906  2.6211
  165SAPE  H20T18606   3.357  -0.050   8.611 -0.3035 -2.9587  1.0280
  165SAPE   C3318607   2.964   0.119   6.735 -0.1735  0.6805  0.6446
  165SAPE   H3X18608   3.045   0.168   6.793  0.6123 -1.3769  1.3791
  165SAPE   H3Y18609   2.999   0.022   6.694 -1.8348  0.3512 -0.0745
  165SAPE   C3418610   2.838   0.084   6.815 -0.3638  0.8590 -0.4563
  165SAPE   H4X18611   2.772   0.025   6.748  1.8428 -1.0525 -1.0844
  165SAPE   H4Y18612   2.784   0.177   6.843  2.3722  1.6631  2.7966
  165SAPE   C3518613   2.867   0.017   6.950  0.2958  0.5170  0.8913
  165SAPE   H5X18614   2.935  -0.068   6.927  1.4087  2.2711 -3.3353
  165SAPE   H5Y18615   2.770  -0.020   6.990  0.6181 -1.0986  0.2629
  165SAPE   C3618616   2.931   0.109   7.044 -0.5522  0.1362  0.0398
  165SAPE   H6X18617   2.849   0.174   7.078  0.0551 -0.2251  2.3402
  165SAPE   H6Y18618   3.006   0.175   6.996  1.1140 -1.9845 -0.4616
  165SAPE   C3718619   2.980   0.044   7.173  0.2303 -0.2972  0.1720
  165SAPE   H7X18620   3.084   0.006   7.159 -0.0744 -1.0460 -0.0881
  165SAPE   H7Y18621   2.928  -0.051   7.195 -1.2130  0.9279  2.6037
  165SAPE   C3818622   2.960   0.123   7.307 -0.8245  0.4899  0.5874
  165SAPE   H8X18623   2.852   0.130   7.329 -1.6468 -1.5803 -2.1701
  165SAPE   H8Y18624   3.000   0.226   7.293 -0.2629  0.3123  0.8206
  165SAPE   C3918625   3.026   0.068   7.436 -0.5007 -0.2839  0.7008
  165SAPE   H9X18626   3.136   0.074   7.421 -0.4829 -0.5273  0.7232
  165SAPE   H9Y18627   3.006  -0.036   7.468 -2.0174  0.0728  0.9876
  165SAPE  C31018628   2.990   0.156   7.553  0.1964  0.2777  0.4496
  165SAPE  H10X18629   2.881   0.146   7.567 -0.3174  2.7275 -1.2005
  165SAPE  H10Y18630   3.008   0.262   7.525 -0.6691  0.4353  0.4876
  165SAPE  C31118631   3.062   0.099   7.679 -0.5115 -0.2231  0.1476
  165SAPE  H11X18632   3.150   0.160   7.707 -0.4979 -0.9532  1.8014
  165SAPE  H11Y18633   3.100  -0.003   7.657 -0.9634 -1.0136  2.7179
  165SAPE  C31218634   2.975   0.090   7.801 -0.4951  0.0399  0.0030
  165SAPE  H12X18635   2.890   0.030   7.763  1.1887 -1.1007 -2.1764
  165SAPE  H12Y18636   2.942   0.191   7.833  1.5689  1.5534 -2.3087
  165SAPE  C31318637   3.041  -0.000   7.913  0.0452 -0.9838 -0.3697
  165SAPE  H13X18638   3.127   0.063   7.944 -1.5785  1.2783 -0.2392
  165SAPE  H13Y18639   3.064  -0.103   7.877 -0.8591 -0.6746 -1.9261
  165SAPE  C31418640   2.950  -0.000   8.036 -0.2850 -0.3128 -0.1864
  165SAPE  H14X18641   2.850  -0.039   8.006  0.4463 -0.5676 -2.4704
  165SAPE  H14Y18642   2.937   0.099   8.084  1.3321 -0.0061 -0.3394
  165SAPE  C31518643   3.011  -0.079   8.156  0.6056 -0.0540  0.6669
  165SAPE  H15X18644   3.090  -0.010   8.192 -2.0500  4.2443 -1.0361
  165SAPE  H15Y18645   3.064  -0.175   8.134 -1.9513 -1.4639  0.2942
  165SAPE  C31618646   2.904  -0.112   8.266 -0.0952  0.8641  0.1715
  165SAPE  H16X18647   2.957  -0.163   8.349 -1.0995  0.6261  0.6770
  165SAPE  H16Y18648   2.835  -0.185   8.220 -0.0265 -0.4495  2.0292
  165SAPE  C31718649   2.826   0.006   8.328  0.0712 -0.4507 -0.0251
  165SAPE  H17X18650   2.759  -0.041   8.403  0.0841 -0.0576  0.2388
  165SAPE  H17Y18651   2.769   0.057   8.247 -1.0439  3.6639  3.0299
  165SAPE  C31818652   2.916   0.119   8.391 -0.2215  0.0495  0.3195
  165SAPE  H18X18653   2.990   0.171   8.326 -0.6884  1.0208  0.5348
  165SAPE  H18Y18654   2.982   0.065   8.462  0.4296  0.5726  0.1263
  165SAPE  H18Z18655   2.847   0.195   8.434 -0.1031  1.7369 -2.2150
  166SAPE     N18656   3.233   0.595   5.953  0.3593  0.1094 -0.1111
  166SAPE   HN118657   3.153   0.639   6.003 -0.0568 -0.6351 -0.1023
  166SAPE   HN218658   3.190   0.524   5.890  0.7256  1.4210 -1.9087
  166SAPE   HN318659   3.288   0.532   6.014 -0.6155  0.6937  1.4336
  166SAPE   C1218660   3.302   0.695   5.862  0.4327  0.1447 -0.2095
  166SAPE  H12A18661   3.226   0.762   5.815 -1.5355 -1.4667  0.5402
  166SAPE  H12B18662   3.362   0.634   5.792  0.6397  0.1673 -0.0538
  166SAPE   C1118663   3.397   0.774   5.952  0.4802  0.3605 -0.6229
  166SAPE  H11A18664   3.339   0.800   6.043 -0.3972 -0.6211 -0.8817
  166SAPE  H11B18665   3.433   0.868   5.905 -0.8328  1.0748 -0.2406
  166SAPE     P18666   3.648   0.738   6.063  0.4871 -0.4413  0.2309
  166SAPE   O1318667   3.731   0.616   6.091  0.1278  1.0678 -0.1686
  166SAPE   O1418668   3.721   0.845   5.991 -0.0584 -0.4807  0.1058
  166SAPE   O1218669   3.521   0.699   5.978 -0.2068  0.0138 -0.1733
  166SAPE   O1118670   3.590   0.788   6.200  0.3453 -0.0689 -0.4693
  166SAPE    C118671   3.638   0.901   6.262  0.3674  0.2925 -0.3389
  166SAPE    HA18672   3.742   0.874   6.289  1.1698  2.0784 -1.4355
  166SAPE    HB18673   3.635   0.983   6.187 -2.2950 -0.8316 -1.5915
  166SAPE    C218674   3.555   0.946   6.388 -0.8188  0.1164 -0.4664
  166SAPE    HS18675   3.590   1.047   6.417 -0.4933  0.0157 -0.5052
  166SAPE   O2118676   3.572   0.846   6.485  0.3772  0.6350 -0.3080
  166SAPE   C2118677   3.683   0.859   6.556  0.4608 -0.5433 -0.0753
  166SAPE   O2218678   3.763   0.950   6.536 -0.1484  0.2686  0.1277
  166SAPE   C2218679   3.705   0.735   6.642  0.0602  0.2794  0.1444
  166SAPE   H2R18680   3.601   0.713   6.674  1.0268  0.0622  3.4507
  166SAPE   H2S18681   3.744   0.650   6.582  2.1533  1.6617 -0.5477
  166SAPE    C318682   3.409   0.968   6.354  0.5898  0.1291  0.2694
  166SAPE    HX18683   3.376   0.875   6.302 -1.3406  3.1633 -4.5925
  166SAPE    HY18684   3.403   1.037   6.268  1.7098 -0.0026  0.0684
  166SAPE   O3118685   3.339   1.001   6.477  0.5844  0.4428 -0.1373
  166SAPE   C3118686   3.241   0.922   6.513  0.2124 -0.2280  0.0351
  166SAPE   O3218687   3.176   0.845   6.448 -0.4891  0.1680  0.1463
  166SAPE   C3218688   3.202   0.963   6.651 -0.4752 -0.2925 -0.1948
  166SAPE   H2X18689   3.218   1.072   6.668 -0.5778  0.3491 -3.5682
  166SAPE   H2Y18690   3.271   0.907   6.718  1.1109  0.0434 -1.5026
  166SAPE   C2318691   3.790   0.759   6.765  0.0329 -1.1055  0.6877
  166SAPE   H3R18692   3.775   0.859   6.811 -0.9015 -1.0124  0.2147
  166SAPE   H3S18693   3.888   0.748   6.715  0.3229 -2.5801  1.5084
  166SAPE   C2418694   3.775   0.643   6.870 -0.1963 -0.2123 -0.7560
  166SAPE   H4R18695   3.861   0.656   6.939  0.2458 -0.1805 -1.3043
  166SAPE   H4S18696   3.788   0.548   6.815  1.5989 -0.9287  0.8267
  166SAPE   C2518697   3.646   0.655   6.943 -0.0542 -0.0642 -0.3140
  166SAPE   H5R18698   3.561   0.683   6.878 -0.8454  0.7767  1.0344
  166SAPE   C2618699   3.619   0.621   7.079  0.1244 -0.4120  0.6479
  166SAPE   H6R18700   3.526   0.639   7.136  2.3984 -1.6484  5.2050
  166SAPE   C2718701   3.712   0.566   7.176  0.6271 -0.1450  0.4063
  166SAPE   H7R18702   3.753   0.638   7.251 -0.2797  2.1655 -1.1955
  166SAPE   H7S18703   3.812   0.544   7.131  3.0791  3.8744  3.1363
  166SAPE   C2818704   3.645   0.450   7.248  0.4841 -0.8849 -0.3255
  166SAPE   H8R18705   3.592   0.382   7.180  1.2848  0.4311 -2.3805
  166SAPE   C2918706   3.649   0.427   7.381  0.0327  0.4402 -0.2230
  166SAPE   H9R18707   3.624   0.328   7.422  0.0456  0.8499  0.7944
  166SAPE  C21018708   3.709   0.519   7.491  0.1584  0.2725  0.1938
  166SAPE  H10R18709   3.777   0.595   7.446 -1.2820  0.6940 -1.3673
  166SAPE  H10S18710   3.770   0.463   7.564  0.3068  0.0865 -0.0708
  166SAPE  C21118711   3.608   0.604   7.561 -0.0507 -0.0425 -0.2568
  166SAPE  H11R18712   3.552   0.682   7.507 -0.0131 -0.5721 -1.0863
  166SAPE  C21218713   3.592   0.603   7.697 -0.0925 -0.3639 -0.5609
  166SAPE  H12R18714   3.531   0.687   7.735  0.9206  0.4381 -0.6772
  166SAPE  C21318715   3.665   0.518   7.800  0.0896  0.0544 -0.0940
  166SAPE  H13R18716   3.690   0.417   7.759 -1.1977 -0.5071  0.4288
  166SAPE  H13S18717   3.582   0.499   7.871  1.1829 -2.7697  0.5934
  166SAPE  C21418718   3.794   0.576   7.862 -0.1189 -0.6945  0.3234
  166SAPE  H14R18719   3.865   0.605   7.783 -3.3098 -0.9589 -2.8829
  166SAPE  C21518720   3.818   0.608   7.992  0.5649  0.0586  1.0093
  166SAPE  H15R18721   3.909   0.663   8.021  0.8000  0.4168 -0.3338
  166SAPE  C21618722   3.717   0.579   8.111  0.4090 -0.2535  0.8067
  166SAPE  H16R18723   3.762   0.520   8.194 -0.9519 -0.7399  1.2335
  166SAPE  H16S18724   3.632   0.515   8.076  1.4187 -0.1399 -2.1555
  166SAPE  C21718725   3.651   0.694   8.178  0.0632 -0.7554  0.2571
  166SAPE  H17R18726   3.720   0.779   8.198 -0.4417 -0.0150 -1.0008
  166SAPE  H17S18727   3.598   0.660   8.269 -1.1749  0.0476 -0.1437
  166SAPE  C21818728   3.537   0.758   8.085 -0.6135  0.0228  0.3180
  166SAPE  H18R18729   3.481   0.686   8.022  2.1724 -0.1559 -2.1620
  166SAPE  H18S18730   3.594   0.818   8.010 -2.4349 -0.0674 -1.2302
  166SAPE  C21918731   3.449   0.855   8.161 -0.7445 -0.4822  0.0516
  166SAPE  H19R18732   3.382   0.800   8.231 -1.3950  2.7405  2.1420
  166SAPE  H19S18733   3.384   0.901   8.084 -0.3993 -1.7361 -1.0297
  166SAPE  C22018734   3.526   0.976   8.230  0.6485  0.4605 -0.0644
  166SAPE  H20R18735   3.562   0.959   8.334 -2.1504 -1.5172  0.7314
  166SAPE  H20S18736   3.463   1.067   8.225 -2.2430 -1.4410 -0.7404
  166SAPE  H20T18737   3.613   0.997   8.165  0.1456 -0.6355 -1.1420
  166SAPE   C3318738   3.064   0.903   6.679  0.2594  0.2015  0.1010
  166SAPE   H3X18739   3.045   0.798   6.646 -2.6990  0.3994  0.8941
  166SAPE   H3Y18740   2.987   0.957   6.620 -0.4387 -0.2887  0.5451
  166SAPE   C3418741   3.019   0.905   6.828  0.8794 -0.0979  0.0108
  166SAPE   H4X18742   2.908   0.898   6.826  0.9652 -1.9347 -2.1089
  166SAPE   H4Y18743   3.047   1.006   6.866 -0.5582  0.2184  0.2938
  166SAPE   C3518744   3.067   0.788   6.915  0.4096  0.2917 -0.6322
  166SAPE   H5X18745   3.178   0.783   6.911  0.3389 -0.8403 -1.9190
  166SAPE   H5Y18746   3.023   0.693   6.877 -1.1514  0.8321 -0.2400
  166SAPE   C3618747   3.025   0.804   7.065 -0.1778  0.4898  0.7638
  166SAPE   H6X18748   2.920   0.838   7.053  0.4898  1.5741 -3.8377
  166SAPE   H6Y18749   3.086   0.889   7.103  0.5298  0.5868 -0.5468
  166SAPE   C3718750   3.046   0.673   7.150  0.9236 -0.3201  0.1008
  166SAPE   H7X18751   2.992   0.581   7.117 -0.4010  0.7009 -0.6908
  166SAPE   H7Y18752   3.008   0.701   7.250  1.0500 -0.0555  0.0757
  166SAPE   C3818753   3.197   0.639   7.180  0.0017 -0.2462 -0.6547
  166SAPE   H8X18754   3.247   0.734   7.209 -1.6929 -0.2553  2.8662
  166SAPE   H8Y18755   3.234   0.608   7.080  1.1414  0.6818 -0.5309
  166SAPE   C3918756   3.225   0.523   7.276  0.2837  0.1193 -0.2682
  166SAPE   H9X18757   3.333   0.499   7.277 -0.0210 -1.3454  0.6496
  166SAPE   H9Y18758   3.177   0.426   7.250  0.0597  0.8852 -3.0506
  166SAPE  C31018759   3.178   0.559   7.417  0.7033  0.1368 -0.2816
  166SAPE  H10X18760   3.067   0.558   7.419  0.6701 -0.6509 -1.3611
  166SAPE  H10Y18761   3.217   0.658   7.448 -0.9564  0.3973  1.1407
  166SAPE  C31118762   3.230   0.456   7.526 -0.3416 -0.0354  0.8717
  166SAPE  H11X18763   3.341   0.460   7.530 -0.2336 -1.4553  0.1660
  166SAPE  H11Y18764   3.217   0.350   7.494  0.6848 -0.1398  0.7730
  166SAPE  C31218765   3.165   0.482   7.665 -0.0974  0.4837  0.7163
  166SAPE  H12X18766   3.159   0.389   7.725 -4.5948 -0.1002 -0.2773
  166SAPE  H12Y18767   3.059   0.510   7.645  0.7581  3.7749  0.2373
  166SAPE  C31318768   3.238   0.590   7.743 -0.1320  0.1260  0.5396
  166SAPE  H13X18769   3.191   0.690   7.732  1.1812  0.7143 -0.0248
  166SAPE  H13Y18770   3.335   0.598   7.690  0.5785 -0.9613  1.6432
  166SAPE  C31418771   3.265   0.557   7.886  0.3982  0.0543 -0.6438
  166SAPE  H14X18772   3.307   0.654   7.920 -1.0064  1.0073 -1.4926
  166SAPE  H14Y18773   3.331   0.469   7.896 -0.2878 -0.5842 -1.5546
  166SAPE  C31518774   3.140   0.517   7.975 -0.8472  0.2571  0.3854
  166SAPE  H15X18775   3.088   0.436   7.920  0.2555  0.6151 -1.2807
  166SAPE  H15Y18776   3.066   0.599   7.982 -1.0743 -0.0495  1.8938
  166SAPE  C31618777   3.174   0.482   8.123 -0.5472 -0.7561  0.1928
  166SAPE  H16X18778   3.079   0.454   8.174  0.2467 -0.9384  1.5919
  166SAPE  H16Y18779   3.202   0.582   8.162 -0.1747 -0.1163 -1.5784
  166SAPE  C31718780   3.280   0.379   8.146  0.1332 -0.1508 -0.4535
  166SAPE  H17X18781   3.376   0.432   8.125 -0.6417  1.0721 -1.0564
  166SAPE  H17Y18782   3.260   0.300   8.071  0.5095 -0.2984 -0.3978
  166SAPE  C31818783   3.283   0.314   8.282 -0.0445  0.9242  0.1224
  166SAPE  H18X18784   3.384   0.268   8.284 -0.2673  0.3955 -0.4884
  166SAPE  H18Y18785   3.212   0.231   8.299 -2.0707  2.2651 -1.3407
  166SAPE  H18Z18786   3.278   0.391   8.361 -0.4387  0.0418  0.9712
  167SAPE     N18787   5.566   1.423   6.159  0.0286  0.3010 -0.3944
  167SAPE   HN118788   5.482   1.414   6.219  1.6018  3.2455  2.5744
  167SAPE   HN218789   5.643   1.366   6.199  1.5511  2.5922  0.1250
  167SAPE   HN318790   5.596   1.522   6.165  0.0248  0.2124  1.9593
  167SAPE   C1218791   5.515   1.368   6.028  0.0326 -0.4258 -0.1912
  167SAPE  H12A18792   5.512   1.451   5.954 -0.5561  0.0707  0.3775
  167SAPE  H12B18793   5.408   1.344   6.047  0.2912 -0.7481  0.9411
  167SAPE   C1118794   5.594   1.240   5.990 -0.5564 -0.4162 -0.1820
  167SAPE  H11A18795   5.702   1.266   5.984 -0.1301 -1.8118  0.9049
  167SAPE  H11B18796   5.549   1.201   5.897 -1.8382  3.5824 -1.4090
  167SAPE     P18797   5.652   1.004   6.096 -0.0787  0.1435  0.4588
  167SAPE   O1318798   5.752   1.008   5.985 -0.2063  0.1008  0.0815
  167SAPE   O1418799   5.710   0.964   6.225 -0.1917  0.3059  0.1871
  167SAPE   O1218800   5.580   1.145   6.099 -0.5075 -0.2264 -0.5620
  167SAPE   O1118801   5.539   0.896   6.058  0.0755  0.4118  0.3014
  167SAPE    C118802   5.403   0.921   6.059 -0.5430  0.4133 -0.6805
  167SAPE    HA18803   5.381   1.012   5.999  1.2414  0.7934 -0.8065
  167SAPE    HB18804   5.351   0.847   5.995  0.4511  0.8535 -2.0416
  167SAPE    C218805   5.349   0.926   6.207  0.1794 -0.1831  0.2525
  167SAPE    HS18806   5.382   1.022   6.253 -0.7311 -1.0859  3.0297
  167SAPE   O2118807   5.394   0.813   6.290  0.0214 -0.0548 -0.1096
  167SAPE   C2118808   5.440   0.850   6.408 -0.2839  0.4486 -0.9374
  167SAPE   O2218809   5.426   0.960   6.458 -0.1916  0.1184 -0.2163
  167SAPE   C2218810   5.506   0.733   6.478  0.9828  0.1559 -0.6165
  167SAPE   H2R18811   5.424   0.657   6.483  2.8050 -1.8560  0.4972
  167SAPE   H2S18812   5.596   0.697   6.424  1.0692 -0.6947  0.0552
  167SAPE    C318813   5.195   0.950   6.189 -0.4440  0.2522 -0.5933
  167SAPE    HX18814   5.148   0.851   6.172 -0.2569  0.1069 -0.2860
  167SAPE    HY18815   5.176   1.008   6.097  1.9870 -0.2839 -1.5222
  167SAPE   O3118816   5.143   0.996   6.309  0.3670 -0.9672 -0.6976
  167SAPE   C3118817   5.084   1.117   6.307 -0.7573  0.3490 -0.0012
  167SAPE   O3218818   5.073   1.182   6.208 -0.1887  0.2041  0.0043
  167SAPE   C3218819   5.048   1.148   6.454  0.4461  0.2527  0.4878
  167SAPE   H2X18820   5.098   1.242   6.486  0.7270  0.7131 -1.1994
  167SAPE   H2Y18821   5.085   1.064   6.517 -0.9693  0.1706  1.2482
  167SAPE   C2318822   5.553   0.770   6.621 -0.4651  0.0400  0.7487
  167SAPE   H3R18823   5.457   0.795   6.672 -0.5210  5.5615 -1.3416
  167SAPE   H3S18824   5.616   0.862   6.621 -0.3993  0.0083 -0.2984
  167SAPE   C2418825   5.635   0.660   6.688  0.2738  0.6120 -0.0870
  167SAPE   H4R18826   5.724   0.635   6.626 -1.5125 -2.5528 -1.5885
  167SAPE   H4S18827   5.575   0.568   6.674  4.7992 -2.2802 -2.8860
  167SAPE   C2518828   5.683   0.691   6.828  0.0420  0.5127 -0.2625
  167SAPE   H5R18829   5.730   0.789   6.838  0.2458  0.2392  2.0121
  167SAPE   C2618830   5.683   0.607   6.936 -1.0193  0.4354 -0.3850
  167SAPE   H6R18831   5.738   0.644   7.023 -1.2782  0.6242 -0.2968
  167SAPE   C2718832   5.627   0.464   6.943  0.2525  0.2706  0.5752
  167SAPE   H7R18833   5.704   0.389   6.916  0.2973  0.7807 -0.8291
  167SAPE   H7S18834   5.554   0.453   6.860  1.8098  0.8033 -0.9227
  167SAPE   C2818835   5.575   0.432   7.077 -0.2624 -0.6392  0.2192
  167SAPE   H8R18836   5.492   0.499   7.104 -0.1489 -1.1482  1.9473
  167SAPE   C2918837   5.615   0.340   7.174  1.2669  0.3390 -0.6037
  167SAPE   H9R18838   5.562   0.339   7.270 -0.8499  1.1523 -1.6812
  167SAPE  C21018839   5.721   0.238   7.168 -0.1675  0.2850 -0.1117
  167SAPE  H10R18840   5.715   0.162   7.087 -1.1060  0.4763 -0.2320
  167SAPE  H10S18841   5.704   0.178   7.260  3.7066 -0.1040  0.5515
  167SAPE  C21118842   5.862   0.307   7.181  0.5392  0.3271  0.7428
  167SAPE  H11R18843   5.881   0.381   7.102 -1.1974  0.2926  0.2448
  167SAPE  C21218844   5.953   0.305   7.280  0.3119 -0.4395  0.3458
  167SAPE  H12R18845   6.050   0.356   7.268  0.6269 -0.1878  3.2495
  167SAPE  C21318846   5.942   0.244   7.416  0.0357 -0.0734 -0.0716
  167SAPE  H13R18847   5.965   0.136   7.406 -1.0128 -0.1401 -2.6133
  167SAPE  H13S18848   5.835   0.234   7.441  0.2948 -2.7545  0.2341
  167SAPE  C21418849   6.023   0.301   7.532  0.8109  0.4453 -0.1871
  167SAPE  H14R18850   6.105   0.238   7.569 -0.1034 -1.2706 -0.9804
  167SAPE  C21518851   6.005   0.424   7.595  0.2417 -0.3126  0.5355
  167SAPE  H15R18852   6.071   0.454   7.677 -1.3971  0.5986  1.5528
  167SAPE  C21618853   5.895   0.519   7.573 -0.4223  0.1995  0.5900
  167SAPE  H16R18854   5.854   0.507   7.470  1.0671 -1.0569  0.1149
  167SAPE  H16S18855   5.929   0.624   7.562  0.3279 -0.1934 -1.1598
  167SAPE  C21718856   5.777   0.502   7.667 -1.1538  0.3235 -0.6837
  167SAPE  H17R18857   5.745   0.395   7.671  1.2614 -0.4459  0.2470
  167SAPE  H17S18858   5.687   0.562   7.643 -1.3052  0.7638  0.8948
  167SAPE  C21818859   5.832   0.521   7.817 -0.1527  0.2992  0.1000
  167SAPE  H18R18860   5.892   0.613   7.832  1.7184 -0.3111 -2.7734
  167SAPE  H18S18861   5.903   0.437   7.836 -1.4074 -0.5880  1.0593
  167SAPE  C21918862   5.726   0.538   7.924 -0.5448  0.3099  0.3378
  167SAPE  H19R18863   5.672   0.442   7.917  0.1241 -0.0321 -0.2404
  167SAPE  H19S18864   5.655   0.623   7.917 -0.5437  0.7077  3.4785
  167SAPE  C22018865   5.787   0.548   8.063  0.2105  0.3651  0.4565
  167SAPE  H20R18866   5.819   0.652   8.088 -1.0516  0.4809  1.6890
  167SAPE  H20S18867   5.884   0.493   8.071 -0.1016 -0.2562  0.0317
  167SAPE  H20T18868   5.713   0.515   8.139 -0.0431 -0.9435 -0.3340
  167SAPE   C3318869   4.894   1.154   6.467  0.8456  0.3594  0.1283
  167SAPE   H3X18870   4.841   1.065   6.427  0.4213 -0.5702  2.5495
  167SAPE   H3Y18871   4.850   1.244   6.419 -3.0409 -1.6436 -0.4378
  167SAPE   C3418872   4.860   1.152   6.617 -0.4719  0.1027 -0.3505
  167SAPE   H4X18873   4.911   1.069   6.670  1.6750  2.0913  0.9107
  167SAPE   H4Y18874   4.750   1.147   6.627 -0.2095 -0.8530  3.4240
  167SAPE   C3518875   4.893   1.291   6.678 -0.4203  0.3047  0.1638
  167SAPE   H5X18876   4.807   1.357   6.654  1.0638  2.3697  0.2428
  167SAPE   H5Y18877   4.974   1.342   6.623 -1.1764 -0.7242 -2.0183
  167SAPE   C3618878   4.938   1.296   6.824  0.3641 -0.5425  0.0634
  167SAPE   H6X18879   4.967   1.401   6.847  1.3294 -0.4178 -1.5725
  167SAPE   H6Y18880   5.029   1.233   6.837  1.0670  0.5539  0.5435
  167SAPE   C3718881   4.825   1.251   6.918 -0.3943  0.7524 -0.1698
  167SAPE   H7X18882   4.756   1.175   6.876  0.5895 -1.0237  1.2790
  167SAPE   H7Y18883   4.772   1.346   6.941 -1.0612 -0.1185  2.1891
  167SAPE   C3818884   4.869   1.209   7.059 -0.1029 -0.0529  0.0189
  167SAPE   H8X18885   4.979   1.225   7.066  0.4274 -2.5302 -1.4294
  167SAPE   H8Y18886   4.859   1.099   7.069  1.0478 -0.6343 -3.6501
  167SAPE   C3918887   4.816   1.295   7.178 -0.1972  0.2132 -0.2338
  167SAPE   H9X18888   4.705   1.306   7.174 -0.0444  1.6359 -1.2699
  167SAPE   H9Y18889   4.846   1.401   7.165  1.7697 -0.4276 -1.2661
  167SAPE  C31018890   4.854   1.237   7.310  0.1760  0.0490 -0.1667
  167SAPE  H10X18891   4.964   1.224   7.311  0.0617 -1.3940 -1.9975
  167SAPE  H10Y18892   4.805   1.137   7.308 -0.6654  0.4388  0.3364
  167SAPE  C31118893   4.802   1.319   7.425  0.4309 -0.5269  0.6779
  167SAPE  H11X18894   4.692   1.306   7.425  0.5369 -1.6592 -0.1686
  167SAPE  H11Y18895   4.815   1.428   7.407 -0.5468 -0.1541  2.1273
  167SAPE  C31218896   4.865   1.300   7.564  0.3817 -0.0286  0.1230
  167SAPE  H12X18897   4.961   1.356   7.569 -0.1024  0.8916 -0.5867
  167SAPE  H12Y18898   4.881   1.192   7.580  0.7693  0.0834  0.5272
  167SAPE  C31318899   4.761   1.346   7.672 -0.7871  0.0881  0.3132
  167SAPE  H13X18900   4.799   1.323   7.774  2.9446 -0.5382 -1.0551
  167SAPE  H13Y18901   4.674   1.278   7.663 -1.1067  0.2786  1.6742
  167SAPE  C31418902   4.710   1.488   7.657  0.7235 -0.3608  0.4246
  167SAPE  H14X18903   4.630   1.492   7.581 -0.4580 -0.3771  1.6224
  167SAPE  H14Y18904   4.797   1.548   7.622  2.2002 -2.8040 -0.4027
  167SAPE  C31518905   4.671   1.550   7.793 -0.9224  0.0956 -0.0719
  167SAPE  H15X18906   4.634   1.466   7.855 -1.3739 -0.5670 -1.1992
  167SAPE  H15Y18907   4.584   1.616   7.776 -2.2021 -1.2423  1.0176
  167SAPE  C31618908   4.788   1.624   7.854  0.4480  0.9347 -0.5370
  167SAPE  H16X18909   4.819   1.713   7.794 -2.4740  1.6411 -1.1540
  167SAPE  H16Y18910   4.864   1.544   7.864  0.1981  0.8921  1.3134
  167SAPE  C31718911   4.750   1.683   7.992 -0.1440 -0.0141 -0.3025
  167SAPE  H17X18912   4.835   1.728   8.047 -0.3836  2.4589 -1.8180
  167SAPE  H17Y18913   4.707   1.602   8.056 -0.8237 -1.0597 -2.0166
  167SAPE  C31818914   4.642   1.791   7.979 -0.0945 -0.8715  0.3146
  167SAPE  H18X18915   4.629   1.831   8.082  0.1159 -0.6525  0.2567
  167SAPE  H18Y18916   4.549   1.750   7.935  0.1304  0.2003 -1.1911
  167SAPE  H18Z18917   4.679   1.873   7.915 -1.3873 -1.1262 -0.7966
  168SAPE     N18918   1.047   2.642   6.184 -0.0117  0.3223  0.0901
  168SAPE   HN118919   1.130   2.663   6.124  0.2745 -2.1276 -0.4842
  168SAPE   HN218920   1.070   2.543   6.206  1.5490  0.4275 -0.8868
  168SAPE   HN318921   0.971   2.649   6.115 -1.5630 -0.3954  1.6441
  168SAPE   C1218922   1.028   2.732   6.304 -0.2374 -0.4241  0.4220
  168SAPE  H12A18923   1.004   2.835   6.270  0.8637 -0.0699  0.6702
  168SAPE  H12B18924   1.123   2.726   6.362 -0.2108  1.6299  0.6568
  168SAPE   C1118925   0.919   2.672   6.397  0.7564  0.7405  0.7401
  168SAPE  H11A18926   0.818   2.682   6.352  0.3860 -2.8429  0.4617
  168SAPE  H11B18927   0.926   2.729   6.492  2.1055 -1.0811  1.7980
  168SAPE     P18928   1.040   2.496   6.538 -0.1275  0.7488 -0.2326
  168SAPE   O1318929   1.183   2.497   6.501 -0.2071  0.0451  0.3143
  168SAPE   O1418930   1.003   2.571   6.662  0.5929 -0.0384  0.1632
  168SAPE   O1218931   0.938   2.531   6.421 -0.5900  0.0292 -0.3058
  168SAPE   O1118932   0.987   2.348   6.563  0.3281 -0.2324  0.4237
  168SAPE    C118933   1.071   2.234   6.579  0.0713 -0.1453  0.5158
  168SAPE    HA18934   1.016   2.146   6.540 -0.7066  0.3585  0.4656
  168SAPE    HB18935   1.160   2.232   6.512 -0.4902 -0.9756 -0.2282
  168SAPE    C218936   1.127   2.208   6.728  0.4771 -0.1812  0.0537
  168SAPE    HS18937   1.181   2.111   6.718  0.6764  0.1179 -2.1554
  168SAPE   O2118938   1.020   2.198   6.819  0.0458 -0.4952 -0.3326
  168SAPE   C2118939   0.965   2.076   6.834  0.4809 -0.1194  0.0768
  168SAPE   O2218940   0.991   1.978   6.768 -0.2464  0.0871 -0.4072
  168SAPE   C2218941   0.881   2.075   6.964 -0.3280  0.1486  0.2655
  168SAPE   H2R18942   0.896   2.174   7.011 -1.1456  1.0728 -1.3520
  168SAPE   H2S18943   0.773   2.069   6.938 -0.9197  0.4886  2.4719
  168SAPE    C318944   1.226   2.316   6.766  0.0440  0.0919 -0.2842
  168SAPE    HX18945   1.155   2.398   6.789 -0.3845 -0.7352  1.5609
  168SAPE    HY18946   1.290   2.355   6.684  0.7132 -0.4522 -0.0311
  168SAPE   O3118947   1.306   2.270   6.882  0.0563  0.0091  0.6871
  168SAPE   C3118948   1.349   2.380   6.951 -0.3084  0.2843 -0.2218
  168SAPE   O3218949   1.322   2.490   6.919  0.1154 -0.1862  0.2526
  168SAPE   C3218950   1.455   2.340   7.054  0.7056  0.2399  0.4199
  168SAPE   H2X18951   1.554   2.377   7.021  0.5120  0.7957  0.4612
  168SAPE   H2Y18952   1.457   2.228   7.051  2.8384  0.2446 -0.1609
  168SAPE   C2318953   0.905   1.946   7.043  0.5352 -0.4690  0.1372
  168SAPE   H3R18954   1.011   1.927   7.067  0.8174  1.2672  0.3433
  168SAPE   H3S18955   0.865   1.859   6.985 -0.6600  0.4189 -0.4114
  168SAPE   C2418956   0.829   1.948   7.180  0.4488 -0.1068  0.3079
  168SAPE   H4R18957   0.839   1.851   7.234 -0.3791  0.1842  1.0097
  168SAPE   H4S18958   0.722   1.960   7.150  0.1764  0.8567  1.5829
  168SAPE   C2518959   0.872   2.062   7.265 -0.3474  0.1601  0.1675
  168SAPE   H5R18960   0.978   2.081   7.285 -0.3178 -0.9268  1.1619
  168SAPE   C2618961   0.794   2.160   7.308  0.7177  0.0784 -0.0128
  168SAPE   H6R18962   0.842   2.243   7.361  0.0462 -0.4449  1.4687
  168SAPE   C2718963   0.644   2.180   7.281 -0.2217 -0.3359  0.1939
  168SAPE   H7R18964   0.571   2.108   7.325 -2.3598  0.0325 -2.5302
  168SAPE   H7S18965   0.637   2.191   7.171  0.4959 -0.8924  0.0826
  168SAPE   C2818966   0.614   2.320   7.329 -0.0415  0.0224  0.1251
  168SAPE   H8R18967   0.643   2.403   7.263  2.0721  0.1737  1.1533
  168SAPE   C2918968   0.564   2.357   7.445  0.1825 -0.5968  0.4392
  168SAPE   H9R18969   0.534   2.461   7.463 -2.8207 -1.4206  0.8190
  168SAPE  C21018970   0.519   2.274   7.562  0.2002  0.4648 -0.0554
  168SAPE  H10R18971   0.466   2.184   7.523 -0.2004  1.2356 -1.3402
  168SAPE  H10S18972   0.451   2.338   7.621 -1.1360 -0.8905 -0.0663
  168SAPE  C21118973   0.633   2.234   7.659 -0.4415  0.2573 -0.0360
  168SAPE  H11R18974   0.728   2.238   7.604  1.9386  1.3751  3.8244
  168SAPE  C21218975   0.635   2.202   7.790 -0.7687 -0.4418  0.3163
  168SAPE  H12R18976   0.730   2.168   7.833  0.8272  1.7131 -1.2511
  168SAPE  C21318977   0.512   2.208   7.876 -0.4674 -0.0419  0.0323
  168SAPE  H13R18978   0.539   2.140   7.959  2.2151  1.4229  0.4662
  168SAPE  H13S18979   0.423   2.182   7.814 -1.1100  0.4875  0.7150
  168SAPE  C21418980   0.482   2.337   7.945 -0.3046 -0.5831 -0.0853
  168SAPE  H14R18981   0.413   2.394   7.880 -0.2312 -1.2996 -0.8163
  168SAPE  C21518982   0.520   2.379   8.068 -0.3236  0.5826 -0.5740
  168SAPE  H15R18983   0.498   2.475   8.118  0.0893 -0.6790  2.2500
  168SAPE  C21618984   0.602   2.293   8.169 -0.3716 -0.5297 -0.5679
  168SAPE  H16R18985   0.646   2.201   8.125 -2.5775 -1.4196 -1.0331
  168SAPE  H16S18986   0.534   2.265   8.252 -0.6292  0.8784 -0.2866
  168SAPE  C21718987   0.718   2.384   8.226  0.2688  0.1564  0.2671
  168SAPE  H17R18988   0.691   2.480   8.274  0.7842 -0.5486  2.0762
  168SAPE  H17S18989   0.788   2.399   8.141  0.5440 -2.3090 -0.0050
  168SAPE  C21818990   0.803   2.312   8.335 -0.0052  0.5581  0.6413
  168SAPE  H18R18991   0.850   2.226   8.283  0.1177  1.1945 -0.3160
  168SAPE  H18S18992   0.745   2.274   8.422  1.0910  2.9883  2.5611
  168SAPE  C21918993   0.910   2.407   8.397 -0.4503  0.4227  0.5157
  168SAPE  H19R18994   0.860   2.454   8.484 -1.4425 -2.0384  1.3809
  168SAPE  H19S18995   0.950   2.477   8.320  1.8299 -0.5217  0.7535
  168SAPE  C22018996   1.031   2.331   8.441 -0.3175  0.5804 -0.1104
  168SAPE  H20R18997   1.079   2.281   8.354  0.2495 -0.5937  0.8423
  168SAPE  H20S18998   0.999   2.251   8.512  0.5669  1.8584  1.8173
  168SAPE  H20T18999   1.109   2.395   8.487 -1.4740  2.6721 -0.9285
  168SAPE   C3319000   1.431   2.390   7.197  0.3271 -0.1281 -0.3836
  168SAPE   H3X19001   1.325   2.379   7.228  0.1680 -0.2106 -0.9469
  168SAPE   H3Y19002   1.464   2.495   7.213  1.1807 -0.3285 -0.7771
  168SAPE   C3419003   1.514   2.300   7.299  0.6742 -0.1121 -0.2123
  168SAPE   H4X19004   1.616   2.296   7.256  1.4527 -0.9954  1.6227
  168SAPE   H4Y19005   1.476   2.196   7.288  1.2413 -0.2595 -0.9010
  168SAPE   C3519006   1.522   2.349   7.443 -0.0494  0.0726 -0.8098
  168SAPE   H5X19007   1.421   2.372   7.481 -0.1975 -0.1273 -1.0804
  168SAPE   H5Y19008   1.577   2.445   7.435 -0.6247  0.6702  1.6193
  168SAPE   C3619009   1.576   2.236   7.528 -0.2514 -0.0745 -0.0234
  168SAPE   H6X19010   1.669   2.209   7.472 -0.3368 -2.3619  0.8161
  168SAPE   H6Y19011   1.502   2.153   7.525  0.2016 -0.5679  1.5834
  168SAPE   C3719012   1.586   2.268   7.680 -0.2003 -0.4373 -0.1206
  168SAPE   H7X19013   1.610   2.171   7.728  0.9758  0.0351  0.2954
  168SAPE   H7Y19014   1.486   2.303   7.714 -0.1584 -1.6680  1.3533
  168SAPE   C3819015   1.707   2.361   7.711  0.4490  0.3703 -0.4309
  168SAPE   H8X19016   1.678   2.463   7.677  0.9584  0.2354 -1.2955
  168SAPE   H8Y19017   1.795   2.323   7.656  0.5408 -0.0143 -0.0273
  168SAPE   C3919018   1.742   2.355   7.854  0.4590 -0.5309 -0.5778
  168SAPE   H9X19019   1.764   2.252   7.890 -2.6854 -1.5245 -1.1728
  168SAPE   H9Y19020   1.656   2.389   7.916 -0.6461 -1.5773 -1.4717
  168SAPE  C31019021   1.861   2.440   7.889  0.4048 -0.3081 -0.4100
  168SAPE  H10X19022   1.839   2.546   7.862  2.2879  1.1011  2.9394
  168SAPE  H10Y19023   1.944   2.396   7.830  0.8550 -1.6784  1.1703
  168SAPE  C31119024   1.905   2.437   8.037  0.3867 -0.2247 -0.2617
  168SAPE  H11X19025   1.928   2.332   8.064  1.7094  0.9279  3.8567
  168SAPE  H11Y19026   1.829   2.473   8.110  0.6967  0.0553 -0.0725
  168SAPE  C31219027   2.024   2.520   8.064 -0.3429 -0.1693  0.0491
  168SAPE  H12X19028   2.017   2.628   8.040 -0.9778 -0.3414 -0.5962
  168SAPE  H12Y19029   2.107   2.482   8.000  0.2048  0.1768  0.5468
  168SAPE  C31319030   2.064   2.496   8.210  0.0376 -0.1083  0.0985
  168SAPE  H13X19031   1.969   2.496   8.269 -1.3878  2.6027 -1.9558
  168SAPE  H13Y19032   2.131   2.579   8.241  0.0409  0.3992 -1.2335
  168SAPE  C31419033   2.148   2.357   8.228 -0.3748 -0.1847  0.8253
  168SAPE  H14X19034   2.108   2.274   8.166 -2.3594  0.6848  0.8700
  168SAPE  H14Y19035   2.116   2.316   8.326  1.7749 -0.3735  1.5020
  168SAPE  C31519036   2.302   2.388   8.232  0.3075 -0.2228  0.2838
  168SAPE  H15X19037   2.321   2.475   8.299 -1.4947  1.5979 -1.4322
  168SAPE  H15Y19038   2.325   2.411   8.126  2.7974 -2.7834  0.1435
  168SAPE  C31619039   2.385   2.277   8.294  0.6876  0.1600 -0.4092
  168SAPE  H16X19040   2.492   2.303   8.286  1.1995 -1.7229 -0.2855
  168SAPE  H16Y19041   2.376   2.178   8.244  1.7009 -0.5028  0.6786
  168SAPE  C31719042   2.373   2.253   8.445 -0.4592 -0.2263 -0.3373
  168SAPE  H17X19043   2.271   2.221   8.475 -0.8157 -0.1890 -1.4858
  168SAPE  H17Y19044   2.416   2.339   8.501  1.2730  0.2580 -2.2825
  168SAPE  C31819045   2.470   2.135   8.483 -0.6467 -0.6017 -0.0354
  168SAPE  H18X19046   2.578   2.160   8.476 -0.8841  0.3645 -0.4650
  168SAPE  H18Y19047   2.454   2.062   8.401 -0.2754  1.5145 -2.1346
  168SAPE  H18Z19048   2.441   2.097   8.583  0.9598 -0.9435  0.3221
  169SAPE     N19049   4.515   5.098   6.121  0.0617 -0.1136  0.1649
  169SAPE   HN119050   4.580   5.040   6.064 -0.7347 -0.5376 -0.3239
  169SAPE   HN219051   4.423   5.050   6.109  0.2339 -0.3620 -0.1957
  169SAPE   HN319052   4.505   5.196   6.088  1.3313 -0.0076  0.0381
  169SAPE   C1219053   4.552   5.112   6.267  0.5227  0.1715 -0.0698
  169SAPE  H12A19054   4.456   5.118   6.324  0.6913  1.8508  0.1073
  169SAPE  H12B19055   4.599   5.213   6.262 -0.4440  0.7911  2.1325
  169SAPE   C1119056   4.647   5.012   6.316 -0.0033 -0.5030  0.3282
  169SAPE  H11A19057   4.669   5.046   6.420 -2.8547 -0.7865  1.1227
  169SAPE  H11B19058   4.740   5.033   6.259  0.7079  0.8925  1.9049
  169SAPE     P19059   4.506   4.810   6.405 -0.1078  0.4506 -0.2374
  169SAPE   O1319060   4.416   4.911   6.466  0.0093 -0.0688 -0.2842
  169SAPE   O1419061   4.433   4.700   6.337 -0.4546  0.4148  0.3283
  169SAPE   O1219062   4.605   4.881   6.298  0.8495 -0.1462 -0.2116
  169SAPE   O1119063   4.617   4.770   6.510  0.2301  0.3234  0.2184
  169SAPE    C119064   4.741   4.694   6.498  0.9097 -0.6970 -0.1572
  169SAPE    HA19065   4.773   4.700   6.392 -1.5124  2.1061 -0.8665
  169SAPE    HB19066   4.808   4.735   6.577 -2.2916 -0.6343  2.7968
  169SAPE    C219067   4.713   4.547   6.523  0.2895  0.0601  0.7141
  169SAPE    HS19068   4.641   4.516   6.444  1.4877  0.3830 -0.5496
  169SAPE   O2119069   4.646   4.525   6.647  0.2605 -0.0944  0.5264
  169SAPE   C2119070   4.589   4.413   6.666  0.2511  0.2301 -1.0057
  169SAPE   O2219071   4.573   4.323   6.587  0.2049  0.2913 -0.6081
  169SAPE   C2219072   4.523   4.400   6.803  0.6628 -1.0905  0.2170
  169SAPE   H2R19073   4.477   4.299   6.804 -0.6759 -0.5893 -2.4446
  169SAPE   H2S19074   4.598   4.400   6.886 -0.6558 -0.7220  1.4517
  169SAPE    C319075   4.836   4.463   6.505  0.1244  0.0993 -0.4768
  169SAPE    HX19076   4.886   4.467   6.406 -2.7939  2.1506 -2.0213
  169SAPE    HY19077   4.812   4.355   6.517  1.8704 -0.3244 -0.5524
  169SAPE   O3119078   4.939   4.514   6.604 -0.1121 -0.0478  1.1934
  169SAPE   C3119079   4.936   4.463   6.724  0.3221 -0.3699 -0.2444
  169SAPE   O3219080   4.861   4.375   6.765 -0.1365  0.4144 -0.1310
  169SAPE   C3219081   5.039   4.544   6.817  0.6831 -0.3021  0.0212
  169SAPE   H2X19082   5.067   4.638   6.766 -0.4520  1.3127  2.1823
  169SAPE   H2Y19083   5.128   4.484   6.846  2.0137  2.2292  1.5089
  169SAPE   C2319084   4.417   4.509   6.826 -0.1710 -0.1184  0.9896
  169SAPE   H3R19085   4.323   4.496   6.767 -0.3919 -0.2570  1.3691
  169SAPE   H3S19086   4.454   4.609   6.796 -1.7456  0.1249 -0.3296
  169SAPE   C2419087   4.373   4.526   6.968  0.0561 -0.0775  0.3120
  169SAPE   H4R19088   4.331   4.430   7.004 -2.8729  0.7533 -0.5832
  169SAPE   H4S19089   4.279   4.584   6.959  0.5653  1.3878  3.2908
  169SAPE   C2519090   4.469   4.603   7.050  0.5923 -0.0114 -0.6937
  169SAPE   H5R19091   4.495   4.701   7.008 -0.3574  0.0773 -1.0860
  169SAPE   C2619092   4.504   4.560   7.171 -0.2501  0.6215 -0.4960
  169SAPE   H6R19093   4.582   4.615   7.227  1.1856 -2.6531  1.0110
  169SAPE   C2719094   4.467   4.434   7.243  0.5489  0.2066  0.4192
  169SAPE   H7R19095   4.553   4.387   7.296  1.9840  0.0263 -1.9421
  169SAPE   H7S19096   4.445   4.362   7.161 -0.1157  1.2818 -0.3731
  169SAPE   C2819097   4.348   4.455   7.329  0.1274  0.2225 -0.2310
  169SAPE   H8R19098   4.263   4.507   7.283 -0.9086 -0.7519  0.5284
  169SAPE   C2919099   4.348   4.446   7.464  0.6683 -0.2098 -0.5329
  169SAPE   H9R19100   4.250   4.461   7.513  0.6635  0.2954 -0.6896
  169SAPE  C21019101   4.457   4.396   7.556 -0.2436 -0.0822 -0.4447
  169SAPE  H10R19102   4.533   4.345   7.494 -1.0116 -0.5990 -0.9727
  169SAPE  H10S19103   4.425   4.321   7.631  3.1740 -0.5735  0.6851
  169SAPE  C21119104   4.519   4.517   7.623  0.4667 -0.6137  0.1439
  169SAPE  H11R19105   4.539   4.592   7.545 -2.6478 -1.2328 -1.4145
  169SAPE  C21219106   4.551   4.529   7.749 -0.3795 -0.1493 -1.2045
  169SAPE  H12R19107   4.597   4.627   7.768  1.4456 -0.5565 -3.1497
  169SAPE  C21319108   4.538   4.441   7.868 -0.0894  0.1657  0.0739
  169SAPE  H13R19109   4.636   4.422   7.916  0.1205 -1.2695 -0.8462
  169SAPE  H13S19110   4.530   4.337   7.829  0.4524 -0.4107  1.4371
  169SAPE  C21419111   4.426   4.465   7.963 -0.1149 -0.2804  0.0292
  169SAPE  H14R19112   4.325   4.465   7.921 -1.0337 -2.8013  1.9703
  169SAPE  C21519113   4.432   4.495   8.093 -0.3699 -0.8836  0.3765
  169SAPE  H15R19114   4.337   4.523   8.142 -0.4042  0.8672 -0.6095
  169SAPE  C21619115   4.554   4.488   8.179  0.1476  0.1881 -0.4732
  169SAPE  H16R19116   4.626   4.572   8.166  0.9664  0.4146  3.8564
  169SAPE  H16S19117   4.612   4.394   8.171 -0.7327 -0.6506  1.9509
  169SAPE  C21719118   4.505   4.508   8.323  0.1388  0.3589  0.4549
  169SAPE  H17R19119   4.446   4.418   8.349  0.5033 -0.1913 -0.5574
  169SAPE  H17S19120   4.443   4.600   8.320 -1.1856 -0.5238  0.2059
  169SAPE  C21819121   4.622   4.533   8.421  0.5363 -0.5099 -0.1088
  169SAPE  H18R19122   4.692   4.610   8.382  0.7185 -0.7708 -0.2945
  169SAPE  H18S19123   4.681   4.439   8.421 -0.2956 -1.0458 -0.4348
  169SAPE  C21919124   4.581   4.575   8.562 -0.5115 -0.1903 -0.1924
  169SAPE  H19R19125   4.498   4.515   8.604  0.1928 -1.4986 -0.6145
  169SAPE  H19S19126   4.544   4.680   8.549 -1.4457 -0.3729  0.8533
  169SAPE  C22019127   4.701   4.580   8.655  0.5215  0.0862  0.1269
  169SAPE  H20R19128   4.782   4.645   8.616  0.1237  0.5763  0.1060
  169SAPE  H20S19129   4.738   4.476   8.671  1.6753  0.5115  0.3279
  169SAPE  H20T19130   4.664   4.617   8.753  0.3084  0.1697  0.0142
  169SAPE   C3319131   4.967   4.606   6.940  0.0856 -0.0088  0.3538
  169SAPE   H3X19132   4.898   4.537   6.993  2.2303 -2.6540 -0.1089
  169SAPE   H3Y19133   4.895   4.688   6.915  2.6648  2.3613  0.1725
  169SAPE   C3419134   5.063   4.664   7.039  0.1313  0.1984 -0.0511
  169SAPE   H4X19135   5.126   4.741   6.989  0.2353 -0.1291 -0.4272
  169SAPE   H4Y19136   5.136   4.588   7.076 -1.8326 -1.8402 -0.1233
  169SAPE   C3519137   4.994   4.723   7.162 -0.6585 -0.7929  0.2503
  169SAPE   H5X19138   4.935   4.641   7.209  1.4059 -2.7874 -0.4854
  169SAPE   H5Y19139   4.936   4.810   7.125 -1.8934 -0.4828  2.6861
  169SAPE   C3619140   5.092   4.768   7.271 -0.5142 -0.6947 -0.3762
  169SAPE   H6X19141   5.162   4.686   7.299  0.7898  0.8538  1.1195
  169SAPE   H6Y19142   5.033   4.799   7.361 -0.8025 -1.1052 -0.4201
  169SAPE   C3719143   5.184   4.884   7.229 -1.0827  0.1552  0.6819
  169SAPE   H7X19144   5.119   4.966   7.191 -0.7178 -0.5926 -1.7772
  169SAPE   H7Y19145   5.246   4.838   7.149  0.4102 -2.0263  2.9306
  169SAPE   C3819146   5.274   4.940   7.342  0.1805  0.6823  0.1177
  169SAPE   H8X19147   5.323   4.851   7.388 -0.7510  0.7156  1.2012
  169SAPE   H8Y19148   5.209   4.989   7.417  1.2929 -0.0631  1.6225
  169SAPE   C3919149   5.386   5.034   7.291  0.3289  0.3324  0.6383
  169SAPE   H9X19150   5.357   5.141   7.287  0.6831  0.4019 -0.6547
  169SAPE   H9Y19151   5.412   5.002   7.188 -1.6754 -1.7006  0.7063
  169SAPE  C31019152   5.522   5.017   7.364 -0.0024  0.1985 -0.2946
  169SAPE  H10X19153   5.603   5.075   7.314  0.9515  0.5019  1.5103
  169SAPE  H10Y19154   5.558   4.912   7.353  0.6407  0.2521  1.1991
  169SAPE  C31119155   5.526   5.059   7.515  0.4676  0.1894 -0.8999
  169SAPE  H11X19156   5.436   5.009   7.556  0.4129 -0.7166 -2.0715
  169SAPE  H11Y19157   5.513   5.169   7.520 -1.5064 -0.0630  0.5984
  169SAPE  C31219158   5.647   5.003   7.580  1.1795  0.1248 -0.4660
  169SAPE  H12X19159   5.733   5.054   7.532  1.0138  1.1051  0.2375
  169SAPE  H12Y19160   5.649   4.895   7.556  1.9706  0.8724 -4.5068
  169SAPE  C31319161   5.648   5.005   7.733  0.3820 -0.6949 -0.4490
  169SAPE  H13X19162   5.541   5.002   7.763  1.1926 -4.0950  2.7811
  169SAPE  H13Y19163   5.692   5.101   7.769  1.4548 -0.9600 -1.0117
  169SAPE  C31419164   5.719   4.882   7.789  0.4703 -0.2715  0.2604
  169SAPE  H14X19165   5.824   4.876   7.753 -0.5712 -0.2359 -3.2200
  169SAPE  H14Y19166   5.672   4.787   7.754 -1.1326  0.9500 -1.0098
  169SAPE  C31519167   5.708   4.868   7.944 -0.2935  0.2761 -0.1142
  169SAPE  H15X19168   5.735   4.764   7.969 -2.5761 -0.4496 -0.4022
  169SAPE  H15Y19169   5.602   4.892   7.968 -0.3889 -1.7976  1.8463
  169SAPE  C31619170   5.803   4.970   8.018 -0.5032 -0.4372 -0.3259
  169SAPE  H16X19171   5.788   5.075   7.986 -0.4893  0.4707  2.4298
  169SAPE  H16Y19172   5.907   4.950   7.987 -0.3147  0.0878 -0.0396
  169SAPE  C31719173   5.819   4.954   8.170 -0.4467 -0.0626 -0.1968
  169SAPE  H17X19174   5.926   4.966   8.194 -0.3712 -1.7578  0.4828
  169SAPE  H17Y19175   5.802   4.852   8.210  1.6952 -0.4624 -0.1963
  169SAPE  C31819176   5.726   5.050   8.249 -0.1817  0.0346 -0.5184
  169SAPE  H18X19177   5.617   5.033   8.240 -0.2724 -1.8389  2.6124
  169SAPE  H18Y19178   5.742   5.155   8.215  1.0355  0.6687  1.7313
  169SAPE  H18Z19179   5.745   5.052   8.359 -2.2828  1.4692 -0.1294
  170SAPE     N19180   0.135   1.305   6.154  0.3187  0.0391 -0.2994
  170SAPE   HN119181   0.115   1.398   6.112  1.8645  0.6395  0.1997
  170SAPE   HN219182   0.071   1.293   6.235 -0.5238 -1.8950 -1.1924
  170SAPE   HN319183   0.237   1.319   6.173  0.3524 -1.2764  0.6451
  170SAPE   C1219184   0.107   1.183   6.066 -0.0959 -0.2507  0.4724
  170SAPE  H12A19185   0.125   1.217   5.961 -1.1404  1.2223  0.7378
  170SAPE  H12B19186  -0.002   1.179   6.083 -0.1434 -0.6674  0.1002
  170SAPE   C1119187   0.213   1.076   6.104 -0.0564  0.1465 -0.2506
  170SAPE  H11A19188   0.311   1.129   6.099  0.2327 -0.4274 -0.7441
  170SAPE  H11B19189   0.220   0.997   6.027  3.0077 -1.0492  1.0825
  170SAPE     P19190   0.210   0.873   6.272 -0.1578  0.1507 -0.0440
  170SAPE   O1319191   0.072   0.821   6.274 -0.1911  0.0178  0.2622
  170SAPE   O1419192   0.304   0.800   6.180 -0.4114 -0.4363  0.1977
  170SAPE   O1219193   0.203   1.022   6.237  0.0511 -0.4375 -0.2340
  170SAPE   O1119194   0.263   0.863   6.416 -0.5105  0.4443  0.5455
  170SAPE    C119195   0.202   0.933   6.526  0.7277  0.0313 -0.0088
  170SAPE    HA19196   0.223   1.042   6.525  2.1136 -0.0645  3.8347
  170SAPE    HB19197   0.092   0.915   6.532  1.0911 -2.1638  1.6257
  170SAPE    C219198   0.265   0.889   6.665  0.3870 -0.2307  0.5812
  170SAPE    HS19199   0.248   0.781   6.685  0.4272 -0.0388  1.6879
  170SAPE   O2119200   0.222   0.973   6.774 -0.0068 -0.6314  0.0904
  170SAPE   C2119201   0.120   0.928   6.840 -0.1017 -0.2303 -0.3645
  170SAPE   O2219202   0.048   0.843   6.791 -0.4373 -0.3026  0.4001
  170SAPE   C2219203   0.118   0.993   6.984  0.3843 -0.4512  1.5279
  170SAPE   H2R19204   0.212   0.956   7.030  0.8969 -1.1398 -0.0218
  170SAPE   H2S19205   0.119   1.102   6.960 -2.1641 -0.9953 -1.8575
  170SAPE    C319206   0.421   0.912   6.658  0.3409 -0.0164  0.2627
  170SAPE    HX19207   0.427   1.008   6.601 -2.4501  0.4906  0.7125
  170SAPE    HY19208   0.455   0.831   6.590 -1.0595 -0.6849  0.3226
  170SAPE   O3119209   0.491   0.931   6.778  0.7195  0.3812 -0.6339
  170SAPE   C3119210   0.530   0.822   6.841  0.0910 -0.7765 -0.5067
  170SAPE   O3219211   0.526   0.706   6.801  0.2634 -0.3101  0.2917
  170SAPE   C3219212   0.570   0.865   6.979  0.0427  0.3121  0.0966
  170SAPE   H2X19213   0.596   0.772   7.033  1.9651  1.3304  1.0705
  170SAPE   H2Y19214   0.486   0.911   7.036 -0.2933 -2.4008  1.9697
  170SAPE   C2319215   0.001   0.941   7.072  0.1353  0.2656 -0.1043
  170SAPE   H3R19216  -0.083   0.925   7.001 -0.3165 -0.2342  0.5363
  170SAPE   H3S19217  -0.031   1.015   7.149 -0.9870 -0.6185  0.3121
  170SAPE   C2419218   0.034   0.810   7.141  0.2175 -0.1767 -0.2716
  170SAPE   H4R19219   0.118   0.845   7.204 -1.8085  2.9746  0.9185
  170SAPE   H4S19220   0.078   0.736   7.071  1.6163  0.7861 -0.4535
  170SAPE   C2519221  -0.074   0.738   7.209  0.3231  0.8314 -1.1385
  170SAPE   H5R19222  -0.150   0.695   7.141  0.3750 -0.3255 -0.4894
  170SAPE   C2619223  -0.100   0.725   7.340  0.4043 -0.8529  0.0255
  170SAPE   H6R19224  -0.184   0.670   7.385 -0.1990  0.0097 -0.0117
  170SAPE   C2719225  -0.011   0.788   7.444  0.0426 -0.4547 -0.3541
  170SAPE   H7R19226  -0.074   0.864   7.495  0.3574 -0.6009  0.2635
  170SAPE   H7S19227   0.066   0.858   7.405 -0.0113 -0.6970 -0.9073
  170SAPE   C2819228   0.071   0.687   7.529 -0.8787  0.2207 -0.3607
  170SAPE   H8R19229   0.128   0.610   7.474 -1.5853 -2.3739  2.3065
  170SAPE   C2919230   0.096   0.688   7.658  0.3733 -0.2622 -0.7007
  170SAPE   H9R19231   0.149   0.602   7.701 -0.6862 -0.4263  0.3350
  170SAPE  C21019232   0.052   0.782   7.766  0.4276  0.2663  0.1441
  170SAPE  H10R19233  -0.043   0.741   7.804  1.8168 -1.3350  2.0936
  170SAPE  H10S19234   0.025   0.882   7.725  2.2179 -0.1236 -2.2005
  170SAPE  C21119235   0.146   0.801   7.876 -0.4899  0.1435  0.0471
  170SAPE  H11R19236   0.186   0.903   7.885  0.5938 -0.4166  2.3434
  170SAPE  C21219237   0.180   0.713   7.971 -0.4480 -0.4317 -0.2519
  170SAPE  H12R19238   0.250   0.751   8.047 -0.8112 -1.5959  0.6779
  170SAPE  C21319239   0.122   0.576   7.989  0.0109  0.1321 -0.1337
  170SAPE  H13R19240   0.214   0.517   8.010 -1.0409 -1.1121  1.2335
  170SAPE  H13S19241   0.077   0.532   7.898 -0.4437  0.0566  0.1220
  170SAPE  C21419242   0.038   0.575   8.117 -0.0650  0.1355 -0.1227
  170SAPE  H14R19243  -0.070   0.561   8.101  0.1219 -0.1363 -1.2353
  170SAPE  C21519244   0.087   0.593   8.244 -0.9157  0.3644  0.6170
  170SAPE  H15R19245   0.020   0.588   8.331  0.4487  0.7710  1.7174
  170SAPE  C21619246   0.232   0.615   8.278 -0.4277  0.1568 -0.3459
  170SAPE  H16R19247   0.247   0.721   8.309 -0.2025 -0.1895  0.7696
  170SAPE  H16S19248   0.309   0.599   8.200 -0.8011  1.0317 -0.9090
  170SAPE  C21719249   0.279   0.526   8.394  0.4303 -0.7185  0.3902
  170SAPE  H17R19250   0.233   0.534   8.494  2.7416 -2.4503  1.7069
  170SAPE  H17S19251   0.381   0.568   8.411  0.7761 -1.5661  0.4591
  170SAPE  C21819252   0.288   0.373   8.354 -0.5254  0.6463  0.0891
  170SAPE  H18R19253   0.352   0.376   8.263 -0.7691 -1.6956 -0.2089
  170SAPE  H18S19254   0.191   0.329   8.321 -0.8917 -1.9137  3.9313
  170SAPE  C21919255   0.349   0.288   8.471 -0.1561 -0.5779  0.2389
  170SAPE  H19R19256   0.274   0.294   8.553 -1.4864 -1.6457 -0.8709
  170SAPE  H19S19257   0.442   0.331   8.513 -0.0803 -0.6265  0.1210
  170SAPE  C22019258   0.375   0.146   8.420 -0.4257  0.4561  0.4880
  170SAPE  H20R19259   0.286   0.083   8.399  0.5154  0.0258 -2.7664
  170SAPE  H20S19260   0.430   0.084   8.493 -0.9018  0.8433  1.1835
  170SAPE  H20T19261   0.432   0.148   8.324 -0.5274  0.9856  0.4345
  170SAPE   C3319262   0.700   0.945   6.977  0.0551 -0.3121  0.2858
  170SAPE   H3X19263   0.694   1.045   6.930  1.3375 -0.9823 -1.4187
  170SAPE   H3Y19264   0.775   0.888   6.919  0.8442  0.5228  0.4759
  170SAPE   C3419265   0.756   0.968   7.118  0.3713 -0.5468 -0.0990
  170SAPE   H4X19266   0.857   1.008   7.095  0.9083 -1.2077  1.0130
  170SAPE   H4Y19267   0.760   0.872   7.174 -1.7613  0.8034  2.6030
  170SAPE   C3519268   0.675   1.078   7.191  0.0322 -0.2212  0.1146
  170SAPE   H5X19269   0.568   1.052   7.209 -0.2690 -1.3742 -2.7857
  170SAPE   H5Y19270   0.687   1.173   7.135  2.1679 -0.3223  0.3240
  170SAPE   C3619271   0.740   1.099   7.330 -0.1937 -0.1810  0.3535
  170SAPE   H6X19272   0.850   1.105   7.317 -0.0111  2.0295  2.2517
  170SAPE   H6Y19273   0.718   1.011   7.395 -0.6106 -0.7493 -0.5357
  170SAPE   C3719274   0.697   1.228   7.400  0.3325 -0.3128 -0.2154
  170SAPE   H7X19275   0.595   1.261   7.370  0.9181  1.3711 -0.4282
  170SAPE   H7Y19276   0.758   1.307   7.351  1.5009 -1.4111 -0.5836
  170SAPE   C3819277   0.718   1.226   7.551  0.7744 -0.9356  0.3357
  170SAPE   H8X19278   0.824   1.198   7.569  1.1144  0.7531  1.1697
  170SAPE   H8Y19279   0.652   1.152   7.602 -3.8736  0.8505 -2.4155
  170SAPE   C3919280   0.690   1.370   7.613  0.0019  0.1690 -0.6021
  170SAPE   H9X19281   0.712   1.436   7.526  0.7780 -1.2524 -1.5244
  170SAPE   H9Y19282   0.763   1.396   7.692  0.0658 -0.7549 -0.3370
  170SAPE  C31019283   0.545   1.372   7.673  1.3344 -0.5456  0.8871
  170SAPE  H10X19284   0.516   1.273   7.714 -0.4101 -0.6608 -0.5113
  170SAPE  H10Y19285   0.475   1.372   7.587  1.1542 -0.3758  1.0351
  170SAPE  C31119286   0.496   1.489   7.764  0.5151 -0.4177 -0.1053
  170SAPE  H11X19287   0.387   1.511   7.768  0.6619  0.3963 -0.4686
  170SAPE  H11Y19288   0.550   1.579   7.728  1.5420 -1.2260 -0.6467
  170SAPE  C31219289   0.522   1.468   7.915 -0.3977 -0.0945 -0.1352
  170SAPE  H12X19290   0.510   1.563   7.971 -1.3360 -0.3223  0.0604
  170SAPE  H12Y19291   0.631   1.451   7.932 -0.9365 -0.9663  2.9694
  170SAPE  C31319292   0.435   1.368   7.992 -0.5135 -1.5858 -0.4207
  170SAPE  H13X19293   0.413   1.276   7.934 -3.1739 -0.2518 -1.7086
  170SAPE  H13Y19294   0.331   1.404   8.010  0.2706  0.8677 -0.4622
  170SAPE  C31419295   0.494   1.337   8.136  0.1227  0.2171  1.1323
  170SAPE  H14X19296   0.472   1.421   8.204  0.9983 -0.9429  2.9295
  170SAPE  H14Y19297   0.599   1.303   8.130 -0.5424 -2.0899  1.5337
  170SAPE  C31519298   0.424   1.214   8.206 -0.0506 -0.7801  0.2448
  170SAPE  H15X19299   0.444   1.115   8.159  0.1804 -0.9239  0.6417
  170SAPE  H15Y19300   0.315   1.237   8.208  0.0785 -0.1821  1.2317
  170SAPE  C31619301   0.449   1.214   8.352 -0.2592 -0.0199 -0.3588
  170SAPE  H16X19302   0.403   1.301   8.402  0.0606 -0.9178  1.5826
  170SAPE  H16Y19303   0.558   1.224   8.370 -0.5628  0.9161  1.1164
  170SAPE  C31719304   0.376   1.097   8.419  0.5898 -0.0726 -0.4483
  170SAPE  H17X19305   0.280   1.091   8.365 -1.3565  0.0020  2.7188
  170SAPE  H17Y19306   0.351   1.127   8.523  0.9221  0.4270 -0.5106
  170SAPE  C31819307   0.439   0.959   8.415 -0.7802  0.1268 -1.0852
  170SAPE  H18X19308   0.380   0.882   8.469  2.3365 -1.3576  0.4910
  170SAPE  H18Y19309   0.527   0.951   8.483 -2.7267  0.0970  1.6018
  170SAPE  H18Z19310   0.472   0.913   8.320 -0.8632 -0.0963 -1.0068
  171SAPE     N19311   0.773   2.236   6.353 -0.3026 -0.9827 -0.5214
  171SAPE   HN119312   0.800   2.279   6.444 -2.4866  0.0397 -0.2858
  171SAPE   HN219313   0.834   2.161   6.314 -0.5229 -0.3642 -2.1290
  171SAPE   HN319314   0.768   2.313   6.283  0.6504  0.4498  0.9214
  171SAPE   C1219315   0.632   2.186   6.370 -0.1559 -1.1425 -0.1951
  171SAPE  H12A19316   0.629   2.117   6.457 -1.3899 -1.4242 -0.4466
  171SAPE  H12B19317   0.607   2.124   6.282  0.9858  0.0628 -1.4135
  171SAPE   C1119318   0.535   2.302   6.390 -0.4107 -0.3017  0.0541
  171SAPE  H11A19319   0.541   2.343   6.493 -2.3804  2.7800 -0.9368
  171SAPE  H11B19320   0.434   2.255   6.399 -0.2761 -0.1977  3.2413
  171SAPE     P19321   0.446   2.522   6.273  0.0370  0.3364  0.0588
  171SAPE   O1319322   0.496   2.609   6.165  0.3182 -0.3661 -0.1181
  171SAPE   O1419323   0.312   2.467   6.251 -0.0078  0.0792 -0.0871
  171SAPE   O1219324   0.560   2.411   6.295  0.2340  0.3771 -0.4459
  171SAPE   O1119325   0.449   2.595   6.418  0.7541  0.3255  0.3868
  171SAPE    C119326   0.574   2.642   6.469 -0.4473 -0.3616  0.2632
  171SAPE    HA19327   0.653   2.568   6.445  1.0054  1.0565  0.4817
  171SAPE    HB19328   0.599   2.741   6.424  1.5059 -0.5577  0.8338
  171SAPE    C219329   0.558   2.657   6.626  0.1918  0.2719 -0.1932
  171SAPE    HS19330   0.649   2.630   6.684 -0.3017 -0.4857  0.2453
  171SAPE   O2119331   0.443   2.581   6.662 -0.2725 -0.0346  0.1839
  171SAPE   C2119332   0.466   2.482   6.745  0.2423  0.1217  0.3351
  171SAPE   O2219333   0.572   2.442   6.792  0.0928  0.7043 -0.0665
  171SAPE   C2219334   0.325   2.433   6.790  0.1168 -0.0660  0.2907
  171SAPE   H2R19335   0.235   2.481   6.746  1.6245  2.4038 -0.2822
  171SAPE   H2S19336   0.319   2.332   6.744 -1.3366 -0.1635  0.6541
  171SAPE    C319337   0.523   2.805   6.660 -0.1935 -0.4401  0.4185
  171SAPE    HX19338   0.444   2.848   6.596  0.1758  2.8920  1.9896
  171SAPE    HY19339   0.618   2.862   6.652  0.6370 -1.9437 -1.0375
  171SAPE   O3119340   0.480   2.814   6.803 -0.4720 -0.1016 -0.5426
  171SAPE   C3119341   0.352   2.792   6.828  0.1943 -0.2231 -1.3925
  171SAPE   O3219342   0.270   2.767   6.745  0.2856 -0.2757  0.3116
  171SAPE   C3219343   0.317   2.802   6.973  0.2105  0.3338 -0.2634
  171SAPE   H2X19344   0.314   2.910   7.001  0.9634  0.4532 -0.6177
  171SAPE   H2Y19345   0.386   2.742   7.036  0.3548  0.3145 -0.4412
  171SAPE   C2319346   0.305   2.404   6.945  0.1221 -0.3353  0.2431
  171SAPE   H3R19347   0.330   2.494   7.005 -0.0619  0.6426 -1.1094
  171SAPE   H3S19348   0.380   2.328   6.976 -0.1006 -0.9240 -0.6232
  171SAPE   C2419349   0.174   2.342   6.994  0.7652 -0.0305  0.5596
  171SAPE   H4R19350   0.187   2.314   7.100  2.7661 -0.9491  0.1254
  171SAPE   H4S19351   0.177   2.248   6.934  2.5259  0.1043  0.3823
  171SAPE   C2519352   0.047   2.422   6.963 -1.2157 -0.4674  0.9375
  171SAPE   H5R19353   0.041   2.472   6.865 -0.8354 -0.5866  0.8545
  171SAPE   C2619354  -0.051   2.433   7.053 -0.4112  0.1182  0.3901
  171SAPE   H6R19355  -0.141   2.488   7.022  0.6818  0.4220 -2.5074
  171SAPE   C2719356  -0.051   2.371   7.190 -0.3532  0.2749  0.0219
  171SAPE   H7R19357   0.031   2.299   7.213  0.4402  1.0653 -0.2456
  171SAPE   H7S19358  -0.140   2.307   7.201  0.7427 -1.5787 -1.1866
  171SAPE   C2819359  -0.065   2.476   7.301 -0.8178  0.1456 -0.2763
  171SAPE   H8R19360  -0.092   2.578   7.272  3.1607  2.2999  2.5756
  171SAPE   C2919361  -0.055   2.454   7.438  0.6466  0.5474 -0.1024
  171SAPE   H9R19362  -0.071   2.536   7.510 -2.3420 -1.5256  1.8001
  171SAPE  C21019363  -0.035   2.321   7.512 -0.6741 -0.2323 -0.2222
  171SAPE  H10R19364  -0.004   2.235   7.450 -0.0396 -1.9004  2.2499
  171SAPE  H10S19365  -0.131   2.295   7.561 -1.4362 -1.3094 -2.1701
  171SAPE  C21119366   0.078   2.347   7.605 -0.4593  0.0452 -0.1407
  171SAPE  H11R19367   0.149   2.426   7.576 -0.7000 -0.3442 -1.9170
  171SAPE  C21219368   0.092   2.288   7.732  0.3616 -0.5022 -0.0626
  171SAPE  H12R19369   0.187   2.311   7.782 -0.5117  3.1414  0.2371
  171SAPE  C21319370  -0.002   2.182   7.801  0.2444 -0.0543  0.1092
  171SAPE  H13R19371   0.056   2.088   7.809 -2.0840 -1.6345 -0.7173
  171SAPE  H13S19372  -0.089   2.155   7.737  0.6109 -0.8814 -0.0540
  171SAPE  C21419373  -0.054   2.211   7.938 -0.7087  0.2040 -0.0123
  171SAPE  H14R19374  -0.161   2.239   7.944 -0.3202  1.8267 -0.1970
  171SAPE  C21519375   0.023   2.228   8.049  0.8927 -0.2873 -0.3054
  171SAPE  H15R19376  -0.036   2.241   8.141 -0.9803 -0.0114 -1.5053
  171SAPE  C21619377   0.173   2.208   8.067  0.2238 -0.2223  0.2965
  171SAPE  H16R19378   0.216   2.304   8.034  0.0513 -0.3132 -0.2009
  171SAPE  H16S19379   0.205   2.125   8.000 -0.6581 -0.1267 -0.2632
  171SAPE  C21719380   0.215   2.176   8.204 -0.2239 -0.0756 -0.0100
  171SAPE  H17R19381   0.326   2.162   8.199  0.1630  1.0724  3.1144
  171SAPE  H17S19382   0.175   2.077   8.233  1.7568 -0.7951  0.4446
  171SAPE  C21819383   0.193   2.279   8.317  0.2765  0.0906  0.1346
  171SAPE  H18R19384   0.082   2.289   8.318  0.3426  0.7806  0.8924
  171SAPE  H18S19385   0.240   2.377   8.296  1.0696 -0.5300 -1.1094
  171SAPE  C21919386   0.251   2.234   8.449  0.9805  0.9073 -0.3588
  171SAPE  H19R19387   0.363   2.236   8.445  1.1240 -1.4208  0.6148
  171SAPE  H19S19388   0.215   2.130   8.466  0.8467  1.3367  2.3982
  171SAPE  C22019389   0.197   2.323   8.560  0.2786 -0.4184 -0.4730
  171SAPE  H20R19390   0.087   2.315   8.570  0.3539 -0.0384  0.8639
  171SAPE  H20S19391   0.226   2.428   8.539  0.8108 -1.0202 -3.2076
  171SAPE  H20T19392   0.225   2.283   8.660 -0.5233  0.6368  0.1977
  171SAPE   C3319393   0.175   2.756   7.005 -0.0045  0.1814 -0.2867
  171SAPE   H3X19394   0.152   2.652   6.972 -0.3990  0.2058 -0.0938
  171SAPE   H3Y19395   0.094   2.805   6.948 -0.3525 -0.6713 -0.5490
  171SAPE   C3419396   0.140   2.755   7.154 -0.3447  1.0069 -0.1323
  171SAPE   H4X19397   0.221   2.694   7.199 -0.1359  2.6025  1.8289
  171SAPE   H4Y19398   0.046   2.702   7.179  0.6277 -1.1029 -0.7284
  171SAPE   C3519399   0.137   2.883   7.231  0.0999 -0.3637  0.5860
  171SAPE   H5X19400   0.053   2.942   7.191 -2.3255 -1.6991  3.2959
  171SAPE   H5Y19401   0.223   2.947   7.202  0.3111 -1.3621 -1.0692
  171SAPE   C3619402   0.117   2.850   7.381  0.0800 -0.9794 -0.2934
  171SAPE   H6X19403   0.025   2.789   7.395  0.8756 -2.8412 -2.4360
  171SAPE   H6Y19404   0.098   2.951   7.424  0.8029  0.0601 -2.3196
  171SAPE   C3719405   0.229   2.771   7.449  0.0471 -0.1978 -0.3656
  171SAPE   H7X19406   0.325   2.819   7.421  0.6587 -0.3131  1.4632
  171SAPE   H7Y19407   0.234   2.666   7.413  2.0871 -0.3239  0.1640
  171SAPE   C3819408   0.218   2.772   7.600 -0.6796  0.1750  0.3633
  171SAPE   H8X19409   0.128   2.711   7.620 -0.4852 -0.3419 -0.3154
  171SAPE   H8Y19410   0.205   2.878   7.632  0.4072  0.3390  0.3352
  171SAPE   C3919411   0.330   2.694   7.667  0.0831 -0.4877 -0.1731
  171SAPE   H9X19412   0.424   2.750   7.646  0.2464 -1.0634 -1.0298
  171SAPE   H9Y19413   0.342   2.596   7.617 -0.5798  0.2621 -1.8571
  171SAPE  C31019414   0.299   2.674   7.817 -0.0513 -0.1281  0.5193
  171SAPE  H10X19415   0.379   2.606   7.854 -0.8495 -0.9887  0.6977
  171SAPE  H10Y19416   0.194   2.640   7.820 -0.5249  1.3444  1.3013
  171SAPE  C31119417   0.310   2.803   7.893  0.0049  0.6428 -0.2641
  171SAPE  H11X19418   0.243   2.870   7.835 -0.9172 -1.5494 -1.8640
  171SAPE  H11Y19419   0.409   2.853   7.904  0.7861 -1.1212  1.3617
  171SAPE  C31219420   0.250   2.798   8.040  0.0525 -0.1336  0.5517
  171SAPE  H12X19421   0.139   2.799   8.036  0.0784  1.4741 -0.8015
  171SAPE  H12Y19422   0.275   2.898   8.081  0.2645 -0.8131  2.1517
  171SAPE  C31319423   0.309   2.695   8.139 -0.3056  0.6297  0.8096
  171SAPE  H13X19424   0.415   2.674   8.117 -0.6250  0.2514 -0.4475
  171SAPE  H13Y19425   0.244   2.605   8.125 -0.9053  0.8000  2.3309
  171SAPE  C31419426   0.315   2.741   8.284 -0.5874  0.3277  0.0605
  171SAPE  H14X19427   0.209   2.743   8.319  0.1188 -0.2779  2.4365
  171SAPE  H14Y19428   0.360   2.843   8.288 -0.9516  0.5928 -1.9163
  171SAPE  C31519429   0.409   2.646   8.358 -0.1586  0.2058  0.7523
  171SAPE  H15X19430   0.515   2.653   8.325 -0.2029 -0.5502  0.4201
  171SAPE  H15Y19431   0.384   2.538   8.348 -3.1895  0.8977  0.1043
  171SAPE  C31619432   0.413   2.682   8.510 -0.0330 -0.0988  0.9090
  171SAPE  H16X19433   0.317   2.654   8.559  0.7738  1.4381  3.6258
  171SAPE  H16Y19434   0.424   2.792   8.524  0.7701 -0.2772  1.7773
  171SAPE  C31719435   0.525   2.602   8.589  0.1336 -0.4180  0.3179
  171SAPE  H17X19436   0.624   2.610   8.539 -0.1312 -0.4906 -0.2311
  171SAPE  H17Y19437   0.490   2.497   8.585  0.4089 -0.4886 -0.7573
  171SAPE  C31819438   0.544   2.661   8.731  0.8195  0.3706  0.5633
  171SAPE  H18X19439   0.451   2.634   8.787 -0.2408  1.9534 -0.3460
  171SAPE  H18Y19440   0.564   2.770   8.735 -1.5333  0.9091 -0.3513
  171SAPE  H18Z19441   0.628   2.606   8.777  1.7410  1.6986  0.5083
  172SAPE     N19442   1.185   0.608   6.341 -0.8044 -0.3655  0.6753
  172SAPE   HN119443   1.136   0.698   6.321  3.9674  2.4382 -0.1137
  172SAPE   HN219444   1.267   0.638   6.397 -0.8135  2.8699 -0.7873
  172SAPE   HN319445   1.220   0.566   6.252 -1.2322 -1.1787  0.8876
  172SAPE   C1219446   1.114   0.500   6.423  0.4016  0.0541 -0.0569
  172SAPE  H12A19447   1.036   0.452   6.360 -1.6149 -1.6469  3.4665
  172SAPE  H12B19448   1.070   0.545   6.514  0.0300 -1.0750  0.3446
  172SAPE   C1119449   1.214   0.390   6.449  0.1095  0.1308  0.3593
  172SAPE  H11A19450   1.167   0.318   6.518  0.1640 -1.6936 -1.4161
  172SAPE  H11B19451   1.308   0.429   6.495 -0.0484 -0.8023  1.5059
  172SAPE     P19452   1.227   0.173   6.298  0.0324  0.6132 -0.1036
  172SAPE   O1319453   1.095   0.159   6.234  0.8867 -0.0331 -0.1629
  172SAPE   O1419454   1.358   0.132   6.233  0.2557  0.5586  0.2653
  172SAPE   O1219455   1.240   0.328   6.321  0.4382 -0.2646  0.1714
  172SAPE   O1119456   1.219   0.095   6.435  0.2847  0.2122 -0.1622
  172SAPE    C119457   1.205  -0.048   6.438 -0.0538  0.3761 -0.9593
  172SAPE    HA19458   1.146  -0.087   6.352  1.0116  0.1571 -1.6005
  172SAPE    HB19459   1.306  -0.093   6.444 -0.8188 -1.3626 -0.4482
  172SAPE    C219460   1.125  -0.086   6.568 -0.4328  0.2269 -0.1023
  172SAPE    HS19461   1.135  -0.193   6.594 -0.8770  1.2369  5.5081
  172SAPE   O2119462   0.988  -0.049   6.537  1.0275 -0.4583 -0.3413
  172SAPE   C2119463   0.895  -0.111   6.611  0.1707  0.3658  0.8203
  172SAPE   O2219464   0.917  -0.199   6.691 -0.1250 -0.2269 -0.1692
  172SAPE   C2219465   0.755  -0.060   6.597  0.0978  0.4756  0.3688
  172SAPE   H2R19466   0.765   0.050   6.586  1.2822  0.1954 -1.9663
  172SAPE   H2S19467   0.705  -0.088   6.501  0.6766  0.5366  0.0443
  172SAPE    C319468   1.190  -0.012   6.692  0.8162  0.1794 -0.0281
  172SAPE    HX19469   1.221   0.092   6.665 -1.6540  1.1319  0.5374
  172SAPE    HY19470   1.287  -0.058   6.722  0.5400  0.1768  0.8855
  172SAPE   O3119471   1.097   0.003   6.806 -0.4256  0.0901  0.2973
  172SAPE   C3119472   1.092  -0.104   6.874 -0.5811  0.5756 -0.4121
  172SAPE   O3219473   1.164  -0.201   6.861 -0.3544  0.0757  0.0120
  172SAPE   C3219474   0.998  -0.084   6.983 -0.0976  0.9053 -0.3225
  172SAPE   H2X19475   0.895  -0.102   6.945 -0.4222  1.8554  0.0640
  172SAPE   H2Y19476   1.004   0.024   7.009  1.3232  0.3475  1.8926
  172SAPE   C2319477   0.665  -0.078   6.717 -0.1952  0.8487 -0.5560
  172SAPE   H3R19478   0.720  -0.057   6.812  1.2364  1.9686 -1.5868
  172SAPE   H3S19479   0.635  -0.185   6.722  0.2004  0.7608  0.2035
  172SAPE   C2419480   0.533   0.007   6.707 -0.1629 -0.2599 -0.9182
  172SAPE   H4R19481   0.559   0.113   6.687  2.1224 -0.5975 -0.1096
  172SAPE   H4S19482   0.473   0.004   6.801 -0.9977 -1.0024 -1.4630
  172SAPE   C2519483   0.441  -0.049   6.604 -0.4544  0.1487 -0.1532
  172SAPE   H5R19484   0.471  -0.045   6.498 -0.2637 -0.6516 -0.1373
  172SAPE   C2619485   0.325  -0.119   6.615  0.0437 -0.4148 -0.1572
  172SAPE   H6R19486   0.286  -0.151   6.517 -1.8157 -1.7874  0.9748
  172SAPE   C2719487   0.245  -0.153   6.735 -0.7125  0.0483  0.8793
  172SAPE   H7R19488   0.299  -0.106   6.820 -0.7202 -0.5248  1.2028
  172SAPE   H7S19489   0.249  -0.264   6.741  1.1185  0.0645  0.5603
  172SAPE   C2819490   0.103  -0.112   6.724 -0.1456 -0.3530  0.1646
  172SAPE   H8R19491   0.051  -0.140   6.631 -0.7042  1.6819 -0.1788
  172SAPE   C2919492   0.030  -0.046   6.821  0.5371 -0.0315  0.0581
  172SAPE   H9R19493  -0.069  -0.006   6.793 -0.7351 -1.8433  1.6383
  172SAPE  C21019494   0.082  -0.002   6.956 -0.4344  0.1695  0.2352
  172SAPE  H10R19495   0.119   0.103   6.952  0.9648 -0.3356 -1.0465
  172SAPE  H10S19496   0.171  -0.066   6.970 -0.4848 -0.9637 -3.5515
  172SAPE  C21119497  -0.012  -0.020   7.074  0.1613  0.1479  0.4047
  172SAPE  H11R19498  -0.113  -0.061   7.059  0.1950  0.3991 -0.5901
  172SAPE  C21219499   0.034   0.004   7.199  0.4312  0.1597 -0.6029
  172SAPE  H12R19500  -0.027  -0.025   7.286 -0.6781 -0.6755 -1.6252
  172SAPE  C21319501   0.173   0.052   7.233 -0.3864 -0.3714 -0.3080
  172SAPE  H13R19502   0.243   0.026   7.151  0.7616 -1.3760  0.9481
  172SAPE  H13S19503   0.210   0.001   7.324  0.5624 -2.5034 -1.8197
  172SAPE  C21419504   0.181   0.203   7.251  0.3835  0.0186 -0.0475
  172SAPE  H14R19505   0.154   0.257   7.159 -0.1583 -2.0738 -1.1904
  172SAPE  C21519506   0.211   0.267   7.366  0.6527  0.3201 -0.1209
  172SAPE  H15R19507   0.216   0.376   7.357  0.1294  0.4452  0.9267
  172SAPE  C21619508   0.252   0.191   7.491  0.2255 -0.0178  0.2426
  172SAPE  H16R19509   0.334   0.126   7.455 -0.8501  0.1727 -2.8516
  172SAPE  H16S19510   0.166   0.133   7.533  0.8093 -2.9251 -2.2567
  172SAPE  C21719511   0.317   0.286   7.599 -0.7783  0.1160  1.2242
  172SAPE  H17R19512   0.238   0.362   7.618 -1.6704 -0.7160  0.9268
  172SAPE  H17S19513   0.405   0.338   7.556 -1.3608  0.5448  0.5136
  172SAPE  C21819514   0.346   0.205   7.721 -0.5967  0.3008 -0.2040
  172SAPE  H18R19515   0.425   0.127   7.719 -2.3423 -1.5579  0.6982
  172SAPE  H18S19516   0.252   0.150   7.741  0.1292 -2.4079 -3.4074
  172SAPE  C21919517   0.376   0.301   7.837 -0.2257  0.4915 -0.4494
  172SAPE  H19R19518   0.292   0.374   7.842 -0.6801  0.0769 -1.7099
  172SAPE  H19S19519   0.462   0.358   7.795  0.8895 -1.3141 -0.7166
  172SAPE  C22019520   0.420   0.249   7.975  0.5763 -0.2994 -0.6124
  172SAPE  H20R19521   0.517   0.197   7.964  0.3568 -1.3391  1.7043
  172SAPE  H20S19522   0.354   0.178   8.028 -0.7189  1.2823 -0.0098
  172SAPE  H20T19523   0.442   0.336   8.042 -1.5045  1.2304 -1.7835
  172SAPE   C3319524   1.029  -0.173   7.110  0.7594  0.0817 -0.4869
  172SAPE   H3X19525   1.132  -0.213   7.100  1.0590  1.0891 -1.6257
  172SAPE   H3Y19526   0.953  -0.253   7.097  0.9112  0.2997 -3.3225
  172SAPE   C3419527   1.014  -0.097   7.242  0.1944  0.1571  0.3613
  172SAPE   H4X19528   0.913  -0.052   7.254 -0.1134 -0.5089  0.2910
  172SAPE   H4Y19529   1.074  -0.007   7.272 -2.7398  2.9537 -1.5152
  172SAPE   C3519530   1.022  -0.193   7.370  0.4821 -0.2405  0.6377
  172SAPE   H5X19531   1.124  -0.237   7.366  1.5036  1.9767 -3.5202
  172SAPE   H5Y19532   0.941  -0.269   7.367  0.6835 -0.4512 -2.7299
  172SAPE   C3619533   0.999  -0.114   7.496  0.2943  0.1505  0.2752
  172SAPE   H6X19534   0.912  -0.045   7.493 -0.6671 -1.0562 -0.4167
  172SAPE   H6Y19535   1.086  -0.050   7.519  0.3671 -0.5893  2.2543
  172SAPE   C3719536   1.002  -0.198   7.626  0.5081 -0.2569  0.4497
  172SAPE   H7X19537   1.002  -0.118   7.704 -0.0055  1.3284 -1.1219
  172SAPE   H7Y19538   1.096  -0.257   7.627  0.5766 -0.4665 -3.4330
  172SAPE   C3819539   0.882  -0.287   7.657 -0.1530  0.2210  0.3748
  172SAPE   H8X19540   0.886  -0.381   7.597 -0.2746  0.7843 -0.5335
  172SAPE   H8Y19541   0.782  -0.245   7.633 -0.3320  0.6316  1.7509
  172SAPE   C3919542   0.869  -0.333   7.806 -0.3064  0.3265 -0.2114
  172SAPE   H9X19543   0.967  -0.371   7.840 -0.1198  0.3401 -0.7337
  172SAPE   H9Y19544   0.784  -0.404   7.814  0.7669 -0.8611  1.0855
  172SAPE  C31019545   0.834  -0.213   7.903  0.7941 -0.3514 -0.2406
  172SAPE  H10X19546   0.764  -0.148   7.846  1.3101 -0.8058 -1.4176
  172SAPE  H10Y19547   0.929  -0.158   7.916  1.2479 -0.1729 -3.5651
  172SAPE  C31119548   0.777  -0.256   8.036  0.3334  0.4015  0.1893
  172SAPE  H11X19549   0.682  -0.309   8.014 -0.8254  2.8592 -1.1713
  172SAPE  H11Y19550   0.743  -0.165   8.090  0.1325 -0.3777  1.4285
  172SAPE  C31219551   0.869  -0.333   8.125 -0.1937  0.5796  0.0442
  172SAPE  H12X19552   0.894  -0.425   8.067  0.2937  2.2509 -2.5383
  172SAPE  H12Y19553   0.823  -0.356   8.224  0.4714  1.2618  0.5276
  172SAPE  C31319554   0.997  -0.261   8.165 -0.4917  0.3863  0.3451
  172SAPE  H13X19555   0.967  -0.173   8.226 -0.0686  0.8542 -0.1143
  172SAPE  H13Y19556   1.055  -0.224   8.079  1.0080  1.5258  1.7744
  172SAPE  C31419557   1.089  -0.336   8.268  0.0626 -0.1988 -0.3486
  172SAPE  H14X19558   1.134  -0.436   8.251  1.2701 -0.1301  2.0757
  172SAPE  H14Y19559   1.019  -0.354   8.353  0.3386  1.5124  0.2850
  172SAPE  C31519560   1.202  -0.252   8.326  0.4993  0.1451  0.3691
  172SAPE  H15X19561   1.158  -0.154   8.354  0.7425  1.1472 -2.4722
  172SAPE  H15Y19562   1.278  -0.243   8.246 -0.1140  0.5763 -0.1720
  172SAPE  C31619563   1.268  -0.319   8.443  0.7836  0.2873 -0.6963
  172SAPE  H16X19564   1.341  -0.251   8.491 -0.7539 -0.6949  3.5239
  172SAPE  H16Y19565   1.310  -0.420   8.425  0.0385 -0.2845  0.6346
  172SAPE  C31719566   1.163  -0.345   8.548 -0.5554  0.5608 -0.0327
  172SAPE  H17X19567   1.101  -0.429   8.510  1.1114 -1.1712  0.9104
  172SAPE  H17Y19568   1.098  -0.259   8.575 -0.4301  0.8103 -0.5063
  172SAPE  C31819569   1.230  -0.410   8.677  0.4227 -0.9184  0.7605
  172SAPE  H18X19570   1.316  -0.345   8.704 -0.4591  0.8919 -0.5600
  172SAPE  H18Y19571   1.254  -0.515   8.652  2.5277 -0.1097 -0.9279
  172SAPE  H18Z19572   1.150  -0.401   8.753 -2.4922  0.1182 -2.2100
  173SOPE     N19573   2.693   3.799  11.086 -0.7879 -0.1714  0.0495
  173SOPE   HN119574   2.777   3.773  11.142 -1.2265  0.5484  1.0625
  173SOPE   HN219575   2.644   3.873  11.140  0.1585 -0.4533  1.3434
  173SOPE   HN319576   2.640   3.710  11.081  0.2001 -0.9480  2.2693
  173SOPE   C1219577   2.751   3.854  10.957  0.2903 -0.7650  0.0724
  173SOPE  H12A19578   2.826   3.787  10.910  0.8404  0.8193 -1.4016
  173SOPE  H12B19579   2.815   3.938  10.993 -0.8812  0.2713 -0.2043
  173SOPE   C1119580   2.639   3.898  10.869  0.4219  0.2194  0.4148
  173SOPE  H11A19581   2.566   3.815  10.864  0.3062  0.3981 -2.2229
  173SOPE  H11B19582   2.683   3.916  10.768  2.0564  0.2089  1.0897
  173SOPE     P19583   2.459   4.087  10.850  0.0456 -0.1694 -0.5694
  173SOPE   O1319584   2.416   4.210  10.921  0.5587 -0.0409 -0.4240
  173SOPE   O1419585   2.357   3.990  10.810  0.3813  0.2431 -0.2704
  173SOPE   O1219586   2.575   4.011  10.930 -0.1863  0.2916  0.1521
  173SOPE   O1119587   2.534   4.134  10.720 -0.2105 -0.1194 -0.2888
  173SOPE    C119588   2.651   4.221  10.728  0.1069  0.6052 -0.2293
  173SOPE    HA19589   2.734   4.170  10.676 -0.3693  0.3555 -0.7516
  173SOPE    HB19590   2.683   4.237  10.833 -1.1996 -1.2208  0.5002
  173SOPE    C219591   2.624   4.369  10.684 -0.1502  0.0071  0.7283
  173SOPE    HS19592   2.530   4.392  10.738 -1.0197 -0.7768 -0.3948
  173SOPE   O2119593   2.588   4.353  10.547 -0.0337  0.1296  0.8308
  173SOPE   C2119594   2.536   4.466  10.491  0.1165 -0.3797 -0.3191
  173SOPE   O2219595   2.505   4.567  10.557 -0.3732  0.1569 -0.0203
  173SOPE   C2219596   2.516   4.449  10.340  0.2975  0.3211  1.0117
  173SOPE   H2R19597   2.453   4.531  10.299 -0.8453 -1.4659 -1.0682
  173SOPE   H2S19598   2.440   4.368  10.326  1.0303 -0.1149 -0.7329
  173SOPE    C319599   2.737   4.473  10.712  0.6646 -0.4510 -0.7858
  173SOPE    HX19600   2.768   4.468  10.818 -1.1489  0.1648 -0.1993
  173SOPE    HY19601   2.688   4.572  10.696 -1.5523 -1.1035  1.3630
  173SOPE   O3119602   2.849   4.454  10.625  0.1041 -0.1201  0.0617
  173SOPE   C3119603   2.952   4.377  10.661  0.2658 -0.1355 -0.4002
  173SOPE   O3219604   2.957   4.318  10.767  0.7627 -0.3805  0.4861
  173SOPE   C3219605   3.043   4.362  10.545 -0.3284  0.2500  0.6801
  173SOPE   H2X19606   3.118   4.286  10.576 -0.9889 -0.6474  0.1392
  173SOPE   H2Y19607   3.093   4.456  10.514 -0.5618  0.2977  0.4510
  173SOPE   C2319608   2.634   4.407  10.248 -0.2348  0.2713  0.1122
  173SOPE   H3R19609   2.679   4.317  10.295  1.5656  0.0379 -1.9088
  173SOPE   H3S19610   2.712   4.484  10.231 -1.8068  1.6860 -1.1059
  173SOPE   C2419611   2.574   4.367  10.118  0.4231  0.8238  0.1874
  173SOPE   H4R19612   2.653   4.342  10.044 -1.0408  0.2700 -1.2495
  173SOPE   H4S19613   2.515   4.274  10.128  1.1057  0.2256 -1.0291
  173SOPE   C2519614   2.500   4.493  10.058 -0.4504  0.6452  0.6701
  173SOPE   H5R19615   2.394   4.460  10.064  0.3563 -2.0140  1.8266
  173SOPE   H5S19616   2.510   4.585  10.119 -0.6531  0.1019  1.5328
  173SOPE   C2619617   2.545   4.534   9.917  0.1888  0.3202 -0.4659
  173SOPE   H6R19618   2.524   4.640   9.889 -0.6466 -0.3233 -2.5535
  173SOPE   H6S19619   2.655   4.528   9.911  0.2459  0.1069  0.6770
  173SOPE   C2719620   2.493   4.432   9.817  0.1857 -0.9236  0.0737
  173SOPE   H7R19621   2.528   4.329   9.839  1.2193 -0.6627 -0.3305
  173SOPE   H7S19622   2.382   4.435   9.822  0.2665  1.7152  2.4402
  173SOPE   C2819623   2.525   4.464   9.673 -0.2450 -0.5215 -0.4044
  173SOPE   H8R19624   2.460   4.407   9.602  0.9030 -2.4359  0.0195
  173SOPE   H8S19625   2.502   4.572   9.659 -0.1313 -0.6613 -1.8278
  173SOPE   C2919626   2.665   4.448   9.633  0.2308  0.5765 -0.2632
  173SOPE   H9119627   2.743   4.445   9.711  0.1507 -0.7768 -0.2047
  173SOPE  C21019628   2.711   4.428   9.509 -0.5610  0.5283 -0.7374
  173SOPE  H10119629   2.820   4.440   9.507 -0.4367 -0.4046 -0.2561
  173SOPE  C21119630   2.640   4.433   9.379  0.8885 -0.4921 -0.2352
  173SOPE  H11R19631   2.672   4.529   9.334  1.5039 -1.0858 -1.0840
  173SOPE  H11S19632   2.531   4.435   9.402  1.5445 -1.3421  3.6661
  173SOPE  C21219633   2.668   4.323   9.281  0.4076  0.3191 -0.6518
  173SOPE  H12R19634   2.655   4.241   9.356 -3.6738  1.0353 -0.3835
  173SOPE  H12S19635   2.772   4.316   9.242  0.7463 -0.2553  0.3028
  173SOPE  C21319636   2.562   4.297   9.171 -0.6961 -0.7836 -0.8007
  173SOPE  H13R19637   2.462   4.301   9.220  0.5342  1.9866  1.8460
  173SOPE  H13S19638   2.584   4.198   9.124 -0.4275 -0.5773 -1.1153
  173SOPE  C21419639   2.573   4.395   9.052  0.4050  0.2800 -0.5506
  173SOPE  H14R19640   2.679   4.394   9.016 -0.1381  1.0965 -2.2642
  173SOPE  H14S19641   2.549   4.493   9.097 -1.2430 -0.9003  1.2782
  173SOPE  C21519642   2.472   4.368   8.941  0.1204 -0.0943  0.2775
  173SOPE  H15R19643   2.369   4.359   8.979 -1.1722  1.6208 -2.5081
  173SOPE  H15S19644   2.507   4.269   8.902  1.3125  1.0064 -1.5935
  173SOPE  C21619645   2.470   4.471   8.831  0.0798 -0.8498  0.4962
  173SOPE  H16R19646   2.570   4.481   8.783 -0.5465 -1.8323 -1.0782
  173SOPE  H16S19647   2.430   4.569   8.866 -0.8609 -0.7008 -0.9343
  173SOPE  C21719648   2.386   4.434   8.711  0.9442 -0.4383 -0.0012
  173SOPE  H17R19649   2.414   4.331   8.678  0.2068  0.0697 -2.3488
  173SOPE  H17S19650   2.426   4.506   8.637  1.9855 -0.1212  0.8370
  173SOPE  C21819651   2.233   4.432   8.726 -0.0196  0.0809  0.2910
  173SOPE  H18R19652   2.190   4.534   8.738 -1.2454  0.1943 -3.6810
  173SOPE  H18S19653   2.204   4.360   8.806  0.8831  0.8448  1.3314
  173SOPE  H18T19654   2.185   4.385   8.637 -0.9569 -1.0106  1.3249
  173SOPE   C3319655   2.967   4.305  10.420  1.0283  0.0697  0.1901
  173SOPE   H3X19656   2.884   4.373  10.392 -1.5065 -2.8341  0.1464
  173SOPE   H3Y19657   2.921   4.210  10.455 -1.5113  0.4049 -1.9638
  173SOPE   C3419658   3.050   4.278  10.295 -0.4733  0.3046  0.0198
  173SOPE   H4X19659   3.134   4.210  10.317  0.4671  1.4925  0.2208
  173SOPE   H4Y19660   3.103   4.372  10.267 -0.7333  0.5012  0.1774
  173SOPE   C3519661   2.964   4.227  10.176 -0.3735 -0.0241  0.4810
  173SOPE   H5X19662   2.879   4.298  10.183 -1.9348 -2.0209  3.5192
  173SOPE   H5Y19663   2.917   4.128  10.192 -0.4918  0.2456  1.9435
  173SOPE   C3619664   3.038   4.232  10.040  0.0876  0.1998  0.0687
  173SOPE   H6X19665   3.136   4.181  10.055  0.4556  0.2621 -1.8822
  173SOPE   H6Y19666   3.047   4.335   9.999 -0.7543 -0.2635 -1.3487
  173SOPE   C3719667   2.974   4.147   9.927  0.0899  0.5415  0.2925
  173SOPE   H7X19668   2.864   4.164   9.932  0.0228  0.0133  0.7850
  173SOPE   H7Y19669   3.001   4.043   9.955  1.6408  1.0377  0.7189
  173SOPE   C3819670   3.029   4.162   9.787  0.3648 -0.2001 -0.0251
  173SOPE   H8X19671   3.123   4.102   9.783  0.2917 -0.3567  0.5238
  173SOPE   H8Y19672   3.071   4.264   9.773 -1.4435  0.5224 -0.5305
  173SOPE   C3919673   2.939   4.111   9.666  0.9428  0.3292  0.2337
  173SOPE   H9X19674   2.840   4.162   9.663  0.8249  0.3633  2.6291
  173SOPE   H9Y19675   2.908   4.004   9.673  0.1320  0.4239 -1.4574
  173SOPE  C31019676   3.019   4.118   9.539  1.3184 -0.3653  0.5021
  173SOPE  H10X19677   3.124   4.087   9.561  1.3125 -0.8030 -0.0379
  173SOPE  H10Y19678   3.033   4.223   9.507 -4.4402  1.0839  1.6919
  173SOPE  C31119679   2.960   4.045   9.414 -0.4738  0.4343  0.8510
  173SOPE  H11X19680   2.850   4.060   9.404 -0.4239 -0.3364 -1.4452
  173SOPE  H11Y19681   2.964   3.936   9.433 -1.3530  0.5353  1.6943
  173SOPE  C31219682   3.021   4.081   9.271 -0.2504 -0.6145 -0.3630
  173SOPE  H12X19683   3.130   4.099   9.278 -0.3312  0.2712 -1.1213
  173SOPE  H12Y19684   2.980   4.180   9.240  1.1777 -0.7536 -2.8602
  173SOPE  C31319685   2.986   3.979   9.160  0.9844 -0.1455 -0.0262
  173SOPE  H13X19686   2.882   3.940   9.168  0.8281  0.5296  1.6169
  173SOPE  H13Y19687   3.062   3.899   9.166 -0.0168 -1.2109 -1.1108
  173SOPE  C31419688   2.998   4.046   9.020 -0.6155 -0.1766  0.3983
  173SOPE  H14X19689   3.032   3.966   8.950 -0.3003  0.0097  0.3329
  173SOPE  H14Y19690   3.086   4.115   9.020  0.1575 -1.1291  0.7513
  173SOPE  C31519691   2.872   4.114   8.959  0.2046 -0.5156 -0.0224
  173SOPE  H15X19692   2.839   4.209   9.007  0.0103  1.2317 -3.2607
  173SOPE  H15Y19693   2.789   4.043   8.973  0.3859 -0.9085 -0.8513
  173SOPE  C31619694   2.893   4.148   8.815 -0.5473 -0.0291  0.0709
  173SOPE  H16X19695   2.937   4.059   8.766 -0.1427  0.7117 -0.9622
  173SOPE  H16Y19696   2.968   4.227   8.793 -1.7135  1.4852  1.2964
  173SOPE  C31719697   2.758   4.194   8.746 -0.4380  1.0464 -1.4214
  173SOPE  H17X19698   2.730   4.272   8.820 -0.0510 -0.8286  0.8137
  173SOPE  H17Y19699   2.691   4.108   8.766  1.8866 -1.1696 -2.5377
  173SOPE  C31819700   2.743   4.234   8.600  0.3937 -0.3990 -0.4193
  173SOPE  H18X19701   2.786   4.331   8.568  0.3928  0.3803  1.7632
  173SOPE  H18Y19702   2.634   4.239   8.580  0.0458  0.9578  1.5484
  173SOPE  H18Z19703   2.787   4.156   8.535  1.9807 -0.5011  0.7095
  174SOPE     N19704   2.307   5.851  10.638  0.2133 -0.2886  0.1476
  174SOPE   HN119705   2.270   5.942  10.674 -2.4761 -1.1922 -0.0730
  174SOPE   HN219706   2.392   5.881  10.586 -0.0470  1.0803  0.4691
  174SOPE   HN319707   2.236   5.803  10.578 -0.5645  1.0497 -0.0546
  174SOPE   C1219708   2.339   5.774  10.762  0.9091 -0.4071 -0.2444
  174SOPE  H12A19709   2.249   5.721  10.801  1.5862  0.1813  2.3326
  174SOPE  H12B19710   2.375   5.846  10.839  0.0675  0.8922 -1.0466
  174SOPE   C1119711   2.441   5.662  10.737 -0.5882 -0.2569  0.2556
  174SOPE  H11A19712   2.546   5.690  10.713 -0.2542 -0.8549  1.0178
  174SOPE  H11B19713   2.399   5.606  10.651 -1.0961  0.5860 -0.0575
  174SOPE     P19714   2.541   5.600  10.966  0.1275 -0.5265 -0.0977
  174SOPE   O1319715   2.509   5.516  11.082 -0.2478  0.2052  0.5017
  174SOPE   O1419716   2.538   5.746  10.991 -0.2471 -0.2960  0.7553
  174SOPE   O1219717   2.438   5.579  10.854  0.6057  0.9833  0.5360
  174SOPE   O1119718   2.681   5.570  10.904  0.0762 -0.2951  0.1102
  174SOPE    C119719   2.699   5.433  10.856  0.4013 -0.4536  0.0564
  174SOPE    HA19720   2.613   5.404  10.792 -3.6928  1.7530  3.9947
  174SOPE    HB19721   2.701   5.366  10.945 -0.5437 -0.6123 -0.0300
  174SOPE    C219722   2.830   5.422  10.777 -0.1754 -0.1869  0.5982
  174SOPE    HS19723   2.914   5.453  10.842 -0.0177  0.2230  0.2002
  174SOPE   O2119724   2.825   5.504  10.658 -0.3282 -0.2693 -0.0874
  174SOPE   C2119725   2.952   5.525  10.613  1.3044 -0.0825  0.7254
  174SOPE   O2219726   3.056   5.500  10.672  0.3827  0.0078  0.4629
  174SOPE   C2219727   2.943   5.614  10.493 -0.3343 -0.1894 -0.3043
  174SOPE   H2R19728   2.951   5.723  10.514  1.9779 -0.1281 -1.2210
  174SOPE   H2S19729   2.857   5.586  10.429 -1.0834 -0.9032  0.9728
  174SOPE    C319730   2.849   5.265  10.742 -0.2280  0.3780  0.3537
  174SOPE    HX19731   2.855   5.207  10.836  0.8884 -1.9045 -1.0354
  174SOPE    HY19732   2.944   5.244  10.688  0.2168  1.4004  0.7304
  174SOPE   O3119733   2.735   5.212  10.667  1.3530  0.0309  0.1260
  174SOPE   C3119734   2.735   5.215  10.535  0.4462 -0.2656  0.4859
  174SOPE   O3219735   2.831   5.257  10.470  0.7810 -0.5910 -0.3249
  174SOPE   C3219736   2.600   5.168  10.469 -0.6570  0.4757 -0.8420
  174SOPE   H2X19737   2.552   5.248  10.408  0.9631  0.7722 -1.8114
  174SOPE   H2Y19738   2.539   5.140  10.558  2.7640 -0.5352  1.3926
  174SOPE   C2319739   3.060   5.588  10.404 -0.5092  0.0325 -0.3230
  174SOPE   H3R19740   3.154   5.591  10.463  0.1503 -0.9406 -1.2825
  174SOPE   H3S19741   3.072   5.660  10.320  2.7452  0.9298  0.7718
  174SOPE   C2419742   3.079   5.446  10.342  0.6682 -0.5808  0.6122
  174SOPE   H4R19743   3.102   5.374  10.424 -1.0384  1.1304  2.7272
  174SOPE   H4S19744   2.986   5.421  10.287  1.7668  1.4487 -2.3835
  174SOPE   C2519745   3.187   5.430  10.229 -0.2152  0.2627  0.2564
  174SOPE   H5R19746   3.272   5.487  10.274  0.7850 -1.2371  0.3128
  174SOPE   H5S19747   3.213   5.323  10.223 -2.7747 -0.3665 -0.8813
  174SOPE   C2619748   3.134   5.478  10.093 -0.9481  0.3108  0.6549
  174SOPE   H6R19749   3.050   5.414  10.061  1.2512 -2.4395 -0.0521
  174SOPE   H6S19750   3.097   5.583  10.095 -3.5640 -0.4066 -2.4686
  174SOPE   C2719751   3.245   5.473   9.987  0.5230  0.3408  0.6895
  174SOPE   H7R19752   3.342   5.488  10.039 -0.7512  1.5898  2.8792
  174SOPE   H7S19753   3.236   5.375   9.935  0.4236  1.9669 -2.6772
  174SOPE   C2819754   3.225   5.578   9.878 -0.2581 -0.7269  0.4752
  174SOPE   H8R19755   3.233   5.677   9.928  1.3230 -0.3067 -0.5434
  174SOPE   H8S19756   3.303   5.567   9.800  1.1412 -0.5090  1.8020
  174SOPE   C2919757   3.084   5.582   9.824  0.4012 -0.1526  0.7481
  174SOPE   H9119758   3.015   5.620   9.901  0.8927  1.8597  0.2443
  174SOPE  C21019759   3.034   5.546   9.705 -1.0975  0.1781  0.2385
  174SOPE  H10119760   2.925   5.543   9.689 -1.1543  2.1382 -0.0406
  174SOPE  C21119761   3.118   5.488   9.588  0.5877  0.0851 -0.6783
  174SOPE  H11R19762   3.220   5.532   9.593  0.3864  0.4751  0.1553
  174SOPE  H11S19763   3.087   5.529   9.490  0.9810  0.1384 -0.7829
  174SOPE  C21219764   3.123   5.336   9.595  0.4295  0.0078 -0.7010
  174SOPE  H12R19765   3.019   5.297   9.602  0.8832 -0.8812  3.5780
  174SOPE  H12S19766   3.178   5.310   9.688  2.4557  1.3316 -1.4694
  174SOPE  C21319767   3.206   5.267   9.488  0.5712 -0.4878 -0.5838
  174SOPE  H13R19768   3.224   5.159   9.507  0.4562 -0.4034  0.0271
  174SOPE  H13S19769   3.304   5.318   9.495 -1.2594  3.2825  0.0758
  174SOPE  C21419770   3.141   5.282   9.348  0.2112  0.1092 -0.1462
  174SOPE  H14R19771   3.140   5.385   9.308 -0.7648 -0.4582 -1.6945
  174SOPE  H14S19772   3.038   5.246   9.369  0.8409 -0.8917  1.3860
  174SOPE  C21519773   3.198   5.182   9.244  0.6896  0.4837 -0.3685
  174SOPE  H15R19774   3.200   5.088   9.304  0.8347  1.2636  0.8962
  174SOPE  H15S19775   3.299   5.213   9.211  0.1191  0.7209 -1.9553
  174SOPE  C21619776   3.115   5.158   9.112 -0.3080  0.0950  0.4926
  174SOPE  H16R19777   3.132   5.246   9.046 -1.6444  0.5572  0.7266
  174SOPE  H16S19778   3.012   5.174   9.150 -0.4433  0.5692 -0.0545
  174SOPE  C21719779   3.139   5.028   9.045  0.3352  0.7158  0.2348
  174SOPE  H17R19780   3.056   5.001   8.976  0.6111  2.1057 -0.6813
  174SOPE  H17S19781   3.148   4.946   9.119  0.9922  0.9425  0.4148
  174SOPE  C21819782   3.271   5.012   8.969  0.0376  0.2103 -0.3198
  174SOPE  H18R19783   3.268   4.916   8.913 -0.7906 -0.4929  0.9000
  174SOPE  H18S19784   3.358   5.005   9.038  0.0854 -0.3678 -0.4329
  174SOPE  H18T19785   3.288   5.096   8.898 -3.1671  1.5463  0.3414
  174SOPE   C3319786   2.630   5.046  10.378  0.6547 -0.1089 -0.6516
  174SOPE   H3X19787   2.680   4.966  10.437  1.6555  1.1230  0.2243
  174SOPE   H3Y19788   2.685   5.079  10.287  2.0027 -0.9971 -0.1840
  174SOPE   C3419789   2.512   4.972  10.320 -0.1545  0.5032 -0.0398
  174SOPE   H4X19790   2.451   5.029  10.248  0.4416  0.1315 -0.8569
  174SOPE   H4Y19791   2.443   4.953  10.405 -0.6512  1.9890 -0.0984
  174SOPE   C3519792   2.555   4.841  10.248  0.1473 -0.0877  0.7406
  174SOPE   H5X19793   2.467   4.785  10.210 -0.0529  0.3154  0.6028
  174SOPE   H5Y19794   2.619   4.784  10.318 -0.8723 -2.8188 -0.4192
  174SOPE   C3619795   2.647   4.866  10.127 -0.7141  0.1288 -0.0430
  174SOPE   H6X19796   2.689   4.769  10.092 -0.5508 -0.5615  1.9281
  174SOPE   H6Y19797   2.739   4.916  10.165  0.1910 -1.0414 -0.6538
  174SOPE   C3719798   2.580   4.939  10.010 -0.1759  0.8340 -0.2984
  174SOPE   H7X19799   2.548   5.044  10.031  3.5499  1.7088  2.0230
  174SOPE   H7Y19800   2.489   4.892   9.968 -1.5864  1.5762  1.7802
  174SOPE   C3819801   2.666   4.957   9.888  0.9673  0.2468  0.8487
  174SOPE   H8X19802   2.701   4.854   9.869  0.9532  0.2535  0.7850
  174SOPE   H8Y19803   2.751   5.020   9.922  0.9580 -0.1330  1.5953
  174SOPE   C3919804   2.594   5.013   9.769 -0.6854  0.6435  0.4112
  174SOPE   H9X19805   2.542   5.104   9.808 -1.4125 -0.4125  2.0375
  174SOPE   H9Y19806   2.515   4.945   9.731  0.3279 -1.1737  1.4005
  174SOPE  C31019807   2.694   5.052   9.661 -0.9702  0.5901  0.1520
  174SOPE  H10X19808   2.757   4.961   9.654 -2.0811 -0.5567  3.2432
  174SOPE  H10Y19809   2.750   5.143   9.692 -0.8427  1.1453 -1.5943
  174SOPE  C31119810   2.634   5.082   9.529 -0.6049  0.1283 -0.0777
  174SOPE  H11X19811   2.718   5.123   9.469  1.1513  0.7419  2.5967
  174SOPE  H11Y19812   2.549   5.153   9.539 -1.4261 -1.1220  2.7560
  174SOPE  C31219813   2.587   4.960   9.449  0.1105 -0.7018  0.6990
  174SOPE  H12X19814   2.506   4.905   9.501 -0.4570  1.2326  1.9264
  174SOPE  H12Y19815   2.675   4.891   9.442  1.2739  0.9076 -2.4743
  174SOPE  C31319816   2.536   4.984   9.305 -0.5931 -0.0234 -0.5469
  174SOPE  H13X19817   2.576   5.080   9.267  0.2980  0.4583  1.5085
  174SOPE  H13Y19818   2.425   4.988   9.297 -0.7778 -0.1340  1.4479
  174SOPE  C31419819   2.599   4.873   9.220 -0.1302  0.5423  0.2900
  174SOPE  H14X19820   2.572   4.769   9.251 -1.2350  1.0732  1.1550
  174SOPE  H14Y19821   2.709   4.881   9.219  0.0766 -1.4793  1.1996
  174SOPE  C31519822   2.572   4.879   9.062  0.3771 -0.2299  0.9096
  174SOPE  H15X19823   2.633   4.799   9.014 -0.5215 -1.8633  2.3822
  174SOPE  H15Y19824   2.607   4.979   9.029  1.6675  0.0035  2.8183
  174SOPE  C31619825   2.424   4.850   9.028 -0.4812 -0.2732  0.1147
  174SOPE  H16X19826   2.356   4.900   9.100  1.5614  1.7080  0.7811
  174SOPE  H16Y19827   2.411   4.740   9.031 -0.0606 -0.3216  3.2948
  174SOPE  C31719828   2.388   4.895   8.886  0.0007  0.5321 -0.5863
  174SOPE  H17X19829   2.459   4.851   8.813  0.8180  2.3215 -0.9419
  174SOPE  H17Y19830   2.408   5.005   8.885 -0.8272  0.6835 -1.6095
  174SOPE  C31819831   2.240   4.865   8.842  0.1655 -0.1628  0.2184
  174SOPE  H18X19832   2.165   4.896   8.918 -1.4104 -1.1577 -0.8753
  174SOPE  H18Y19833   2.212   4.763   8.808 -0.7048 -0.3843  1.5393
  174SOPE  H18Z19834   2.230   4.934   8.756  1.9268  0.3526  0.3856
  175SOPE     N19835   2.655   6.396  10.664  0.1681 -0.3069 -0.2528
  175SOPE   HN119836   2.654   6.324  10.739  2.4629 -1.0018 -0.8198
  175SOPE   HN219837   2.755   6.421  10.646  0.9641 -2.8182  0.3016
  175SOPE   HN319838   2.600   6.479  10.695 -3.2525 -2.5587  0.2902
  175SOPE   C1219839   2.594   6.332  10.548 -0.1279 -0.5417  0.2556
  175SOPE  H12A19840   2.570   6.416  10.479 -0.6729  0.3069  1.4460
  175SOPE  H12B19841   2.500   6.286  10.586 -0.7058  0.8103  0.5095
  175SOPE   C1119842   2.693   6.233  10.475 -0.6375  0.2776  0.9688
  175SOPE  H11A19843   2.791   6.277  10.448 -0.3028 -0.3538  1.1399
  175SOPE  H11B19844   2.634   6.212  10.382  0.8127 -0.6008  0.2090
  175SOPE     P19845   2.660   5.990  10.559 -0.0317  0.2996 -0.2618
  175SOPE   O1319846   2.515   5.985  10.545  0.4941  0.1743  0.1664
  175SOPE   O1419847   2.717   5.918  10.673 -0.3174  0.9440 -0.3089
  175SOPE   O1219848   2.721   6.132  10.564  0.0184 -0.1627 -0.2598
  175SOPE   O1119849   2.719   5.928  10.428  0.3315 -0.0141 -0.0769
  175SOPE    C119850   2.625   5.889  10.321  0.0852 -0.2582  0.4006
  175SOPE    HA19851   2.566   5.979  10.296 -0.7367 -0.9864 -0.3568
  175SOPE    HB19852   2.563   5.807  10.362  1.1777 -0.8283  0.9609
  175SOPE    C219853   2.697   5.856  10.187 -0.1618 -0.1183  0.0485
  175SOPE    HS19854   2.629   5.893  10.108 -0.3892  2.1251  1.2101
  175SOPE   O2119855   2.736   5.718  10.175  0.8555  0.7323 -0.0010
  175SOPE   C2119856   2.649   5.624  10.129 -0.4263 -0.7159  0.0257
  175SOPE   O2219857   2.528   5.641  10.098 -0.9622 -0.3326 -0.6251
  175SOPE   C2219858   2.729   5.493  10.142  0.1924 -0.2329 -0.9149
  175SOPE   H2R19859   2.720   5.458  10.248  1.2867 -1.9297 -1.3374
  175SOPE   H2S19860   2.833   5.509  10.108  0.0257 -0.3178 -1.4806
  175SOPE    C319861   2.831   5.939  10.185  0.3200 -0.1818 -0.2234
  175SOPE    HX19862   2.882   5.911  10.091  0.1733 -2.2576  0.2649
  175SOPE    HY19863   2.886   5.904  10.275 -0.5331 -2.6101 -0.5831
  175SOPE   O3119864   2.805   6.077  10.193 -0.0914 -0.3271  0.0702
  175SOPE   C3119865   2.825   6.150  10.082 -0.1517 -0.4711 -0.1495
  175SOPE   O3219866   2.876   6.111   9.978 -0.3890 -0.2971  0.0483
  175SOPE   C3219867   2.788   6.289  10.119  0.0308 -0.1706  0.4102
  175SOPE   H2X19868   2.817   6.353  10.033 -0.7713 -1.0631 -0.5459
  175SOPE   H2Y19869   2.853   6.303  10.208  0.5327 -0.3970  0.0869
  175SOPE   C2319870   2.669   5.375  10.057 -0.4838  0.6041 -1.1833
  175SOPE   H3R19871   2.562   5.380  10.085  0.1968  2.1314  1.4863
  175SOPE   H3S19872   2.719   5.283  10.091 -1.2085  0.7689  0.4136
  175SOPE   C2419873   2.707   5.385   9.911  0.5362 -0.4084  0.1014
  175SOPE   H4R19874   2.816   5.407   9.913  0.6404 -0.9353  0.2250
  175SOPE   H4S19875   2.686   5.292   9.855  2.3388 -0.4471 -0.5823
  175SOPE   C2519876   2.629   5.497   9.826 -0.3257  0.6538  0.1070
  175SOPE   H5R19877   2.523   5.504   9.857 -0.2241  1.1908  0.3474
  175SOPE   H5S19878   2.666   5.599   9.850 -0.8448  0.7761  0.4118
  175SOPE   C2619879   2.627   5.463   9.681 -0.5972  1.2043  0.3934
  175SOPE   H6R19880   2.733   5.447   9.652 -0.3053  2.6771  0.5589
  175SOPE   H6S19881   2.582   5.363   9.667  1.3253  0.0986  1.5737
  175SOPE   C2719882   2.578   5.576   9.595  0.0983  0.1521  0.1716
  175SOPE   H7R19883   2.476   5.613   9.622 -0.1141 -0.3203  0.0306
  175SOPE   H7S19884   2.649   5.660   9.610 -0.4983  0.3439  2.1630
  175SOPE   C2819885   2.594   5.549   9.447  0.5919 -0.0760  0.6540
  175SOPE   H8R19886   2.544   5.450   9.436 -0.5313  0.2234  2.6498
  175SOPE   H8S19887   2.530   5.621   9.391  0.9183 -0.3604 -0.1072
  175SOPE   C2919888   2.735   5.549   9.387 -0.0651 -0.4273 -0.9816
  175SOPE   H9119889   2.785   5.637   9.428  0.2810 -1.7709  1.7195
  175SOPE  C21019890   2.800   5.460   9.308 -0.0840  0.0824  0.6068
  175SOPE  H10119891   2.909   5.466   9.293  0.5708 -3.0143  3.0029
  175SOPE  C21119892   2.734   5.339   9.249  0.4049 -0.2224  0.3376
  175SOPE  H11R19893   2.641   5.294   9.290  0.4354 -2.4923 -1.8792
  175SOPE  H11S19894   2.806   5.257   9.268 -0.0338 -0.6401  0.2333
  175SOPE  C21219895   2.715   5.346   9.097 -0.1073  0.0898  0.9727
  175SOPE  H12R19896   2.637   5.423   9.080  2.3757  2.8004  1.1031
  175SOPE  H12S19897   2.684   5.244   9.065  2.6504 -0.7247  0.6824
  175SOPE  C21319898   2.847   5.387   9.012  0.5887  0.2931 -0.0882
  175SOPE  H13R19899   2.902   5.292   9.030  0.7111 -0.1671 -2.5439
  175SOPE  H13S19900   2.905   5.469   9.058  2.7772 -1.0372 -0.3481
  175SOPE  C21419901   2.823   5.397   8.861 -0.3260  0.6768  0.4520
  175SOPE  H14R19902   2.786   5.501   8.848 -0.4345  0.6632  0.6531
  175SOPE  H14S19903   2.743   5.330   8.825  1.1314 -0.5858 -0.5911
  175SOPE  C21519904   2.947   5.353   8.785 -0.7133 -0.2856 -0.1504
  175SOPE  H15R19905   2.961   5.245   8.806  0.6136  0.1247  1.2622
  175SOPE  H15S19906   3.034   5.394   8.841 -2.0861 -1.7858  3.3934
  175SOPE  C21619907   2.943   5.392   8.639 -0.7352  0.0716  0.1854
  175SOPE  H16R19908   2.933   5.502   8.629  0.1586  0.1641  0.2502
  175SOPE  H16S19909   2.859   5.346   8.584 -0.7417 -0.8170  0.9166
  175SOPE  C21719910   3.065   5.347   8.564  0.0344 -0.1989 -0.5869
  175SOPE  H17R19911   3.156   5.378   8.620  0.1085 -0.5565 -0.5092
  175SOPE  H17S19912   3.078   5.406   8.471  3.1325 -2.3621 -1.6941
  175SOPE  C21819913   3.069   5.199   8.542  0.3953  0.4357  0.1457
  175SOPE  H18R19914   3.089   5.138   8.633  1.2758 -0.5934 -0.7208
  175SOPE  H18S19915   3.145   5.173   8.466  0.7426 -1.3081  1.0297
  175SOPE  H18T19916   2.968   5.175   8.503 -0.0519  2.2691  0.0668
  175SOPE   C3319917   2.636   6.319  10.138 -0.2945 -0.6755 -0.0853
  175SOPE   H3X19918   2.628   6.410  10.201 -1.3017  1.4652 -3.0989
  175SOPE   H3Y19919   2.597   6.236  10.200  0.9243  0.1968  1.9303
  175SOPE   C3419920   2.546   6.338  10.016  0.6202 -0.1347  0.1286
  175SOPE   H4X19921   2.556   6.242   9.961  2.2220 -1.8883  3.2254
  175SOPE   H4Y19922   2.572   6.422   9.948 -1.5406 -1.2776 -2.3039
  175SOPE   C3519923   2.401   6.374  10.058 -0.5599 -0.7409  0.1098
  175SOPE   H5X19924   2.398   6.480  10.091  0.8524 -0.4078 -0.7567
  175SOPE   H5Y19925   2.357   6.319  10.145 -2.3532  2.1998  1.2248
  175SOPE   C3619926   2.296   6.381   9.940 -0.1632  0.2387 -0.2123
  175SOPE   H6X19927   2.197   6.418   9.975 -0.4101 -1.3392  0.8834
  175SOPE   H6Y19928   2.278   6.278   9.903  0.7418 -0.3171  0.8488
  175SOPE   C3719929   2.323   6.473   9.822 -0.6751  0.5810  0.6010
  175SOPE   H7X19930   2.423   6.450   9.780 -1.7450 -1.3951 -1.1014
  175SOPE   H7Y19931   2.327   6.580   9.849  1.0718  0.5231  0.6581
  175SOPE   C3819932   2.235   6.450   9.697  0.0967  0.2090  0.3010
  175SOPE   H8X19933   2.266   6.526   9.623 -0.9376 -0.5590 -0.9511
  175SOPE   H8Y19934   2.129   6.475   9.723  0.1375 -2.0465  3.2180
  175SOPE   C3919935   2.243   6.315   9.634 -1.0695  0.4908  0.3575
  175SOPE   H9X19936   2.229   6.224   9.695  0.3176  1.2467  1.8917
  175SOPE   H9Y19937   2.343   6.297   9.587 -1.3337  1.8460 -0.7780
  175SOPE  C31019938   2.150   6.310   9.515 -0.0528  0.5901  0.0851
  175SOPE  H10X19939   2.043   6.304   9.546 -0.2602  2.3979 -0.1684
  175SOPE  H10Y19940   2.170   6.211   9.470  1.0212  0.4120  0.9114
  175SOPE  C31119941   2.152   6.423   9.409  0.0615  0.4141  0.5266
  175SOPE  H11X19942   2.256   6.415   9.369  0.5982  1.0508  1.7570
  175SOPE  H11Y19943   2.132   6.521   9.456  1.6741  2.0520 -1.9426
  175SOPE  C31219944   2.057   6.392   9.288 -0.3017  0.0499 -0.1062
  175SOPE  H12X19945   2.084   6.480   9.225  0.7339  0.8723  1.4253
  175SOPE  H12Y19946   1.951   6.397   9.322  0.2684 -0.9069  1.9581
  175SOPE  C31319947   2.089   6.266   9.215 -0.5145 -0.3755  0.0602
  175SOPE  H13X19948   2.045   6.191   9.284 -1.7037  1.3887  1.2753
  175SOPE  H13Y19949   2.197   6.248   9.195 -0.5662  1.7655 -2.7004
  175SOPE  C31419950   2.014   6.246   9.080 -0.0507  0.9276 -0.6936
  175SOPE  H14X19951   1.915   6.285   9.112 -0.4594 -1.5330  1.3388
  175SOPE  H14Y19952   2.004   6.137   9.060  3.6494 -0.2255  2.5357
  175SOPE  C31519953   2.077   6.318   8.965 -0.0715 -0.7245 -0.0017
  175SOPE  H15X19954   2.081   6.255   8.874 -0.8754  1.8560 -1.9195
  175SOPE  H15Y19955   2.183   6.345   8.981 -0.1493  0.4058 -1.2509
  175SOPE  C31619956   2.003   6.443   8.920 -0.6121  0.1096 -0.4368
  175SOPE  H16X19957   2.068   6.495   8.846  0.8921 -3.2036 -1.6876
  175SOPE  H16Y19958   1.988   6.510   9.007  0.5454 -0.4875  0.2564
  175SOPE  C31719959   1.865   6.414   8.856 -0.0944 -0.0811  0.3363
  175SOPE  H17X19960   1.809   6.351   8.928 -2.3075  0.8229 -0.5321
  175SOPE  H17Y19961   1.877   6.362   8.759 -0.8454  0.3794 -0.0100
  175SOPE  C31819962   1.770   6.533   8.832 -0.4732  0.1389  0.3155
  175SOPE  H18X19963   1.776   6.607   8.914 -0.7821  0.3279  0.1684
  175SOPE  H18Y19964   1.661   6.512   8.828 -0.9345  2.4614 -0.5579
  175SOPE  H18Z19965   1.795   6.589   8.739  1.4157 -0.2552  0.5433
  176SOPE     N19966   4.874   0.065  10.937 -0.0378 -0.0830  0.2255
  176SOPE   HN119967   4.908   0.015  10.852 -0.1099  0.1268  0.0735
  176SOPE   HN219968   4.920   0.157  10.923 -0.7150 -0.0553 -2.2012
  176SOPE   HN319969   4.903   0.016  11.024 -0.3145  1.3165  1.1314
  176SOPE   C1219970   4.727   0.062  10.936 -0.5464 -0.2898  0.0594
  176SOPE  H12A19971   4.704   0.108  11.034  2.3221 -2.6869  2.0318
  176SOPE  H12B19972   4.675  -0.036  10.934 -0.7202 -0.1991  0.0532
  176SOPE   C1119973   4.672   0.141  10.819  0.2261 -0.0495 -0.4311
  176SOPE  H11A19974   4.562   0.127  10.815 -0.2086  1.7788  2.6278
  176SOPE  H11B19975   4.711   0.108  10.720  0.1995  4.3409 -2.1201
  176SOPE     P19976   4.601   0.400  10.856  0.1001  0.2789  0.2063
  176SOPE   O1319977   4.653   0.521  10.787 -0.0148 -0.8760 -0.1970
  176SOPE   O1419978   4.576   0.414  11.002  0.1162 -0.1845  0.3910
  176SOPE   O1219979   4.697   0.285  10.833 -0.2760 -0.0067  0.3289
  176SOPE   O1119980   4.472   0.346  10.791  0.3644  0.7658 -0.7261
  176SOPE    C119981   4.358   0.435  10.809  0.2751 -0.3558 -0.2563
  176SOPE    HA19982   4.380   0.543  10.819 -0.2479 -0.0737 -1.8376
  176SOPE    HB19983   4.305   0.399  10.900  0.4461  0.5458  0.2145
  176SOPE    C219984   4.258   0.415  10.694 -0.0718  0.4491 -0.4333
  176SOPE    HS19985   4.157   0.420  10.738 -0.5281 -2.9052 -0.8768
  176SOPE   O2119986   4.278   0.292  10.627 -0.0193  0.0880 -0.3511
  176SOPE   C2119987   4.243   0.180  10.689  0.6395 -0.3905 -0.2747
  176SOPE   O2219988   4.179   0.184  10.797 -0.1460  0.0793  0.4104
  176SOPE   C2219989   4.280   0.054  10.608  1.0783 -0.3617 -0.0415
  176SOPE   H2R19990   4.372   0.012  10.653  1.8266  1.5171  0.2865
  176SOPE   H2S19991   4.302   0.093  10.506 -0.4417 -0.0726 -0.2797
  176SOPE    C319992   4.252   0.520  10.595  0.1455 -0.2954  0.4128
  176SOPE    HX19993   4.253   0.619  10.646  1.1489  0.0092 -0.1823
  176SOPE    HY19994   4.158   0.514  10.536 -1.2006 -0.2061  2.4573
  176SOPE   O3119995   4.371   0.510  10.511  0.2292  0.7288 -0.0950
  176SOPE   C3119996   4.356   0.565  10.393  0.2535 -0.8054  1.1206
  176SOPE   O3219997   4.252   0.607  10.341  0.7473  0.4930 -0.3828
  176SOPE   C3219998   4.496   0.586  10.332  0.0196  0.6429 -0.1576
  176SOPE   H2X19999   4.559   0.495  10.337  0.5593  1.0705  1.3947
  176SOPE   H2Y20000   4.551   0.653  10.402  1.2787 -2.4126  1.9964
  176SOPE   C2320001   4.159  -0.050  10.591  0.5343  0.2562  0.1970
  176SOPE   H3R20002   4.134  -0.093  10.691  0.5303  0.1841  0.1640
  176SOPE   H3S20003   4.197  -0.139  10.538  3.3090 -0.4740  3.1176
  176SOPE   C2420004   4.027   0.000  10.521 -0.1399  0.0033  0.2798
  176SOPE   H4R20005   3.991   0.086  10.582  2.9737  1.5050  0.2317
  176SOPE   H4S20006   4.053   0.023  10.415  1.6484 -0.5759  0.5573
  176SOPE   C2520007   3.918  -0.104  10.530 -0.5890 -0.5871 -1.1133
  176SOPE   H5R20008   3.944  -0.185  10.459  1.0502  0.3502 -1.6286
  176SOPE   H5S20009   3.905  -0.145  10.633  2.4700 -1.8615 -1.1152
  176SOPE   C2620010   3.786  -0.051  10.485 -0.0291 -0.0231  0.5783
  176SOPE   H6R20011   3.719  -0.140  10.493 -0.2100 -0.1337 -1.6644
  176SOPE   H6S20012   3.758   0.037  10.546  0.4215 -0.1741  1.0065
  176SOPE   C2720013   3.776   0.008  10.349  0.5669  0.1184  0.5007
  176SOPE   H7R20014   3.835   0.102  10.345  0.2378  0.3688  1.4839
  176SOPE   H7S20015   3.817  -0.058  10.269  0.1420 -0.3816  0.6818
  176SOPE   C2820016   3.622   0.002  10.309 -1.1775  0.3279 -0.4871
  176SOPE   H8R20017   3.617  -0.103  10.272  1.2802 -0.3566  0.9243
  176SOPE   H8S20018   3.557   0.015  10.398  1.7868  3.0399  1.5180
  176SOPE   C2920019   3.581   0.096  10.197  0.0585 -0.1059 -0.5034
  176SOPE   H9120020   3.565   0.202  10.223  1.4865 -0.1445  0.7034
  176SOPE  C21020021   3.568   0.058  10.071 -1.8116  0.1162  0.9190
  176SOPE  H10120022   3.537   0.135   9.998  1.7934  0.4564 -0.4715
  176SOPE  C21120023   3.590  -0.077  10.008  0.1820 -0.4824 -0.0108
  176SOPE  H11R20024   3.490  -0.117   9.981 -0.5930  0.7901  0.8238
  176SOPE  H11S20025   3.639  -0.146  10.080 -0.6016 -1.0189  0.0226
  176SOPE  C21220026   3.686  -0.101   9.889 -0.2939  0.3486 -0.5434
  176SOPE  H12R20027   3.705  -0.207   9.859  2.0505 -0.1339  2.1969
  176SOPE  H12S20028   3.784  -0.065   9.927 -1.2151  0.5341  1.8545
  176SOPE  C21320029   3.662  -0.019   9.764 -0.3574  0.3821 -0.0330
  176SOPE  H13R20030   3.761  -0.022   9.715 -0.4136 -3.1100 -0.1813
  176SOPE  H13S20031   3.629   0.082   9.797  0.8739  0.9063 -0.3533
  176SOPE  C21420032   3.553  -0.088   9.674 -0.7695 -0.1193 -0.1699
  176SOPE  H14R20033   3.459  -0.088   9.732 -0.0671  3.0659  1.2386
  176SOPE  H14S20034   3.572  -0.194   9.649  1.5934  0.6175 -1.9683
  176SOPE  C21520035   3.533  -0.014   9.543 -0.0429  0.1699 -0.6207
  176SOPE  H15R20036   3.619  -0.007   9.473  1.1504  0.1570  0.7951
  176SOPE  H15S20037   3.499   0.089   9.569  0.9401  0.6970 -1.3460
  176SOPE  C21620038   3.435  -0.083   9.454 -0.2085 -0.3148  0.4436
  176SOPE  H16R20039   3.339  -0.089   9.509 -0.1391 -1.7456  0.4429
  176SOPE  H16S20040   3.457  -0.189   9.429 -2.3359 -0.6788 -0.0533
  176SOPE  C21720041   3.415  -0.009   9.316 -0.2964  0.2268 -0.1697
  176SOPE  H17R20042   3.515  -0.004   9.268  0.2355  0.4510  0.9476
  176SOPE  H17S20043   3.382   0.093   9.345  1.1878  0.0330  2.5162
  176SOPE  C21820044   3.330  -0.074   9.213  0.0259  0.2734  0.5646
  176SOPE  H18R20045   3.223  -0.054   9.233 -0.0883  0.3770 -0.1290
  176SOPE  H18S20046   3.331  -0.185   9.213  0.9108  0.2704  0.4710
  176SOPE  H18T20047   3.357  -0.043   9.109 -1.4786 -0.8510 -0.2008
  176SOPE   C3320048   4.486   0.636  10.187 -0.1401 -0.2024 -0.2285
  176SOPE   H3X20049   4.586   0.675  10.157  0.1293 -0.5624  0.1887
  176SOPE   H3Y20050   4.418   0.723  10.180 -0.2755 -0.0284  2.2448
  176SOPE   C3420051   4.429   0.520  10.094  0.2305  0.4629 -0.5463
  176SOPE   H4X20052   4.322   0.515  10.122 -0.2218 -1.7250 -2.4003
  176SOPE   H4Y20053   4.473   0.421  10.118 -1.8929 -1.1359 -2.8351
  176SOPE   C3520054   4.450   0.558   9.952 -0.6114 -0.1355  0.0682
  176SOPE   H5X20055   4.558   0.566   9.928 -1.1105  1.8861 -1.7482
  176SOPE   H5Y20056   4.412   0.661   9.934 -1.4094 -0.7979 -2.4789
  176SOPE   C3620057   4.372   0.474   9.854  0.2209  0.3571 -0.7638
  176SOPE   H6X20058   4.263   0.483   9.872  0.3492  0.6351 -0.0998
  176SOPE   H6Y20059   4.405   0.371   9.880  1.0553  0.9993  0.8324
  176SOPE   C3720060   4.399   0.517   9.705 -0.0401  0.3412  0.1265
  176SOPE   H7X20061   4.510   0.522   9.703 -0.0234 -0.1278 -1.3025
  176SOPE   H7Y20062   4.357   0.613   9.668 -0.1946  0.0185 -0.5530
  176SOPE   C3820063   4.344   0.405   9.614  0.1777 -0.3210  0.3868
  176SOPE   H8X20064   4.233   0.418   9.609 -0.2098 -3.4094 -1.3984
  176SOPE   H8Y20065   4.352   0.301   9.653 -3.3559 -0.3624  1.3972
  176SOPE   C3920066   4.405   0.432   9.478  0.2046  0.0636  0.6852
  176SOPE   H9X20067   4.505   0.385   9.465  0.3919  1.0167 -1.8053
  176SOPE   H9Y20068   4.426   0.538   9.452  0.9383 -0.2675 -0.1137
  176SOPE  C31020069   4.312   0.383   9.362 -0.5273 -0.2404  0.0932
  176SOPE  H10X20070   4.215   0.436   9.370  0.5568  1.6196  1.7126
  176SOPE  H10Y20071   4.290   0.276   9.382 -3.5877  0.4947  1.2914
  176SOPE  C31120072   4.390   0.396   9.223 -0.1336  0.7361  0.1242
  176SOPE  H11X20073   4.492   0.352   9.229  0.6114  2.3129 -0.3343
  176SOPE  H11Y20074   4.397   0.506   9.212 -0.1849  1.0543  2.5521
  176SOPE  C31220075   4.304   0.335   9.111 -0.0225  0.3245 -0.1716
  176SOPE  H12X20076   4.200   0.363   9.139  0.5023  1.0642  1.1266
  176SOPE  H12Y20077   4.301   0.225   9.120 -0.3868  0.4050  0.7737
  176SOPE  C31320078   4.343   0.373   8.968  1.4348 -0.6620  0.2412
  176SOPE  H13X20079   4.439   0.319   8.952  2.1840  0.5611  0.4816
  176SOPE  H13Y20080   4.363   0.482   8.958 -2.8455  0.0458 -3.4247
  176SOPE  C31420081   4.241   0.326   8.869 -0.1696 -0.3701  0.1619
  176SOPE  H14X20082   4.275   0.369   8.772  0.8618 -1.6709 -0.0705
  176SOPE  H14Y20083   4.146   0.370   8.906 -1.2283 -0.5988 -2.1016
  176SOPE  C31520084   4.234   0.168   8.852 -0.3421 -0.3044  0.2806
  176SOPE  H15X20085   4.141   0.143   8.796  0.0663 -2.1464  0.3684
  176SOPE  H15Y20086   4.219   0.115   8.949 -1.4632 -1.6431 -0.5848
  176SOPE  C31620087   4.364   0.108   8.795 -0.2697  0.6916  0.5114
  176SOPE  H16X20088   4.446   0.079   8.864  0.9210 -0.8673 -1.4409
  176SOPE  H16Y20089   4.401   0.186   8.725 -0.0489  1.9442  1.9561
  176SOPE  C31720090   4.332  -0.024   8.729 -0.2666  0.1344  0.6049
  176SOPE  H17X20091   4.411  -0.029   8.651 -0.2374  1.4186  0.5444
  176SOPE  H17Y20092   4.229  -0.018   8.689  0.6272  0.7515 -1.8085
  176SOPE  C31820093   4.355  -0.149   8.822  0.5560  0.3555 -0.2012
  176SOPE  H18X20094   4.451  -0.134   8.876 -0.6359  4.4466  1.1463
  176SOPE  H18Y20095   4.373  -0.239   8.759  0.9045  0.3570 -0.1073
  176SOPE  H18Z20096   4.283  -0.162   8.906  2.3471 -2.4109  1.0541
  177SOPE     N20097   2.907   2.810  11.041 -0.4902 -0.6806  0.0536
  177SOPE   HN120098   2.969   2.893  11.030 -1.0119 -0.5748 -2.8511
  177SOPE   HN220099   2.875   2.788  11.137 -2.2924 -2.8542 -0.9555
  177SOPE   HN320100   2.970   2.732  11.013  2.5305  1.6552 -0.1733
  177SOPE   C1220101   2.794   2.834  10.940 -0.1026 -0.9232  0.8989
  177SOPE  H12A20102   2.721   2.751  10.933 -1.1077  0.0202 -0.5944
  177SOPE  H12B20103   2.841   2.843  10.839 -1.4329 -1.6794  0.1693
  177SOPE   C1120104   2.724   2.973  10.971 -0.0246  0.3093  0.2990
  177SOPE  H11A20105   2.644   2.964  11.047 -0.8658  0.6530 -0.5213
  177SOPE  H11B20106   2.666   2.991  10.878  0.0803 -0.9511 -0.0342
  177SOPE     P20107   2.780   3.224  10.992 -0.2919 -0.0942 -0.3804
  177SOPE   O1320108   2.898   3.312  10.979 -0.1828 -0.5215  0.0158
  177SOPE   O1420109   2.706   3.243  11.118  0.3241  0.0027 -0.6099
  177SOPE   O1220110   2.828   3.075  10.991  0.2482  0.3028  0.4685
  177SOPE   O1120111   2.691   3.235  10.866 -0.0492  0.0047 -0.4260
  177SOPE    C120112   2.732   3.217  10.734  0.7895 -0.7500 -0.2781
  177SOPE    HA20113   2.650   3.159  10.686  2.0238 -2.3607 -0.5334
  177SOPE    HB20114   2.820   3.149  10.735 -0.6179 -2.6834 -0.8905
  177SOPE    C220115   2.755   3.344  10.660  0.4204 -0.1521  0.5083
  177SOPE    HS20116   2.825   3.398  10.729 -0.6850 -2.3459  3.5325
  177SOPE   O2120117   2.630   3.418  10.633 -0.2346 -0.2491 -0.4449
  177SOPE   C2120118   2.623   3.530  10.699  0.0548  0.0998  0.3697
  177SOPE   O2220119   2.703   3.578  10.777  0.1804 -0.0191  0.6335
  177SOPE   C2220120   2.495   3.594  10.645 -0.3334  0.0457  0.0348
  177SOPE   H2R20121   2.494   3.698  10.683  3.2887  0.3185 -0.2756
  177SOPE   H2S20122   2.408   3.535  10.682  0.1213 -0.7373 -0.1229
  177SOPE    C320123   2.833   3.311  10.520 -0.0100  0.4110 -0.4068
  177SOPE    HX20124   2.763   3.250  10.459  2.1570 -1.7293 -0.9013
  177SOPE    HY20125   2.914   3.244  10.554 -0.6429 -1.0233 -1.5872
  177SOPE   O3120126   2.878   3.431  10.444  0.4219  0.6272 -0.3524
  177SOPE   C3120127   3.004   3.431  10.412 -0.8349 -0.7938  0.1275
  177SOPE   O3220128   3.079   3.331  10.417 -0.1450 -0.0674 -0.1078
  177SOPE   C3220129   3.038   3.575  10.361  0.0683 -0.0627  0.0416
  177SOPE   H2X20130   3.117   3.574  10.283 -0.9932  1.3850 -1.1109
  177SOPE   H2Y20131   3.073   3.635  10.448  1.2466 -0.4221 -0.1593
  177SOPE   C2320132   2.489   3.591  10.491  0.4570  0.2847 -0.7469
  177SOPE   H3R20133   2.478   3.485  10.460 -0.6116  0.4564 -0.9995
  177SOPE   H3S20134   2.582   3.635  10.450  1.4171 -0.7350  0.2642
  177SOPE   C2420135   2.369   3.683  10.454 -0.7083  0.4793  0.6482
  177SOPE   H4R20136   2.334   3.644  10.356  2.2960 -1.4387  0.1880
  177SOPE   H4S20137   2.292   3.670  10.533  1.8804 -1.7752  3.0093
  177SOPE   C2520138   2.403   3.836  10.445 -0.2693 -0.0134 -0.1474
  177SOPE   H5R20139   2.317   3.906  10.437 -0.5635 -0.2940  0.4794
  177SOPE   H5S20140   2.464   3.861  10.534  1.7177  0.8839 -1.7016
  177SOPE   C2620141   2.493   3.882  10.333  0.5881  1.5239  0.5085
  177SOPE   H6R20142   2.509   3.991  10.347 -1.3096  2.0510 -1.0054
  177SOPE   H6S20143   2.590   3.829  10.348 -0.7336 -0.3526  3.0359
  177SOPE   C2720144   2.435   3.854  10.192 -0.5539 -0.1491 -0.3540
  177SOPE   H7R20145   2.452   3.746  10.175  0.8969  0.3318 -2.3029
  177SOPE   H7S20146   2.326   3.876  10.203 -0.4678 -0.1223  0.5378
  177SOPE   C2820147   2.483   3.942  10.071  0.7623  0.1813  0.4234
  177SOPE   H8R20148   2.415   3.920   9.985  1.2376  1.2918 -0.2514
  177SOPE   H8S20149   2.448   4.042  10.103 -1.6787 -0.1708 -0.8645
  177SOPE   C2920150   2.626   3.948  10.042  0.7850 -0.1379 -0.1559
  177SOPE   H9120151   2.683   3.972  10.133 -0.2842 -0.0942  0.5225
  177SOPE  C21020152   2.700   3.929   9.933 -0.1330 -0.6045  0.4168
  177SOPE  H10120153   2.809   3.939   9.936  0.0216 -2.0351  0.2260
  177SOPE  C21120154   2.642   3.886   9.799  0.8785 -0.1936  0.2265
  177SOPE  H11R20155   2.661   3.979   9.742  3.6409 -1.3308 -0.8505
  177SOPE  H11S20156   2.537   3.849   9.798  0.6792  0.3767 -0.3716
  177SOPE  C21220157   2.715   3.773   9.721  0.4058  0.1942  0.2825
  177SOPE  H12R20158   2.699   3.670   9.760 -1.3700 -0.0146 -0.9142
  177SOPE  H12S20159   2.824   3.797   9.715 -0.1093  3.2391  1.3471
  177SOPE  C21320160   2.685   3.772   9.569  0.2661 -0.0025  0.3795
  177SOPE  H13R20161   2.661   3.877   9.540  0.0089  0.3629  1.7890
  177SOPE  H13S20162   2.594   3.712   9.549  1.2128 -2.2526  2.3842
  177SOPE  C21420163   2.805   3.712   9.496 -0.1451 -0.5669 -0.1021
  177SOPE  H14R20164   2.829   3.613   9.540  1.4326  0.6230  1.8804
  177SOPE  H14S20165   2.900   3.766   9.518 -0.3334 -0.3664  0.2200
  177SOPE  C21520166   2.769   3.683   9.346 -0.4196  0.5136 -1.1669
  177SOPE  H15R20167   2.751   3.781   9.298  0.1119  0.6026 -1.1961
  177SOPE  H15S20168   2.667   3.641   9.333  0.0853 -0.9036 -0.7959
  177SOPE  C21620169   2.878   3.585   9.293 -0.0615  0.3467  0.3110
  177SOPE  H16R20170   2.877   3.506   9.372 -1.4858 -0.2280 -0.2475
  177SOPE  H16S20171   2.967   3.651   9.293 -0.0871  0.3853 -0.0936
  177SOPE  C21720172   2.849   3.530   9.155 -0.2263  0.7161 -0.2632
  177SOPE  H17R20173   2.757   3.469   9.162  0.4950 -0.2718  1.3880
  177SOPE  H17S20174   2.933   3.465   9.122 -0.6668 -0.9681  1.7412
  177SOPE  C21820175   2.821   3.643   9.046  0.4873  0.0283 -0.4017
  177SOPE  H18R20176   2.805   3.594   8.948 -2.9616 -2.1593  1.0803
  177SOPE  H18S20177   2.901   3.720   9.048  0.1100  0.4321 -0.6319
  177SOPE  H18T20178   2.717   3.678   9.063 -1.0864 -3.1787 -2.4463
  177SOPE   C3320179   2.919   3.653  10.300 -0.7568 -0.4174  0.5517
  177SOPE   H3X20180   2.930   3.760  10.328  0.2784  0.4811 -2.7510
  177SOPE   H3Y20181   2.821   3.623  10.341 -1.4745  1.9264  0.7041
  177SOPE   C3420182   2.930   3.661  10.146 -0.0519  0.7466 -0.6576
  177SOPE   H4X20183   3.037   3.658  10.117 -0.6427 -0.1333 -2.9550
  177SOPE   H4Y20184   2.876   3.747  10.098 -0.8249 -1.0774 -3.3304
  177SOPE   C3520185   2.871   3.530  10.082 -0.2799 -0.3790 -0.1075
  177SOPE   H5X20186   2.909   3.431  10.117 -0.9616 -1.3243 -1.8684
  177SOPE   H5Y20187   2.894   3.535   9.973 -0.3510 -0.3100 -0.1182
  177SOPE   C3620188   2.719   3.513  10.102 -0.0319  0.0042  0.7947
  177SOPE   H6X20189   2.675   3.613  10.082 -0.8644 -0.2411  1.3414
  177SOPE   H6Y20190   2.689   3.499  10.208  0.7996  2.6321  1.4713
  177SOPE   C3720191   2.654   3.431  10.000 -0.7027  0.2153  1.1806
  177SOPE   H7X20192   2.701   3.330   9.994 -2.0365 -0.6506  3.5541
  177SOPE   H7Y20193   2.677   3.470   9.899  2.3352 -1.2197  1.2144
  177SOPE   C3820194   2.504   3.424  10.026  0.8565 -0.3067  0.9865
  177SOPE   H8X20195   2.455   3.523  10.021  0.9201 -0.2751  0.9923
  177SOPE   H8Y20196   2.479   3.368  10.119 -1.5273 -1.5795 -0.3138
  177SOPE   C3920197   2.438   3.344   9.909  0.5693 -0.4710 -0.1437
  177SOPE   H9X20198   2.332   3.321   9.934  0.4221 -1.2265 -1.4060
  177SOPE   H9Y20199   2.503   3.254   9.912  1.3630  0.0085  4.0933
  177SOPE  C31020200   2.449   3.404   9.774  0.2255  0.0092  0.9793
  177SOPE  H10X20201   2.550   3.395   9.729  0.2127  1.8604  0.5164
  177SOPE  H10Y20202   2.415   3.509   9.774 -2.2829 -0.6821 -1.7493
  177SOPE  C31120203   2.364   3.320   9.672  0.5741  0.2453 -0.8496
  177SOPE  H11X20204   2.260   3.295   9.702  0.3505  0.3384 -1.5309
  177SOPE  H11Y20205   2.410   3.219   9.659  0.7723 -0.1931  2.3170
  177SOPE  C31220206   2.371   3.389   9.534  0.0943  0.3835  0.8979
  177SOPE  H12X20207   2.477   3.404   9.503  0.2360 -0.3306  1.0153
  177SOPE  H12Y20208   2.332   3.493   9.543  0.8569  0.6531  1.2261
  177SOPE  C31320209   2.303   3.317   9.415 -0.3525 -0.6356  0.4729
  177SOPE  H13X20210   2.204   3.287   9.455 -0.6794 -0.5968 -0.2760
  177SOPE  H13Y20211   2.350   3.220   9.386 -2.7886 -1.7487 -0.0432
  177SOPE  C31420212   2.303   3.398   9.292  0.0908 -0.3600 -0.2403
  177SOPE  H14X20213   2.309   3.507   9.312  0.9016 -0.5981  0.9491
  177SOPE  H14Y20214   2.206   3.383   9.242 -1.5623  1.7189  2.0533
  177SOPE  C31520215   2.422   3.358   9.201  0.5528  0.5575 -0.7940
  177SOPE  H15X20216   2.422   3.247   9.194  2.0924 -0.0225  4.3772
  177SOPE  H15Y20217   2.519   3.386   9.248 -1.1412  1.2455  2.6369
  177SOPE  C31620218   2.415   3.426   9.062  0.3462  1.0943 -0.6369
  177SOPE  H16X20219   2.507   3.393   9.009 -1.2552  2.6924 -4.7854
  177SOPE  H16Y20220   2.413   3.537   9.068 -3.1642  1.0481  3.2157
  177SOPE  C31720221   2.295   3.381   8.969 -0.0637 -0.5556 -0.1202
  177SOPE  H17X20222   2.200   3.427   9.005  0.8691  2.1720 -0.8806
  177SOPE  H17Y20223   2.278   3.272   8.958 -3.3655 -0.0617 -0.7490
  177SOPE  C31820224   2.317   3.442   8.829 -0.1285  0.9096  0.8307
  177SOPE  H18X20225   2.426   3.433   8.808 -0.0903 -1.4503  1.7284
  177SOPE  H18Y20226   2.272   3.544   8.820 -1.1897  0.5198  1.5337
  177SOPE  H18Z20227   2.270   3.375   8.754  0.4853  0.1646  1.0989
  178SOPE     N20228   0.151   1.689  10.935  0.8776 -0.1755 -0.3878
  178SOPE   HN120229   0.195   1.741  11.014  2.7746  0.0667 -1.5328
  178SOPE   HN220230   0.077   1.631  10.979 -1.0665  2.4958  0.1647
  178SOPE   HN320231   0.227   1.632  10.894  0.3966  0.2007 -1.8439
  178SOPE   C1220232   0.093   1.773  10.820  0.4497 -0.2456 -0.7035
  178SOPE  H12A20233   0.182   1.829  10.785  0.6067  1.3017  1.9249
  178SOPE  H12B20234   0.025   1.849  10.863 -1.0703 -0.7984 -2.0335
  178SOPE   C1120235   0.011   1.699  10.710 -0.2845 -0.3699  0.1068
  178SOPE  H11A20236  -0.021   1.772  10.632 -1.1328  1.7144  2.2547
  178SOPE  H11B20237  -0.081   1.652  10.752  0.8530 -2.3715  0.4494
  178SOPE     P20238   0.092   1.454  10.665 -0.1020  0.1310  0.2239
  178SOPE   O1320239  -0.033   1.405  10.599 -0.2737  0.2715  0.4418
  178SOPE   O1420240   0.100   1.422  10.809  0.0168 -0.3889 -0.2926
  178SOPE   O1220241   0.098   1.610  10.648 -0.8509 -0.2326  0.6913
  178SOPE   O1120242   0.213   1.404  10.583 -0.2053  0.5344  0.1030
  178SOPE    C120243   0.213   1.436  10.440  0.0649 -0.1027  0.7827
  178SOPE    HA20244   0.294   1.506  10.412  0.3242 -1.4014 -2.0687
  178SOPE    HB20245   0.125   1.485  10.392 -0.1154  0.6579  1.8430
  178SOPE    C220246   0.230   1.308  10.349 -0.0819 -0.8205 -0.6391
  178SOPE    HS20247   0.337   1.281  10.361  0.5293  0.7958 -2.0823
  178SOPE   O2120248   0.204   1.345  10.216  0.4176 -0.4805  0.3074
  178SOPE   C2120249   0.268   1.276  10.132 -0.9208 -0.3070  0.1545
  178SOPE   O2220250   0.343   1.179  10.152  0.0397 -0.2459 -0.2675
  178SOPE   C2220251   0.234   1.330   9.989 -0.2646  0.5705 -0.2558
  178SOPE   H2R20252   0.275   1.433   9.978  2.4396 -0.5056 -0.9743
  178SOPE   H2S20253   0.124   1.325   9.986 -0.3030 -1.5779  1.8626
  178SOPE    C320254   0.123   1.206  10.389  0.4039 -0.1722 -0.4721
  178SOPE    HX20255   0.031   1.241  10.339 -1.0870 -1.7164  1.0494
  178SOPE    HY20256   0.089   1.202  10.495  0.5826 -1.1297 -0.4344
  178SOPE   O3120257   0.159   1.074  10.343 -0.0710 -0.0665  0.3010
  178SOPE   C3120258   0.088   0.974  10.386  0.2318 -0.3440 -0.4136
  178SOPE   O3220259   0.001   0.991  10.473 -0.2501  0.2843  0.4243
  178SOPE   C3220260   0.124   0.842  10.330  0.1553  0.5813  0.0319
  178SOPE   H2X20261   0.117   0.765  10.409  0.8255  1.8614  1.3883
  178SOPE   H2Y20262   0.234   0.841  10.315  0.2978  1.2628  0.9572
  178SOPE   C2320263   0.290   1.247   9.877 -0.2930 -0.4716 -0.1366
  178SOPE   H3R20264   0.276   1.138   9.893  2.3856 -0.6704  1.2921
  178SOPE   H3S20265   0.399   1.263   9.889  0.1967 -1.7346 -2.3704
  178SOPE   C2420266   0.237   1.285   9.740 -0.3807  0.0539 -0.1716
  178SOPE   H4R20267   0.275   1.208   9.670  2.0254  0.5197  0.5290
  178SOPE   H4S20268   0.127   1.271   9.731 -0.2424 -0.1240 -1.9594
  178SOPE   C2520269   0.267   1.427   9.679 -0.2059  0.0326  0.3463
  178SOPE   H5R20270   0.222   1.496   9.754  1.9093  2.8371 -0.7841
  178SOPE   H5S20271   0.377   1.434   9.678  0.1949 -3.7833 -2.0486
  178SOPE   C2620272   0.211   1.449   9.535 -0.0536  0.4881 -0.0321
  178SOPE   H6R20273   0.105   1.418   9.536 -0.1911  0.5513  3.6606
  178SOPE   H6S20274   0.226   1.558   9.517  2.4263  0.1210 -0.6039
  178SOPE   C2720275   0.299   1.375   9.430  0.4231 -0.0750 -0.0196
  178SOPE   H7R20276   0.403   1.413   9.432  0.7636 -0.8433 -1.5747
  178SOPE   H7S20277   0.300   1.269   9.466  0.8115 -0.4860 -1.1934
  178SOPE   C2820278   0.243   1.392   9.285  0.2850  0.0518 -0.1507
  178SOPE   H8R20279   0.204   1.493   9.264 -0.6615 -0.4095 -0.6895
  178SOPE   H8S20280   0.322   1.360   9.213 -1.6724 -0.6278 -2.1242
  178SOPE   C2920281   0.130   1.295   9.259  0.6326  0.4644 -0.0542
  178SOPE   H9120282   0.155   1.190   9.279 -0.4041  0.0846 -0.6600
  178SOPE  C21020283   0.001   1.321   9.234 -0.9011 -0.0576  0.3294
  178SOPE  H10120284  -0.068   1.242   9.201  0.5979  0.4701 -5.0673
  178SOPE  C21120285  -0.058   1.460   9.226 -0.0706 -0.1805 -0.0738
  178SOPE  H11R20286  -0.019   1.529   9.304  0.1640 -0.1726 -0.1974
  178SOPE  H11S20287  -0.164   1.439   9.250 -0.1243 -0.9426 -0.9517
  178SOPE  C21220288  -0.078   1.533   9.086 -0.2378 -0.3761 -0.4637
  178SOPE  H12R20289   0.022   1.565   9.051 -0.3307 -0.2781 -0.6424
  178SOPE  H12S20290  -0.127   1.629   9.112  1.0268  0.4278 -0.9787
  178SOPE  C21320291  -0.147   1.452   8.982 -0.2021 -0.1383 -0.8622
  178SOPE  H13R20292  -0.236   1.412   9.037 -0.0303  2.9315  1.9620
  178SOPE  H13S20293  -0.073   1.375   8.952  1.0014  0.1663  1.1290
  178SOPE  C21420294  -0.183   1.544   8.863  0.2453 -0.0177 -0.7141
  178SOPE  H14R20295  -0.231   1.638   8.898  0.8313  0.4062 -1.0234
  178SOPE  H14S20296  -0.257   1.497   8.796  0.0192 -0.9136  0.1457
  178SOPE  C21520297  -0.062   1.569   8.770 -0.4231  0.1207  0.1838
  178SOPE  H15R20298   0.019   1.625   8.821 -2.0475  1.2270  1.6917
  178SOPE  H15S20299  -0.103   1.633   8.689 -0.1295 -0.0301 -0.0817
  178SOPE  C21620300   0.001   1.442   8.704 -0.6458  0.4360  0.4064
  178SOPE  H16R20301  -0.090   1.380   8.690  0.1161 -1.8213  4.0388
  178SOPE  H16S20302   0.072   1.395   8.776  1.6573 -0.4291 -2.2418
  178SOPE  C21720303   0.077   1.469   8.569 -0.5201  0.7231  1.3630
  178SOPE  H17R20304   0.135   1.561   8.594 -0.4320  1.0511  0.0399
  178SOPE  H17S20305   0.009   1.492   8.484 -0.4189 -2.4656  0.3031
  178SOPE  C21820306   0.181   1.358   8.529  0.2931 -0.2753  0.1169
  178SOPE  H18R20307   0.221   1.398   8.433 -1.0815  0.7416 -0.0566
  178SOPE  H18S20308   0.126   1.261   8.530 -0.4535  0.1281  2.2820
  178SOPE  H18T20309   0.256   1.358   8.611 -2.0414  0.3003  2.3991
  178SOPE   C3320310   0.048   0.800  10.203  0.0638  0.1290 -0.0988
  178SOPE   H3X20311  -0.058   0.831  10.219  0.1239 -0.7749  2.5194
  178SOPE   H3Y20312   0.048   0.689  10.191  2.5128  0.1538 -0.8090
  178SOPE   C3420313   0.101   0.851  10.068 -0.4279 -0.5452  0.0883
  178SOPE   H4X20314   0.201   0.813  10.037 -0.4979 -0.3788 -0.3367
  178SOPE   H4Y20315   0.112   0.962  10.070 -3.2009 -0.2085 -0.1404
  178SOPE   C3520316   0.010   0.840   9.936 -0.5239  0.0312  0.1401
  178SOPE   H5X20317  -0.094   0.869   9.962 -1.5348 -3.3939  0.4980
  178SOPE   H5Y20318  -0.002   0.731   9.914 -0.1121  0.1785 -0.8381
  178SOPE   C3620319   0.068   0.900   9.813 -0.5504 -0.5775 -0.1086
  178SOPE   H6X20320   0.176   0.874   9.804  0.3323  0.1020  5.4662
  178SOPE   H6Y20321   0.044   1.008   9.808 -3.6418 -1.2045 -0.9611
  178SOPE   C3720322   0.015   0.834   9.685 -0.2568  0.4146  0.1756
  178SOPE   H7X20323  -0.095   0.841   9.677 -0.6574 -3.4331  0.4607
  178SOPE   H7Y20324   0.039   0.726   9.680 -2.5400 -0.1584  0.4520
  178SOPE   C3820325   0.081   0.902   9.562  0.0566 -0.8043  0.2368
  178SOPE   H8X20326   0.187   0.870   9.554  0.3595  0.1875  0.1318
  178SOPE   H8Y20327   0.081   1.013   9.567  0.8624 -0.8322  1.3715
  178SOPE   C3920328   0.014   0.854   9.424 -0.7087 -0.4028 -1.0601
  178SOPE   H9X20329  -0.095   0.874   9.432 -0.6352 -0.2979 -0.2600
  178SOPE   H9Y20330   0.040   0.747   9.410 -2.9204 -1.1398  0.1046
  178SOPE  C31020331   0.073   0.923   9.307 -0.7213 -0.4032  0.2745
  178SOPE  H10X20332   0.180   0.894   9.306 -0.4667  0.2775 -3.2839
  178SOPE  H10Y20333   0.062   1.033   9.319  1.5743 -0.0172 -0.7174
  178SOPE  C31120334   0.018   0.879   9.173 -0.0231 -0.6387 -0.1976
  178SOPE  H11X20335  -0.092   0.891   9.165  0.1389  0.9135 -0.4928
  178SOPE  H11Y20336   0.034   0.770   9.159 -0.0462 -1.0810  2.7593
  178SOPE  C31220337   0.090   0.946   9.057  0.3484 -0.2026 -0.4949
  178SOPE  H12X20338   0.193   0.904   9.053  0.8499  0.9747 -0.2184
  178SOPE  H12Y20339   0.098   1.056   9.056 -0.3808 -0.1444 -0.9625
  178SOPE  C31320340   0.039   0.904   8.919  0.2050  0.7334 -1.0360
  178SOPE  H13X20341  -0.065   0.941   8.905  1.3290  3.7454 -2.2095
  178SOPE  H13Y20342   0.054   0.795   8.904 -2.4588  0.6182 -4.0895
  178SOPE  C31420343   0.119   0.968   8.808 -0.0665 -0.5919  0.0058
  178SOPE  H14X20344   0.225   0.938   8.823 -0.2713 -0.7262  1.3142
  178SOPE  H14Y20345   0.114   1.079   8.798  2.1655 -0.3291  1.1055
  178SOPE  C31520346   0.072   0.907   8.675 -0.9172 -0.3300 -0.5119
  178SOPE  H15X20347   0.096   0.799   8.683  2.1699  0.3300  0.2574
  178SOPE  H15Y20348   0.120   0.956   8.587  2.1476  0.8525  1.6581
  178SOPE  C31620349  -0.083   0.924   8.650 -0.3833  0.5629  0.2688
  178SOPE  H16X20350  -0.123   1.027   8.650 -2.5055 -0.1156 -3.1917
  178SOPE  H16Y20351  -0.142   0.869   8.727  0.6332 -0.1096  0.5888
  178SOPE  C31720352  -0.105   0.846   8.518  0.3701  0.0979 -0.2524
  178SOPE  H17X20353  -0.069   0.741   8.529 -0.4702 -0.1114  0.6755
  178SOPE  H17Y20354  -0.051   0.891   8.432 -1.7101  1.2233 -1.0395
  178SOPE  C31820355  -0.256   0.843   8.470 -0.5256  0.4748  0.2601
  178SOPE  H18X20356  -0.315   0.786   8.545 -0.8893 -0.1208 -0.4683
  178SOPE  H18Y20357  -0.267   0.810   8.365  3.2447  0.2093 -0.1622
  178SOPE  H18Z20358  -0.291   0.949   8.476  1.7419  1.2403  0.8040
  179SOPE     N20359   2.833   2.703   6.308  0.3201  1.0079  0.0149
  179SOPE   HN120360   2.856   2.763   6.226  1.6568  0.6849  0.1354
  179SOPE   HN220361   2.752   2.640   6.290 -0.7675  2.6550 -1.2157
  179SOPE   HN320362   2.816   2.779   6.377  0.4327 -0.1814  1.3774
  179SOPE   C1220363   2.958   2.635   6.352 -0.4008 -0.4626  0.1692
  179SOPE  H12A20364   3.040   2.703   6.322  0.0288 -1.2820 -0.5769
  179SOPE  H12B20365   2.970   2.538   6.299  0.4662  0.3366 -1.1416
  179SOPE   C1120366   2.963   2.608   6.503 -0.5598  0.6576 -0.3340
  179SOPE  H11A20367   2.974   2.704   6.558 -1.6874 -1.1513  3.3895
  179SOPE  H11B20368   3.064   2.565   6.518 -0.1489  1.5836 -0.4006
  179SOPE     P20369   2.849   2.370   6.528 -0.1673  0.0034 -0.0598
  179SOPE   O1320370   2.842   2.339   6.382 -0.2232  0.3235  0.0062
  179SOPE   O1420371   2.736   2.318   6.612  0.3485  0.9939  0.2294
  179SOPE   O1220372   2.858   2.526   6.550  0.2670 -0.6146  0.2078
  179SOPE   O1120373   2.983   2.311   6.594 -0.1613 -0.2957 -0.0938
  179SOPE    C120374   3.004   2.170   6.601 -0.0239  0.0938  0.0831
  179SOPE    HA20375   3.108   2.143   6.573 -1.1747 -1.9080 -2.6953
  179SOPE    HB20376   2.953   2.105   6.526 -1.8952 -0.7694  1.9752
  179SOPE    C220377   2.978   2.106   6.746  0.0833 -0.7374  0.2685
  179SOPE    HS20378   2.884   2.149   6.786  1.1862 -0.0137  2.2517
  179SOPE   O2120379   3.084   2.147   6.835 -0.2179 -0.3149  0.2995
  179SOPE   C2120380   3.063   2.261   6.901  0.5721  0.0015 -0.2591
  179SOPE   O2220381   2.956   2.326   6.914  0.2284  0.2099  0.1418
  179SOPE   C2220382   3.198   2.304   6.957  0.2861 -0.1599  0.0131
  179SOPE   H2R20383   3.273   2.336   6.881  0.7302 -1.6475 -0.2208
  179SOPE   H2S20384   3.251   2.213   6.993  1.1834  0.5185  0.4589
  179SOPE    C320385   2.976   1.950   6.741 -0.7999  0.7982 -0.0536
  179SOPE    HX20386   3.080   1.920   6.716 -1.1602  0.4850 -1.2620
  179SOPE    HY20387   2.914   1.913   6.656  0.0145  0.5143 -0.5312
  179SOPE   O3120388   2.931   1.890   6.861  0.2305  0.5171  0.1862
  179SOPE   C3120389   2.800   1.894   6.885 -0.0714  0.3070 -1.0431
  179SOPE   O3220390   2.723   1.982   6.838  0.2836  0.1313  0.0789
  179SOPE   C3220391   2.763   1.792   6.991  0.7191 -0.5788  0.2588
  179SOPE   H2X20392   2.762   1.693   6.940  0.2939  0.1998 -1.3402
  179SOPE   H2Y20393   2.664   1.817   7.034  1.5035  2.0728  0.6631
  179SOPE   C2320394   3.187   2.413   7.065  0.5473  0.0639  0.1322
  179SOPE   H3R20395   3.098   2.410   7.131 -0.4283 -1.7498 -1.1651
  179SOPE   H3S20396   3.189   2.507   7.006  0.5920  0.2994  0.5041
  179SOPE   C2420397   3.298   2.421   7.167  0.0460 -0.8941  0.7207
  179SOPE   H4R20398   3.294   2.331   7.232  2.1882  0.5207  2.9904
  179SOPE   H4S20399   3.386   2.420   7.099 -1.4248 -3.0689 -1.3168
  179SOPE   C2520400   3.298   2.547   7.252  0.5140 -0.2430  0.9856
  179SOPE   H5R20401   3.377   2.619   7.224  0.6684 -0.8994 -0.2974
  179SOPE   H5S20402   3.198   2.595   7.238 -0.7565 -2.6873  1.1299
  179SOPE   C2620403   3.308   2.499   7.403 -1.0004 -0.3102  0.4054
  179SOPE   H6R20404   3.401   2.441   7.424 -1.5030 -0.5479  2.1744
  179SOPE   H6S20405   3.310   2.597   7.455  0.2234  1.8066 -3.2701
  179SOPE   C2720406   3.182   2.427   7.442 -0.1016 -0.5687 -0.1174
  179SOPE   H7R20407   3.094   2.478   7.395 -0.3785  0.4451  1.4387
  179SOPE   H7S20408   3.184   2.319   7.416 -0.1211 -0.5358 -0.2595
  179SOPE   C2820409   3.167   2.447   7.594 -0.0250 -0.3596  0.5923
  179SOPE   H8R20410   3.160   2.554   7.624  0.2529 -0.0113 -0.5647
  179SOPE   H8S20411   3.071   2.396   7.616 -0.3144 -0.8248 -1.5312
  179SOPE   C2920412   3.282   2.372   7.665 -0.1600 -0.7448 -0.3806
  179SOPE   H9120413   3.378   2.362   7.612 -0.0428 -0.9892 -0.1267
  179SOPE  C21020414   3.281   2.327   7.791 -0.0814 -0.5522  0.2968
  179SOPE  H10120415   3.370   2.280   7.836 -0.3919 -1.3158  0.1326
  179SOPE  C21120416   3.174   2.344   7.900 -0.6942  0.2392 -0.5869
  179SOPE  H11R20417   3.167   2.240   7.938 -0.6567  0.7895  0.9715
  179SOPE  H11S20418   3.082   2.390   7.859 -1.0691  0.4806  0.5115
  179SOPE  C21220419   3.220   2.426   8.026  0.3183 -0.0782 -0.2762
  179SOPE  H12R20420   3.251   2.530   8.001  1.9438 -1.1119 -3.0058
  179SOPE  H12S20421   3.305   2.373   8.074 -0.9693 -0.4490  1.7193
  179SOPE  C21320422   3.116   2.415   8.145 -0.4133  0.4804  0.6641
  179SOPE  H13R20423   3.151   2.449   8.245 -1.1349  1.7019  0.5198
  179SOPE  H13S20424   3.093   2.307   8.156  0.3907  0.0700 -1.3576
  179SOPE  C21420425   2.989   2.491   8.116 -0.5389 -0.1496  0.0838
  179SOPE  H14R20426   2.951   2.460   8.016  2.6217 -0.7638 -1.0309
  179SOPE  H14S20427   3.027   2.594   8.102  0.4534 -0.3086  1.4039
  179SOPE  C21520428   2.888   2.465   8.231 -0.4181 -0.3736 -0.3311
  179SOPE  H15R20429   2.940   2.497   8.324 -1.0006  0.0721 -0.1532
  179SOPE  H15S20430   2.873   2.355   8.240 -2.1140 -0.0333  1.5772
  179SOPE  C21620431   2.756   2.544   8.210  0.6092 -0.0546 -0.3453
  179SOPE  H16R20432   2.697   2.495   8.130  0.5000  0.8974 -0.8607
  179SOPE  H16S20433   2.785   2.651   8.200  1.1011 -0.0421  1.0546
  179SOPE  C21720434   2.669   2.549   8.331  0.0650 -0.2136  0.2854
  179SOPE  H17R20435   2.729   2.581   8.420  1.2886 -0.7050 -0.3352
  179SOPE  H17S20436   2.644   2.444   8.355  0.1905 -0.0400  1.2245
  179SOPE  C21820437   2.546   2.635   8.318  0.5456 -0.2781  0.1038
  179SOPE  H18R20438   2.482   2.638   8.409  0.2464  3.9342 -0.0873
  179SOPE  H18S20439   2.480   2.601   8.235  0.6007 -0.0143 -0.0470
  179SOPE  H18T20440   2.578   2.739   8.297 -0.2473 -0.2382 -0.9896
  179SOPE   C3320441   2.864   1.766   7.108 -0.6478 -0.6982 -0.1225
  179SOPE   H3X20442   2.890   1.862   7.158 -2.9411 -0.0730  0.0089
  179SOPE   H3Y20443   2.956   1.715   7.073  0.3112 -1.2768  2.9811
  179SOPE   C3420444   2.805   1.674   7.218 -0.7177  0.8095 -0.5558
  179SOPE   H4X20445   2.789   1.576   7.168 -1.6662  1.6722 -2.0336
  179SOPE   H4Y20446   2.706   1.719   7.241  0.2982  2.5845  0.5478
  179SOPE   C3520447   2.881   1.649   7.351  0.3053  0.5274 -0.2500
  179SOPE   H5X20448   2.921   1.745   7.390  0.1635  0.5656 -0.1992
  179SOPE   H5Y20449   2.967   1.583   7.324 -1.0317 -2.4656  2.1521
  179SOPE   C3620450   2.803   1.572   7.459 -0.5689 -0.5716 -0.0390
  179SOPE   H6X20451   2.761   1.485   7.404  1.1724 -0.0952 -2.2913
  179SOPE   H6Y20452   2.715   1.633   7.486 -0.8409 -2.1120  2.9545
  179SOPE   C3720453   2.876   1.537   7.588  0.1010  0.1098 -0.3964
  179SOPE   H7X20454   2.901   1.634   7.635 -2.5091  0.8382 -0.3378
  179SOPE   H7Y20455   2.964   1.474   7.566  0.8003  0.7396  0.5187
  179SOPE   C3820456   2.788   1.458   7.691 -0.1704  0.4612 -0.3395
  179SOPE   H8X20457   2.729   1.373   7.651 -3.0822  0.0629  4.0210
  179SOPE   H8Y20458   2.710   1.526   7.731 -1.0030 -0.5501 -0.2005
  179SOPE   C3920459   2.873   1.411   7.810 -0.3667  0.2131 -0.2106
  179SOPE   H9X20460   2.924   1.499   7.855 -0.5323  0.1277  0.1475
  179SOPE   H9Y20461   2.954   1.346   7.770  0.4433  1.3796 -0.5469
  179SOPE  C31020462   2.797   1.336   7.909 -0.4195  0.0611 -0.4386
  179SOPE  H10X20463   2.757   1.248   7.856 -0.2817 -0.2274 -0.0664
  179SOPE  H10Y20464   2.704   1.385   7.945 -1.1813 -2.2493  0.9831
  179SOPE  C31120465   2.876   1.278   8.022 -0.1980  0.1361  0.3440
  179SOPE  H11X20466   2.890   1.355   8.101  1.9822  1.5491 -1.2981
  179SOPE  H11Y20467   2.981   1.252   7.995  0.0086  0.2740  0.9930
  179SOPE  C31220468   2.793   1.158   8.077 -0.5521  0.1084 -0.7660
  179SOPE  H12X20469   2.769   1.090   7.993  0.5600 -3.0699  1.3228
  179SOPE  H12Y20470   2.694   1.196   8.110 -1.4973 -2.2999 -0.5898
  179SOPE  C31320471   2.871   1.070   8.172  0.3053  0.7866 -0.8526
  179SOPE  H13X20472   2.865   1.127   8.267  1.2783 -1.3612  0.5711
  179SOPE  H13Y20473   2.980   1.066   8.148  0.0716  1.3594 -2.0900
  179SOPE  C31420474   2.806   0.937   8.204  0.0194  0.8547 -0.4350
  179SOPE  H14X20475   2.813   0.866   8.118  0.6102 -3.1560  2.6466
  179SOPE  H14Y20476   2.698   0.947   8.225  0.0588 -0.6842  0.6842
  179SOPE  C31520477   2.880   0.881   8.331  0.0257  0.4995  0.0074
  179SOPE  H15X20478   2.858   0.948   8.417  0.6416 -0.6997  1.1333
  179SOPE  H15Y20479   2.987   0.903   8.312  0.2111 -0.4317 -0.0786
  179SOPE  C31620480   2.873   0.730   8.356  0.3416  0.4548 -0.1628
  179SOPE  H16X20481   2.902   0.667   8.269 -1.0878 -2.3379  1.2567
  179SOPE  H16Y20482   2.768   0.697   8.365  0.4445  0.4499  1.1122
  179SOPE  C31720483   2.942   0.687   8.492  0.5039 -0.1432  0.0323
  179SOPE  H17X20484   2.873   0.726   8.571  0.1146  0.8840 -0.7999
  179SOPE  H17Y20485   3.045   0.727   8.499  0.3792  0.2557 -0.3773
  179SOPE  C31820486   2.957   0.539   8.516  0.2100 -0.0124  0.0556
  179SOPE  H18X20487   2.993   0.494   8.420 -0.3669 -1.0733  0.3156
  179SOPE  H18Y20488   2.857   0.507   8.551 -0.5281  1.5626 -0.5079
  179SOPE  H18Z20489   3.024   0.521   8.603 -1.4728  2.7552  2.0561
  180SOPE     N20490   5.483   2.259   6.190 -0.4307 -0.1689 -0.5400
  180SOPE   HN120491   5.539   2.347   6.200 -0.2063 -0.4752  1.0873
  180SOPE   HN220492   5.523   2.191   6.122 -2.3785 -0.9818 -0.9367
  180SOPE   HN320493   5.388   2.284   6.156 -0.3422 -0.8894 -1.3355
  180SOPE   C1220494   5.477   2.184   6.316 -0.0453  0.1389  0.0049
  180SOPE  H12A20495   5.502   2.248   6.404  0.6100 -1.2175  0.8367
  180SOPE  H12B20496   5.554   2.104   6.318 -1.4078 -1.2274 -0.4599
  180SOPE   C1120497   5.339   2.112   6.330  0.0022 -0.0124 -0.2990
  180SOPE  H11A20498   5.258   2.186   6.318  0.8218  0.8303 -0.8034
  180SOPE  H11B20499   5.343   2.060   6.428 -0.3331  0.3282 -0.1042
  180SOPE     P20500   5.359   1.855   6.255 -0.4558 -0.4820 -0.6109
  180SOPE   O1320501   5.512   1.847   6.266  0.5435  0.9692  0.5227
  180SOPE   O1420502   5.281   1.775   6.160 -0.1534 -0.3969 -0.7141
  180SOPE   O1220503   5.329   2.012   6.228  0.1062  0.0244 -0.5301
  180SOPE   O1120504   5.296   1.839   6.401 -0.4700  0.4689  0.5275
  180SOPE    C120505   5.155   1.852   6.423 -0.3385  0.0501 -0.6845
  180SOPE    HA20506   5.097   1.839   6.329  0.4510  0.8174 -1.2994
  180SOPE    HB20507   5.142   1.960   6.445  0.4261  0.4918 -2.2053
  180SOPE    C220508   5.119   1.762   6.541 -0.8313  0.1867  0.1484
  180SOPE    HS20509   5.009   1.755   6.556 -0.7425 -0.0991  0.7027
  180SOPE   O2120510   5.186   1.817   6.659 -0.9382 -0.7276  0.1538
  180SOPE   C2120511   5.106   1.887   6.741  0.1794  0.5321 -0.2767
  180SOPE   O2220512   4.990   1.926   6.722  0.5924  0.1694  0.9007
  180SOPE   C2220513   5.180   1.901   6.878  0.3162  0.0105 -0.0440
  180SOPE   H2R20514   5.287   1.920   6.858  0.1167 -0.3097 -1.4792
  180SOPE   H2S20515   5.192   1.802   6.927  2.5279 -0.7361 -1.9395
  180SOPE    C320516   5.166   1.616   6.507  0.3867  0.6887 -0.3365
  180SOPE    HX20517   5.271   1.624   6.470  1.7098 -0.2618  2.8925
  180SOPE    HY20518   5.093   1.581   6.432 -1.5611  1.6688  1.0268
  180SOPE   O3120519   5.163   1.539   6.626  0.2503 -0.5179 -0.5627
  180SOPE   C3120520   5.276   1.530   6.694 -0.1100 -0.4158 -0.1141
  180SOPE   O3220521   5.378   1.580   6.657 -0.8128 -0.4474  0.0090
  180SOPE   C3220522   5.245   1.467   6.827  0.9852 -0.1159 -0.2314
  180SOPE   H2X20523   5.152   1.406   6.830  0.6957  0.3450  0.8973
  180SOPE   H2Y20524   5.230   1.557   6.891 -0.5952 -1.2940  1.1614
  180SOPE   C2320525   5.132   2.024   6.964 -0.4667 -0.3654  0.1667
  180SOPE   H3R20526   5.036   1.995   7.012 -0.4519 -3.4590 -1.4621
  180SOPE   H3S20527   5.100   2.096   6.886 -1.2355 -1.0801 -0.1996
  180SOPE   C2420528   5.236   2.071   7.070  0.6740  0.0078  0.0510
  180SOPE   H4R20529   5.253   1.989   7.144  3.4260  1.8815  1.7068
  180SOPE   H4S20530   5.333   2.105   7.027  1.7731 -0.4499  2.0057
  180SOPE   C2520531   5.175   2.171   7.160 -0.0989  0.5854 -0.5765
  180SOPE   H5R20532   5.150   2.263   7.104 -0.8583  0.1739 -0.9256
  180SOPE   H5S20533   5.083   2.127   7.204  1.1653 -1.0241  0.6149
  180SOPE   C2620534   5.284   2.219   7.259 -0.1197 -0.5393 -0.1086
  180SOPE   H6R20535   5.297   2.135   7.331  0.8330  0.4610  0.9077
  180SOPE   H6S20536   5.375   2.237   7.197  0.6330  0.3922  1.2341
  180SOPE   C2720537   5.246   2.349   7.340  0.2992  1.2617 -1.3797
  180SOPE   H7R20538   5.224   2.425   7.263  0.6395  2.7004 -0.0927
  180SOPE   H7S20539   5.152   2.327   7.395 -1.3501  1.8782 -3.8115
  180SOPE   C2820540   5.358   2.397   7.437  0.4606  0.1229 -0.4057
  180SOPE   H8R20541   5.455   2.376   7.389  0.3563 -3.1223  0.5149
  180SOPE   H8S20542   5.337   2.505   7.452 -1.2676 -0.0431 -1.2810
  180SOPE   C2920543   5.345   2.325   7.575 -0.1245  0.0654  1.2889
  180SOPE   H9120544   5.292   2.230   7.558 -0.9356  0.9236 -1.4135
  180SOPE  C21020545   5.367   2.371   7.702 -0.4315 -0.1979 -0.5095
  180SOPE  H10120546   5.348   2.308   7.790 -2.0288 -2.1036 -2.1119
  180SOPE  C21120547   5.412   2.508   7.734  0.3092 -0.5433 -0.4890
  180SOPE  H11R20548   5.463   2.562   7.653 -0.2472  1.9137  0.7062
  180SOPE  H11S20549   5.479   2.506   7.823  0.7866 -1.0556 -0.8576
  180SOPE  C21220550   5.286   2.598   7.773 -0.6806 -0.0726  0.0123
  180SOPE  H12R20551   5.207   2.583   7.697 -0.7593 -2.3140  0.4515
  180SOPE  H12S20552   5.319   2.704   7.772  1.7829 -0.7874  0.0975
  180SOPE  C21320553   5.213   2.575   7.904 -1.7440 -0.1690 -0.4173
  180SOPE  H13R20554   5.221   2.666   7.967 -0.5361 -1.0732  0.7871
  180SOPE  H13S20555   5.262   2.490   7.957 -3.0168 -0.5549  0.1730
  180SOPE  C21420556   5.068   2.528   7.900 -0.0910 -0.2954  0.1157
  180SOPE  H14R20557   5.059   2.418   7.887 -0.3988 -0.2632  0.0352
  180SOPE  H14S20558   5.025   2.585   7.814  1.2077  0.3959 -0.1059
  180SOPE  C21520559   4.983   2.576   8.017  0.5491 -0.4566 -0.6973
  180SOPE  H15R20560   4.879   2.555   7.982  0.1938 -3.0466  1.5343
  180SOPE  H15S20561   4.988   2.685   8.035 -0.5912 -0.2198 -1.6737
  180SOPE  C21620562   5.006   2.505   8.148 -0.7112  0.2005 -0.4168
  180SOPE  H16R20563   5.095   2.549   8.197 -0.3328 -2.0070  1.0352
  180SOPE  H16S20564   5.033   2.399   8.130  1.0502  0.8152 -1.6183
  180SOPE  C21720565   4.890   2.505   8.243  0.1717  0.6042 -0.0474
  180SOPE  H17R20566   4.907   2.456   8.341 -2.9383 -0.1004  0.2464
  180SOPE  H17S20567   4.811   2.445   8.194 -0.0174  0.1521  0.7991
  180SOPE  C21820568   4.847   2.650   8.280  0.2547  0.1283 -0.1003
  180SOPE  H18R20569   4.928   2.727   8.273  0.8999 -0.3149  1.8810
  180SOPE  H18S20570   4.796   2.664   8.378 -1.3273  1.1107 -1.0174
  180SOPE  H18T20571   4.768   2.691   8.214 -0.0769  2.7209  1.7108
  180SOPE   C3320572   5.367   1.400   6.900 -0.1874 -0.3440  0.0271
  180SOPE   H3X20573   5.465   1.437   6.860 -1.9727  2.3468 -2.2488
  180SOPE   H3Y20574   5.372   1.293   6.871  0.3334 -0.4260  0.3949
  180SOPE   C3420575   5.357   1.398   7.046  0.3728  0.4115 -0.0751
  180SOPE   H4X20576   5.263   1.347   7.076  0.6874  0.3334  0.8194
  180SOPE   H4Y20577   5.350   1.501   7.088  1.4324  0.7627 -0.7240
  180SOPE   C3520578   5.474   1.327   7.123  0.0103  0.0442  0.2895
  180SOPE   H5X20579   5.563   1.372   7.074 -1.0733 -0.3893 -2.2706
  180SOPE   H5Y20580   5.469   1.221   7.088 -0.4692  0.6699 -1.6360
  180SOPE   C3620581   5.472   1.367   7.273 -0.3340 -0.4432 -0.1505
  180SOPE   H6X20582   5.460   1.477   7.280  2.9947 -0.0746  1.4893
  180SOPE   H6Y20583   5.571   1.346   7.319  0.4923  1.0333 -1.1807
  180SOPE   C3720584   5.373   1.290   7.362 -0.1511  0.0992 -0.4388
  180SOPE   H7X20585   5.410   1.186   7.348  2.2087  0.5820  1.4716
  180SOPE   H7Y20586   5.270   1.302   7.321  0.3073  0.9482 -1.3533
  180SOPE   C3820587   5.368   1.323   7.510 -0.2410  0.3464 -0.0830
  180SOPE   H8X20588   5.472   1.351   7.536  0.2028  0.4335 -1.8129
  180SOPE   H8Y20589   5.333   1.243   7.579  0.7955  0.1354  0.2211
  180SOPE   C3920590   5.281   1.454   7.543  0.7662  0.7053 -0.4979
  180SOPE   H9X20591   5.181   1.456   7.495 -0.1574  0.3575  1.3100
  180SOPE   H9Y20592   5.338   1.543   7.507  1.2622  0.2479 -0.8638
  180SOPE  C31020593   5.256   1.478   7.693 -0.9553  0.0714  0.1550
  180SOPE  H10X20594   5.351   1.476   7.751 -0.4294  0.4530 -0.6841
  180SOPE  H10Y20595   5.191   1.399   7.738 -0.1266 -2.0245 -2.1159
  180SOPE  C31120596   5.197   1.613   7.723 -0.2179 -0.7068  0.4532
  180SOPE  H11X20597   5.092   1.617   7.687  0.0745 -0.4106 -0.4040
  180SOPE  H11Y20598   5.252   1.691   7.666  2.3150 -2.4258  0.3834
  180SOPE  C31220599   5.187   1.647   7.874  0.1884  0.5081  0.0882
  180SOPE  H12X20600   5.283   1.633   7.928 -0.0054 -0.1225  0.2783
  180SOPE  H12Y20601   5.116   1.580   7.925 -0.5135 -0.6124 -2.2247
  180SOPE  C31320602   5.131   1.788   7.903 -0.9527 -0.0605  0.4628
  180SOPE  H13X20603   5.032   1.803   7.854 -0.7141  0.8300  0.2322
  180SOPE  H13Y20604   5.190   1.870   7.858 -0.6230 -0.3556  0.3493
  180SOPE  C31420605   5.140   1.809   8.048  0.7094 -0.1766 -0.1439
  180SOPE  H14X20606   5.244   1.799   8.086  0.7608 -0.9972 -0.4830
  180SOPE  H14Y20607   5.076   1.733   8.098  0.3348  1.4794  2.0684
  180SOPE  C31520608   5.092   1.946   8.095  0.2353 -0.3551 -0.6298
  180SOPE  H15X20609   5.159   2.029   8.065  0.3450 -0.0321  0.4872
  180SOPE  H15Y20610   5.083   1.944   8.205 -1.3378 -2.2943 -0.7211
  180SOPE  C31620611   4.948   1.992   8.062  0.0513  0.4404  0.1744
  180SOPE  H16X20612   4.882   1.921   8.117  1.3441 -0.5874  0.4693
  180SOPE  H16Y20613   4.932   1.972   7.953  0.6164 -0.9052  0.3137
  180SOPE  C31720614   4.915   2.133   8.114  0.0080  0.4991  0.1320
  180SOPE  H17X20615   5.000   2.199   8.087  0.0315  0.8464  1.0180
  180SOPE  H17Y20616   4.904   2.129   8.224  0.4204  2.7343  0.2992
  180SOPE  C31820617   4.788   2.190   8.044  0.5077  0.3077  0.2291
  180SOPE  H18X20618   4.787   2.155   7.938  1.6108 -2.2466  0.9762
  180SOPE  H18Y20619   4.784   2.300   8.030 -2.5124  0.0537 -1.7662
  180SOPE  H18Z20620   4.704   2.156   8.108  0.1639 -1.1112 -0.9172
  181SOPE     N20621   5.048   1.231   5.944 -0.1829 -0.8930 -0.3141
  181SOPE   HN120622   5.024   1.131   5.960 -0.0227 -0.5072  3.2205
  181SOPE   HN220623   5.134   1.223   5.887  1.2472  0.3956  1.5299
  181SOPE   HN320624   5.077   1.271   6.036 -0.3421  1.1773 -1.1328
  181SOPE   C1220625   4.932   1.293   5.866 -0.0082 -0.1206 -0.6467
  181SOPE  H12A20626   4.943   1.272   5.758 -1.7573  0.4369 -0.9642
  181SOPE  H12B20627   4.945   1.401   5.889 -0.0394 -0.2719  0.1210
  181SOPE   C1120628   4.805   1.250   5.934 -0.9855  0.1790 -0.1031
  181SOPE  H11A20629   4.719   1.304   5.889  0.3788  0.7263 -2.2095
  181SOPE  H11B20630   4.820   1.294   6.035  0.7200  1.4261 -0.8544
  181SOPE     P20631   4.712   1.032   6.030  0.2406  0.0570 -0.2646
  181SOPE   O1320632   4.781   0.917   6.088 -0.7484  0.0686  0.5828
  181SOPE   O1420633   4.588   1.000   5.959  0.6012 -0.0676  0.3945
  181SOPE   O1220634   4.803   1.108   5.932 -0.1581  0.5126  0.4288
  181SOPE   O1120635   4.678   1.144   6.144  0.1100 -0.2796  0.4272
  181SOPE    C120636   4.562   1.147   6.225  0.3782  0.6707 -0.0804
  181SOPE    HA20637   4.563   1.053   6.283 -0.8336  0.8120  0.1940
  181SOPE    HB20638   4.467   1.148   6.169  0.0889  1.1560  0.4028
  181SOPE    C220639   4.558   1.264   6.322 -0.0737 -0.6524 -0.4356
  181SOPE    HS20640   4.618   1.234   6.411  0.7586  1.4549 -0.2235
  181SOPE   O2120641   4.421   1.286   6.357 -0.3351 -0.0087  0.0821
  181SOPE   C2120642   4.386   1.265   6.488 -0.9511  1.1256  0.3565
  181SOPE   O2220643   4.459   1.215   6.567 -0.4700 -0.3468 -0.1683
  181SOPE   C2220644   4.253   1.334   6.525 -0.0344  0.5041 -0.2135
  181SOPE   H2R20645   4.205   1.361   6.428 -0.5092  0.4369 -0.0011
  181SOPE   H2S20646   4.273   1.427   6.582 -0.9469 -1.0150  2.7964
  181SOPE    C320647   4.625   1.389   6.263 -0.2807  0.1033  0.6079
  181SOPE    HX20648   4.558   1.403   6.175  0.9930 -1.9534 -0.7808
  181SOPE    HY20649   4.727   1.353   6.237  0.1334  2.6038 -1.6928
  181SOPE   O3120650   4.620   1.507   6.350  0.4070  0.4746 -0.2163
  181SOPE   C3120651   4.724   1.578   6.364 -0.5520  0.4545  0.2779
  181SOPE   O3220652   4.840   1.554   6.329  0.0985 -0.1863 -0.4095
  181SOPE   C3220653   4.684   1.704   6.442 -0.4963 -0.8079  0.3330
  181SOPE   H2X20654   4.584   1.736   6.406  0.9637  1.1343 -2.3357
  181SOPE   H2Y20655   4.753   1.784   6.408 -2.0014  0.0520 -0.7725
  181SOPE   C2320656   4.159   1.244   6.607 -0.2291 -0.0669 -0.1024
  181SOPE   H3R20657   4.130   1.153   6.550  1.5886  0.4072 -1.9225
  181SOPE   H3S20658   4.071   1.311   6.620  1.9372  2.7551  1.1880
  181SOPE   C2420659   4.199   1.206   6.752  0.0800 -0.1408 -0.2708
  181SOPE   H4R20660   4.268   1.119   6.754 -1.1392 -1.2000 -1.7355
  181SOPE   H4S20661   4.243   1.299   6.795 -0.1796 -0.6109  1.0544
  181SOPE   C2520662   4.079   1.176   6.845 -0.2397  0.3246  0.5152
  181SOPE   H5R20663   4.011   1.263   6.830  0.3609  0.7182  0.0075
  181SOPE   H5S20664   4.032   1.083   6.806 -0.6365 -0.0781  1.8853
  181SOPE   C2620665   4.108   1.160   6.992 -0.0629 -0.7905 -0.3636
  181SOPE   H6R20666   4.184   1.085   7.024  0.2976  0.7215  2.7185
  181SOPE   H6S20667   4.160   1.252   7.024  1.1419 -0.1827 -3.6860
  181SOPE   C2720668   3.972   1.135   7.068 -0.6589 -0.7693  0.0669
  181SOPE   H7R20669   3.905   1.223   7.056  1.8346  0.8826 -4.6545
  181SOPE   H7S20670   3.918   1.045   7.032 -1.4058  0.0622 -0.9443
  181SOPE   C2820671   3.982   1.120   7.222 -0.1727  0.0144  0.4459
  181SOPE   H8R20672   4.046   1.208   7.245  0.8046 -0.1812 -1.3589
  181SOPE   H8S20673   3.883   1.127   7.273  0.3963  1.4593  1.4158
  181SOPE   C2920674   4.056   1.001   7.277  0.1606 -0.5555  0.1899
  181SOPE   H9120675   4.119   0.952   7.201 -1.3919 -0.2450 -1.3947
  181SOPE  C21020676   4.058   0.960   7.399  0.0741 -0.3066 -0.5317
  181SOPE  H10120677   4.121   0.876   7.433  1.0738  1.1494  1.4475
  181SOPE  C21120678   3.971   1.020   7.513 -0.3167 -0.2031 -0.6109
  181SOPE  H11R20679   3.894   1.097   7.490 -0.3591  0.7778  2.2956
  181SOPE  H11S20680   4.040   1.078   7.578  0.6175 -1.9978  0.0663
  181SOPE  C21220681   3.911   0.920   7.622  0.1329  0.0831 -0.4184
  181SOPE  H12R20682   3.986   0.839   7.637  0.3159  0.4584  0.7702
  181SOPE  H12S20683   3.817   0.877   7.581 -0.3987  0.7925  0.0287
  181SOPE  C21320684   3.878   0.977   7.759 -0.1705  0.3049  0.2951
  181SOPE  H13R20685   3.818   0.898   7.808  0.9486 -1.7243 -1.4411
  181SOPE  H13S20686   3.807   1.058   7.733 -0.7588 -0.4182 -0.3625
  181SOPE  C21420687   3.996   1.031   7.838  0.2773 -0.0222 -0.5073
  181SOPE  H14R20688   4.059   1.106   7.788  1.6639 -2.0734 -2.0090
  181SOPE  H14S20689   4.070   0.948   7.847  0.7509  0.3520 -0.9211
  181SOPE  C21520690   3.960   1.072   7.983  0.4587 -0.7675  0.4265
  181SOPE  H15R20691   3.900   0.991   8.030  1.5305 -0.5133  2.3538
  181SOPE  H15S20692   3.902   1.166   7.993 -2.3914 -2.4987  1.3558
  181SOPE  C21620693   4.081   1.077   8.078 -1.0026 -0.4692 -0.1915
  181SOPE  H16R20694   4.139   1.166   8.045 -1.2709  0.0844  0.7847
  181SOPE  H16S20695   4.159   1.001   8.058  1.6218  1.9232  0.2422
  181SOPE  C21720696   4.046   1.091   8.225 -0.4655  0.5044 -0.5556
  181SOPE  H17R20697   4.141   1.103   8.282 -0.3382  1.4570 -0.9539
  181SOPE  H17S20698   3.997   0.997   8.256  0.9361 -0.4686 -1.1724
  181SOPE  C21820699   3.954   1.215   8.257  0.5635  0.3183  0.1735
  181SOPE  H18R20700   3.995   1.307   8.210 -0.8278  1.4701  1.1309
  181SOPE  H18S20701   3.940   1.232   8.366  2.5238 -0.6828  0.6096
  181SOPE  H18T20702   3.853   1.200   8.213  0.6841  1.4000 -0.5230
  181SOPE   C3320703   4.694   1.686   6.593  0.1811 -0.1357  0.1785
  181SOPE   H3X20704   4.677   1.776   6.655 -0.0163  0.5625 -0.8730
  181SOPE   H3Y20705   4.791   1.645   6.628  0.2322  1.0922  1.5755
  181SOPE   C3420706   4.592   1.586   6.648  0.7316  0.8345 -0.8090
  181SOPE   H4X20707   4.624   1.485   6.616 -2.0073 -0.8425  1.3371
  181SOPE   H4Y20708   4.490   1.602   6.607  0.8054  0.4041 -1.1787
  181SOPE   C3520709   4.592   1.594   6.801  0.0182  0.4573  0.0663
  181SOPE   H5X20710   4.549   1.690   6.837 -4.1610 -2.1208  2.8017
  181SOPE   H5Y20711   4.700   1.587   6.828  1.0104  0.5744 -3.4092
  181SOPE   C3620712   4.514   1.483   6.874 -0.3384 -0.3942 -0.0370
  181SOPE   H6X20713   4.566   1.400   6.822 -0.0834 -0.6084  0.5535
  181SOPE   H6Y20714   4.412   1.491   6.831 -0.2340  1.6841  0.0155
  181SOPE   C3720715   4.523   1.505   7.026  0.5690  0.0043  0.2955
  181SOPE   H7X20716   4.476   1.602   7.051 -1.5663 -1.2464  1.4775
  181SOPE   H7Y20717   4.622   1.495   7.075  1.1731 -0.9475 -1.0544
  181SOPE   C3820718   4.426   1.401   7.086 -0.4717 -0.1336  0.0995
  181SOPE   H8X20719   4.454   1.300   7.050 -0.9416  0.1023 -0.9683
  181SOPE   H8Y20720   4.323   1.423   7.051 -0.5617  0.7254  0.8755
  181SOPE   C3920721   4.430   1.409   7.241  0.1881 -0.1711  0.5509
  181SOPE   H9X20722   4.369   1.497   7.271 -1.6444 -0.9947 -0.5864
  181SOPE   H9Y20723   4.535   1.426   7.275  0.1205  0.9651  0.2453
  181SOPE  C31020724   4.365   1.292   7.319 -0.1745 -0.6468  0.2035
  181SOPE  H10X20725   4.416   1.202   7.277  1.6084  0.8951 -1.1278
  181SOPE  H10Y20726   4.257   1.283   7.296 -0.0996  1.3437 -1.1664
  181SOPE  C31120727   4.396   1.289   7.469 -0.4927  0.4888  0.3929
  181SOPE  H11X20728   4.383   1.392   7.507 -0.1148  0.9220 -0.6246
  181SOPE  H11Y20729   4.504   1.271   7.485 -0.3265  2.0024  1.0520
  181SOPE  C31220730   4.305   1.192   7.545 -0.3204  0.7932  0.4181
  181SOPE  H12X20731   4.310   1.100   7.483 -1.2727 -0.1398  1.6589
  181SOPE  H12Y20732   4.200   1.226   7.531 -0.2497  1.4105  1.3111
  181SOPE  C31320733   4.343   1.148   7.692 -0.4153 -0.8440  0.0911
  181SOPE  H13X20734   4.451   1.122   7.693 -0.4137 -1.2851 -2.7809
  181SOPE  H13Y20735   4.299   1.049   7.716 -1.1133 -0.4606  0.4350
  181SOPE  C31420736   4.319   1.270   7.787 -0.0338  0.5289  0.6457
  181SOPE  H14X20737   4.211   1.288   7.804  0.2127  2.3433  0.4882
  181SOPE  H14Y20738   4.371   1.354   7.736  3.0771 -1.0560  0.9198
  181SOPE  C31520739   4.387   1.259   7.926  0.4128 -0.5559  0.1503
  181SOPE  H15X20740   4.489   1.226   7.896 -0.1194 -0.5871 -1.7946
  181SOPE  H15Y20741   4.336   1.175   7.977 -0.2554 -0.5409 -0.4759
  181SOPE  C31620742   4.399   1.394   7.998 -0.3674 -0.2833  0.3621
  181SOPE  H16X20743   4.430   1.475   7.929  3.9722 -0.5871  1.6169
  181SOPE  H16Y20744   4.482   1.389   8.073 -0.6170  0.8644  0.7381
  181SOPE  C31720745   4.281   1.427   8.077  0.4161 -1.2225  0.0043
  181SOPE  H17X20746   4.259   1.345   8.149 -1.4445 -1.7027 -1.0584
  181SOPE  H17Y20747   4.200   1.418   8.002  1.2440  0.5145 -1.1629
  181SOPE  C31820748   4.286   1.571   8.136  0.4735 -0.1131 -0.1238
  181SOPE  H18X20749   4.357   1.569   8.222  1.9138  0.0620 -1.2839
  181SOPE  H18Y20750   4.185   1.596   8.177 -0.2005 -1.2258 -1.0667
  181SOPE  H18Z20751   4.312   1.642   8.055  0.0848  1.1956  0.8542
  182SOPE     N20752   4.439   2.784   5.884 -0.5649 -0.1085 -0.4616
  182SOPE   HN120753   4.338   2.760   5.893 -0.4049 -0.0508  2.1457
  182SOPE   HN220754   4.442   2.831   5.791 -1.0738 -1.5799 -1.2571
  182SOPE   HN320755   4.506   2.704   5.884 -0.4231 -0.0345  1.4895
  182SOPE   C1220756   4.477   2.903   5.966  0.1386  0.9045  0.0242
  182SOPE  H12A20757   4.392   2.974   5.962 -1.8193 -1.2811  0.4232
  182SOPE  H12B20758   4.569   2.948   5.922  1.0078 -0.5134  0.3185
  182SOPE   C1120759   4.491   2.853   6.114  0.2079  0.8552 -0.1400
  182SOPE  H11A20760   4.542   2.926   6.180  2.9857 -1.0916  0.0346
  182SOPE  H11B20761   4.573   2.778   6.108  1.5062  2.3147 -1.3952
  182SOPE     P20762   4.372   2.705   6.294 -0.3890 -0.3675 -0.3097
  182SOPE   O1320763   4.367   2.570   6.238 -0.0262  0.4712 -0.1510
  182SOPE   O1420764   4.263   2.752   6.382 -0.5656  0.1394  0.2543
  182SOPE   O1220765   4.368   2.807   6.172 -0.2850  0.4837 -0.0228
  182SOPE   O1120766   4.517   2.739   6.364  0.0754  1.5737  0.0640
  182SOPE    C120767   4.518   2.847   6.453 -0.1876 -0.4825 -0.3380
  182SOPE    HA20768   4.489   2.814   6.554  2.6059  1.1133  1.1242
  182SOPE    HB20769   4.447   2.927   6.425  0.3119  0.1326  0.1171
  182SOPE    C220770   4.659   2.912   6.480  0.1563 -0.4410  0.4825
  182SOPE    HS20771   4.714   2.927   6.385 -0.1029  0.9013  0.5212
  182SOPE   O2120772   4.727   2.813   6.567 -0.0266 -0.0456  0.6090
  182SOPE   C2120773   4.857   2.814   6.567 -0.3268 -0.3682  0.0774
  182SOPE   O2220774   4.918   2.897   6.496 -0.6461  0.4286 -0.2872
  182SOPE   C2220775   4.910   2.713   6.666 -0.9181  0.1904 -0.6621
  182SOPE   H2R20776   5.018   2.740   6.671  0.3028 -4.0983  0.6365
  182SOPE   H2S20777   4.902   2.611   6.621 -0.7053  0.7748 -2.0911
  182SOPE    C320778   4.647   3.049   6.549 -0.2776  0.2169  0.6800
  182SOPE    HX20779   4.608   3.117   6.470 -0.5938 -0.0301  0.6202
  182SOPE    HY20780   4.747   3.079   6.587  1.1716 -1.0283 -1.9402
  182SOPE   O3120781   4.546   3.051   6.644  0.3033  0.7775 -0.0265
  182SOPE   C3120782   4.579   3.045   6.767 -0.9047 -0.2272 -0.5371
  182SOPE   O3220783   4.688   3.083   6.816  0.0223 -0.0505 -0.2630
  182SOPE   C3220784   4.462   3.005   6.853  0.6039  0.1784 -0.3238
  182SOPE   H2X20785   4.417   2.917   6.803  0.3485  1.0288 -1.6322
  182SOPE   H2Y20786   4.382   3.081   6.852  0.0151 -0.3082  2.0426
  182SOPE   C2320787   4.851   2.725   6.803 -0.5163  0.1478 -0.5733
  182SOPE   H3R20788   4.746   2.690   6.797 -0.2548 -0.6944 -0.4113
  182SOPE   H3S20789   4.833   2.832   6.827 -0.3318  0.4801 -1.8741
  182SOPE   C2420790   4.929   2.656   6.916  0.3163 -0.0881 -0.8480
  182SOPE   H4R20791   4.940   2.545   6.912  0.2633 -0.4371  3.7340
  182SOPE   H4S20792   5.035   2.690   6.918  0.3259 -0.1411  0.1081
  182SOPE   C2520793   4.854   2.686   7.049  0.1227  0.0010 -0.3408
  182SOPE   H5R20794   4.857   2.795   7.070  1.1449 -0.3252  1.4394
  182SOPE   H5S20795   4.751   2.643   7.047  1.1150 -2.6333  0.7385
  182SOPE   C2620796   4.923   2.626   7.171 -0.6489  0.1585 -0.6944
  182SOPE   H6R20797   4.932   2.516   7.155  0.0919  0.3250 -1.5629
  182SOPE   H6S20798   5.024   2.671   7.166 -0.6380  0.1595 -0.4616
  182SOPE   C2720799   4.863   2.638   7.314 -0.1069 -0.0214  0.1158
  182SOPE   H7R20800   4.859   2.747   7.336  0.9622  0.1628 -0.5370
  182SOPE   H7S20801   4.768   2.582   7.324  0.1736 -0.5154  0.0507
  182SOPE   C2820802   4.956   2.576   7.420 -0.7788  0.6584 -0.0048
  182SOPE   H8R20803   4.989   2.479   7.379 -0.7591  1.7324 -2.7661
  182SOPE   H8S20804   5.040   2.649   7.417 -1.0973  1.0536  0.4580
  182SOPE   C2920805   4.882   2.570   7.556 -0.3418 -0.1340  0.2757
  182SOPE   H9120806   4.865   2.665   7.608 -0.5914 -1.0187  1.8726
  182SOPE  C21020807   4.831   2.460   7.617 -0.2943 -0.2564 -0.0181
  182SOPE  H10120808   4.772   2.472   7.709 -0.8664  0.6096 -0.4869
  182SOPE  C21120809   4.853   2.319   7.569 -0.5630 -0.0157 -0.2629
  182SOPE  H11R20810   4.883   2.320   7.462  0.1878  2.5639 -0.0824
  182SOPE  H11S20811   4.752   2.271   7.567 -0.2100 -0.7733 -0.1424
  182SOPE  C21220812   4.949   2.246   7.663 -0.2310  0.1337  0.0674
  182SOPE  H12R20813   4.909   2.220   7.763 -0.6171 -0.4825 -0.2400
  182SOPE  H12S20814   5.041   2.304   7.687 -0.8183  1.7773 -1.4925
  182SOPE  C21320815   5.001   2.105   7.604 -0.0983 -0.1890 -0.6825
  182SOPE  H13R20816   5.068   2.061   7.682 -0.5473  1.3706  0.6466
  182SOPE  H13S20817   5.060   2.121   7.512  0.4488 -1.2951 -0.5451
  182SOPE  C21420818   4.883   2.008   7.582 -0.6046  0.1282  0.8556
  182SOPE  H14R20819   4.824   2.047   7.496  3.3289  0.5987 -1.8939
  182SOPE  H14S20820   4.818   1.996   7.672 -1.2627 -1.9370  0.1541
  182SOPE  C21520821   4.937   1.869   7.544  0.4135 -0.0621  0.2025
  182SOPE  H15R20822   4.851   1.804   7.521 -0.7003  0.7040  2.0277
  182SOPE  H15S20823   4.996   1.822   7.625  2.0041  1.6062  0.1024
  182SOPE  C21620824   5.022   1.864   7.407 -0.2359  0.5935 -0.7421
  182SOPE  H16R20825   5.124   1.902   7.432 -0.7100 -0.0646  2.6674
  182SOPE  H16S20826   4.970   1.929   7.334  0.7889 -1.3481 -3.3557
  182SOPE  C21720827   5.028   1.718   7.369  0.3318  0.2237 -0.4194
  182SOPE  H17R20828   4.929   1.669   7.369 -0.2856  1.4258 -1.2703
  182SOPE  H17S20829   5.092   1.663   7.442 -0.1541  0.1391 -0.0508
  182SOPE  C21820830   5.086   1.692   7.232 -1.1099 -0.2364  0.5329
  182SOPE  H18R20831   5.197   1.702   7.239 -1.0385 -1.1650  0.8310
  182SOPE  H18S20832   5.045   1.755   7.150  1.2500 -0.9573 -1.3263
  182SOPE  H18T20833   5.061   1.591   7.193 -1.7403  1.5963 -4.6968
  182SOPE   C3320834   4.501   2.974   7.004 -0.2756 -0.1309 -0.7570
  182SOPE   H3X20835   4.577   3.044   7.044 -1.8303  0.6361  1.0636
  182SOPE   H3Y20836   4.545   2.872   7.015  0.3187  0.2247  0.2628
  182SOPE   C3420837   4.380   2.981   7.099 -0.3145 -0.2403 -0.2509
  182SOPE   H4X20838   4.346   3.086   7.112 -0.6668 -0.6117  2.2645
  182SOPE   H4Y20839   4.415   2.937   7.195  0.7202  1.1139  0.0319
  182SOPE   C3520840   4.257   2.903   7.048 -0.1542  0.5423 -0.1982
  182SOPE   H5X20841   4.281   2.795   7.034  1.3470  0.9005 -0.4986
  182SOPE   H5Y20842   4.229   2.937   6.946  0.8750  1.4926 -0.1771
  182SOPE   C3620843   4.142   2.909   7.145 -0.5846  0.1835  0.2279
  182SOPE   H6X20844   4.052   2.873   7.090 -0.0572 -0.5492 -0.1812
  182SOPE   H6Y20845   4.125   3.013   7.178 -1.5510 -0.2155  1.0556
  182SOPE   C3720846   4.146   2.821   7.275 -0.0045  0.0940  0.2494
  182SOPE   H7X20847   4.247   2.826   7.322 -0.4015 -1.1277  1.3179
  182SOPE   H7Y20848   4.123   2.718   7.241 -1.7229  0.1071  1.2268
  182SOPE   C3820849   4.038   2.864   7.388  0.6382 -0.1521 -0.2399
  182SOPE   H8X20850   3.935   2.856   7.347  0.3470  3.0561 -0.3568
  182SOPE   H8Y20851   4.071   2.968   7.406  1.8201 -0.3695 -0.9863
  182SOPE   C3920852   4.059   2.782   7.517 -0.5771  0.2403 -0.3420
  182SOPE   H9X20853   4.166   2.796   7.547 -0.3011 -1.0567 -0.6302
  182SOPE   H9Y20854   4.035   2.675   7.495 -1.3378  0.6801 -1.7687
  182SOPE  C31020855   3.974   2.845   7.633 -0.0025  0.3134 -0.7545
  182SOPE  H10X20856   3.868   2.827   7.604 -0.0996 -1.6848  0.5960
  182SOPE  H10Y20857   3.970   2.954   7.652  0.5967  0.0817  0.8809
  182SOPE  C31120858   4.006   2.782   7.768 -0.0931 -0.5702  0.3750
  182SOPE  H11X20859   4.102   2.827   7.801 -1.4559  0.7171  2.8341
  182SOPE  H11Y20860   4.028   2.676   7.746  1.3995 -0.3133  0.5538
  182SOPE  C31220861   3.901   2.810   7.879  0.0860  0.0622  0.0020
  182SOPE  H12X20862   3.814   2.745   7.857 -1.4085  1.0194  2.5601
  182SOPE  H12Y20863   3.874   2.918   7.873  0.6055  0.1191 -1.6586
  182SOPE  C31320864   3.953   2.782   8.018 -0.3598  0.1727 -0.5588
  182SOPE  H13X20865   4.008   2.689   7.990 -2.5594 -0.9659 -1.4285
  182SOPE  H13Y20866   3.868   2.753   8.084 -0.6630 -2.0191 -1.7853
  182SOPE  C31420867   4.035   2.896   8.073 -0.3629 -1.2248 -0.0205
  182SOPE  H14X20868   3.966   2.982   8.084  0.4549 -0.6375  0.6754
  182SOPE  H14Y20869   4.114   2.919   7.998 -1.2732 -0.0317 -0.6357
  182SOPE  C31520870   4.086   2.890   8.218  1.2083  0.1178  0.0310
  182SOPE  H15X20871   4.000   2.857   8.281  0.5540  2.2907  0.3552
  182SOPE  H15Y20872   4.119   2.994   8.241 -0.5835  0.2948  2.1566
  182SOPE  C31620873   4.203   2.786   8.251  0.3055 -0.5180 -0.2592
  182SOPE  H16X20874   4.216   2.788   8.361  3.3003  2.5515 -0.5036
  182SOPE  H16Y20875   4.298   2.824   8.207 -0.3376  0.8459 -0.5002
  182SOPE  C31720876   4.175   2.645   8.199  0.5658 -0.0562 -0.4873
  182SOPE  H17X20877   4.176   2.646   8.087 -0.5895  2.4007 -0.5219
  182SOPE  H17Y20878   4.078   2.604   8.235  0.4128  0.5661 -0.1938
  182SOPE  C31820879   4.276   2.538   8.258 -0.0868 -0.3151 -0.4998
  182SOPE  H18X20880   4.363   2.527   8.189 -0.5755 -0.7437 -1.0571
  182SOPE  H18Y20881   4.230   2.440   8.284 -0.6207 -0.1432 -0.7793
  182SOPE  H18Z20882   4.324   2.582   8.348 -2.0720  2.0857 -0.4992
  183SOPE     N20883   6.776   6.526   5.950 -0.2622 -0.4011 -0.4066
  183SOPE   HN120884   6.874   6.492   5.938 -0.2161 -0.7465  0.7585
  183SOPE   HN220885   6.725   6.545   5.862 -1.7190  3.0163  0.9808
  183SOPE   HN320886   6.778   6.621   5.993 -0.1598 -0.6664  0.1967
  183SOPE   C1220887   6.691   6.434   6.032  0.2162  0.3322  0.5571
  183SOPE  H12A20888   6.591   6.478   6.051 -1.2202 -2.8924  1.0745
  183SOPE  H12B20889   6.736   6.429   6.133 -0.2206  0.9313  0.7923
  183SOPE   C1120890   6.658   6.293   5.968  0.1996 -0.5574  0.6890
  183SOPE  H11A20891   6.606   6.318   5.873 -0.9040 -0.2139  1.3656
  183SOPE  H11B20892   6.576   6.248   6.028  0.8368 -2.0517  0.4731
  183SOPE     P20893   6.823   6.098   6.030  0.0667  0.4254 -0.0701
  183SOPE   O1320894   6.950   6.055   5.972 -0.0194  0.8040  0.3881
  183SOPE   O1420895   6.710   6.004   6.036  0.5257 -0.2302  0.3979
  183SOPE   O1220896   6.773   6.217   5.941 -0.5557 -0.8034  0.3125
  183SOPE   O1120897   6.849   6.168   6.168  0.2532 -0.1460 -0.1100
  183SOPE    C120898   6.963   6.248   6.188 -0.1215  0.2856  0.7803
  183SOPE    HA20899   6.936   6.349   6.151 -0.1225  0.1000  0.2710
  183SOPE    HB20900   7.051   6.205   6.137 -0.6907 -2.7313  2.1285
  183SOPE    C220901   6.992   6.270   6.339 -0.3290  0.6814 -0.2190
  183SOPE    HS20902   7.078   6.340   6.352 -0.6256  1.1232 -0.5839
  183SOPE   O2120903   7.034   6.139   6.398  0.2090 -0.5412 -0.0411
  183SOPE   C2120904   7.151   6.104   6.371 -0.9992  0.4279  0.4690
  183SOPE   O2220905   7.235   6.167   6.309  0.0722 -0.1039  0.0780
  183SOPE   C2220906   7.176   5.969   6.431 -0.1668  0.0966  0.4370
  183SOPE   H2R20907   7.179   5.901   6.343  0.7014  0.2614  0.3347
  183SOPE   H2S20908   7.095   5.944   6.503  0.0774 -0.1935  0.6135
  183SOPE    C320909   6.870   6.335   6.418 -0.1545 -0.1264  0.1354
  183SOPE    HX20910   6.785   6.278   6.376 -0.7382  0.3181  0.6746
  183SOPE    HY20911   6.850   6.441   6.390 -0.0559 -0.1613 -0.0666
  183SOPE   O3120912   6.885   6.316   6.556 -0.3254  0.5393  0.1356
  183SOPE   C3120913   6.777   6.313   6.642 -0.3344 -0.2072  0.1776
  183SOPE   O3220914   6.664   6.327   6.607 -0.3969  0.0603  0.1451
  183SOPE   C3220915   6.819   6.282   6.790  0.4885  0.1349  1.3304
  183SOPE   H2X20916   6.912   6.343   6.799  0.8372 -0.5583  2.5668
  183SOPE   H2Y20917   6.845   6.174   6.797  0.3532  0.0426  0.5474
  183SOPE   C2320918   7.307   5.954   6.504 -0.1531  0.3834  0.4436
  183SOPE   H3R20919   7.387   6.010   6.450  1.2512  0.4599  2.4810
  183SOPE   H3S20920   7.358   5.855   6.509 -0.4582  0.2090  0.1490
  183SOPE   C2420921   7.311   6.013   6.644  0.6617  0.4250  0.4661
  183SOPE   H4R20922   7.216   5.978   6.690 -0.2327  2.2398  0.1055
  183SOPE   H4S20923   7.387   5.963   6.707  1.0376 -2.6687 -2.1930
  183SOPE   C2520924   7.323   6.166   6.660  0.1946 -0.4376  0.0716
  183SOPE   H5R20925   7.426   6.202   6.644  0.2556 -0.3576  0.6317
  183SOPE   H5S20926   7.258   6.226   6.593 -0.2976 -0.8680  0.1528
  183SOPE   C2620927   7.284   6.194   6.811 -0.6430  0.2720 -0.2532
  183SOPE   H6R20928   7.180   6.156   6.822 -0.2092 -1.2777 -1.1645
  183SOPE   H6S20929   7.352   6.135   6.876 -0.4433 -1.0553 -1.5978
  183SOPE   C2720930   7.306   6.344   6.848  0.1647 -0.1647 -0.0730
  183SOPE   H7R20931   7.410   6.382   6.850 -0.5958  2.0832 -0.6972
  183SOPE   H7S20932   7.254   6.406   6.772  1.8392 -0.4312 -1.5119
  183SOPE   C2820933   7.248   6.381   6.989 -0.0410 -0.3505 -0.2434
  183SOPE   H8R20934   7.143   6.346   6.980 -0.4847  0.7059  0.5055
  183SOPE   H8S20935   7.288   6.305   7.059 -1.9642 -0.2713  1.0064
  183SOPE   C2920936   7.259   6.527   7.036 -0.0340  0.2262 -0.5803
  183SOPE   H9120937   7.184   6.600   7.005  0.1555  0.7365  0.1390
  183SOPE  C21020938   7.343   6.580   7.128  0.2447 -0.0479 -0.8244
  183SOPE  H10120939   7.334   6.687   7.154 -1.7803  0.7638 -4.2365
  183SOPE  C21120940   7.459   6.509   7.199  0.5372 -0.1278  0.0545
  183SOPE  H11R20941   7.546   6.578   7.213 -0.5373  1.3106 -0.1003
  183SOPE  H11S20942   7.495   6.427   7.134 -1.4617 -0.8688 -0.1810
  183SOPE  C21220943   7.417   6.445   7.333  0.4850  0.5277  0.8168
  183SOPE  H12R20944   7.510   6.406   7.378  1.1121 -0.9997 -1.6739
  183SOPE  H12S20945   7.348   6.359   7.317  2.4378 -0.9215 -0.0807
  183SOPE  C21320946   7.362   6.541   7.439  0.7609  0.2500  0.4559
  183SOPE  H13R20947   7.274   6.581   7.384  0.4718 -1.1959 -0.1726
  183SOPE  H13S20948   7.446   6.610   7.462  3.2988 -2.4839 -0.0051
  183SOPE  C21420949   7.306   6.477   7.572  0.3685 -0.1681  0.4397
  183SOPE  H14R20950   7.396   6.418   7.597  1.1663  0.2470 -1.2641
  183SOPE  H14S20951   7.222   6.410   7.545  1.1974 -1.2193  0.4347
  183SOPE  C21520952   7.257   6.584   7.668 -0.5642 -0.1454  0.1067
  183SOPE  H15R20953   7.183   6.651   7.618 -0.8157 -0.1080  0.5205
  183SOPE  H15S20954   7.346   6.646   7.691  0.8192 -2.4060  1.1312
  183SOPE  C21620955   7.202   6.531   7.802 -0.1062  0.4954  0.7612
  183SOPE  H16R20956   7.263   6.451   7.849  1.6167  1.2958 -0.0231
  183SOPE  H16S20957   7.101   6.488   7.784  0.7127 -2.1537  1.9749
  183SOPE  C21720958   7.185   6.647   7.898 -0.0834 -0.1182  0.1965
  183SOPE  H17R20959   7.149   6.733   7.838 -0.7908 -0.7682 -0.3340
  183SOPE  H17S20960   7.284   6.674   7.940  0.2468 -3.6491  2.1242
  183SOPE  C21820961   7.088   6.629   8.017  0.7888  0.6061 -1.0320
  183SOPE  H18R20962   7.023   6.718   8.032  1.0234  0.3211  2.9624
  183SOPE  H18S20963   7.150   6.622   8.109  0.9751 -0.0782 -1.2076
  183SOPE  H18T20964   7.023   6.539   8.016 -1.1849  1.8403  1.3475
  183SOPE   C3320965   6.718   6.321   6.896 -0.1504 -0.2345 -0.0236
  183SOPE   H3X20966   6.636   6.248   6.883  0.7419 -1.2573 -0.1145
  183SOPE   H3Y20967   6.680   6.424   6.886 -0.4654 -0.5243 -2.4741
  183SOPE   C3420968   6.775   6.306   7.040  0.0070  0.4349 -0.2541
  183SOPE   H4X20969   6.822   6.205   7.042 -0.3259  0.2789 -0.0549
  183SOPE   H4Y20970   6.694   6.305   7.116  0.0684 -2.2969 -0.1025
  183SOPE   C3520971   6.883   6.405   7.092 -0.1381 -0.3348 -0.4174
  183SOPE   H5X20972   6.825   6.492   7.130  0.2016 -0.3151  0.0509
  183SOPE   H5Y20973   6.962   6.436   7.020  0.8820 -2.1447 -0.1220
  183SOPE   C3620974   6.958   6.350   7.211  0.0857  0.0940  0.2384
  183SOPE   H6X20975   7.041   6.419   7.234 -0.5027 -0.1369  3.5061
  183SOPE   H6Y20976   7.010   6.260   7.170  2.8939  2.0562 -0.8483
  183SOPE   C3720977   6.879   6.338   7.342  0.5523 -0.0439  0.5913
  183SOPE   H7X20978   6.801   6.258   7.339  0.3083  0.1958  0.4553
  183SOPE   H7Y20979   6.822   6.433   7.343 -0.0035 -0.3565 -0.1328
  183SOPE   C3820980   6.960   6.323   7.471  0.2208  0.1122 -0.4918
  183SOPE   H8X20981   7.024   6.413   7.473 -0.8271  0.9121 -1.6115
  183SOPE   H8Y20982   7.027   6.234   7.471 -1.6006 -1.3340 -0.7248
  183SOPE   C3920983   6.864   6.319   7.597 -0.2850  0.3226  0.4835
  183SOPE   H9X20984   6.930   6.262   7.666  0.2195  1.2339  0.7795
  183SOPE   H9Y20985   6.775   6.258   7.570  1.6307 -2.4989  0.1101
  183SOPE  C31020986   6.845   6.465   7.660  0.9997  0.6185 -0.2897
  183SOPE  H10X20987   6.942   6.490   7.707  0.2941 -0.3656  1.8205
  183SOPE  H10Y20988   6.782   6.450   7.751  0.0668  1.7935 -0.7168
  183SOPE  C31120989   6.787   6.585   7.576  0.2931 -0.5648 -0.0916
  183SOPE  H11X20990   6.679   6.565   7.560 -0.1516  1.1707  0.4924
  183SOPE  H11Y20991   6.835   6.591   7.476 -0.8355 -0.8287 -0.6573
  183SOPE  C31220992   6.793   6.719   7.653  0.2329  0.1451 -0.2530
  183SOPE  H12X20993   6.747   6.798   7.590 -0.7113  0.1213  0.3733
  183SOPE  H12Y20994   6.899   6.753   7.655  0.0349  0.7562  0.7213
  183SOPE  C31320995   6.732   6.719   7.792 -0.4557 -0.6822  0.0950
  183SOPE  H13X20996   6.779   6.649   7.864 -1.2616 -1.7240 -0.3671
  183SOPE  H13Y20997   6.628   6.680   7.783 -0.6631  0.1472 -1.3944
  183SOPE  C31420998   6.720   6.858   7.864 -0.0276 -0.0637  0.6566
  183SOPE  H14X20999   6.654   6.919   7.799  3.9732  1.1747 -2.6877
  183SOPE  H14Y21000   6.819   6.905   7.847  0.2381 -0.0369  2.1239
  183SOPE  C31521001   6.676   6.853   8.010 -0.0860  0.6119  0.2216
  183SOPE  H15X21002   6.749   6.785   8.058 -1.3323  1.6480  3.9221
  183SOPE  H15Y21003   6.581   6.798   8.023  0.9664 -1.4744 -0.3625
  183SOPE  C31621004   6.676   6.986   8.087 -0.0661  0.1663  0.0200
  183SOPE  H16X21005   6.598   7.050   8.040 -0.2739  0.0110  0.1556
  183SOPE  H16Y21006   6.769   7.047   8.097  0.0787 -0.2995  1.8754
  183SOPE  C31721007   6.624   6.958   8.225 -0.7767  0.0808  0.1143
  183SOPE  H17X21008   6.687   6.893   8.289 -2.1775 -0.9470  0.5086
  183SOPE  H17Y21009   6.531   6.898   8.220 -1.3246  0.8014  1.1336
  183SOPE  C31821010   6.605   7.087   8.306 -0.6417 -0.3786 -0.3606
  183SOPE  H18X21011   6.560   7.081   8.408 -0.4260 -0.7260 -0.2835
  183SOPE  H18Y21012   6.539   7.153   8.246  1.0692 -0.8804 -2.9673
  183SOPE  H18Z21013   6.694   7.153   8.316  0.3707 -1.3713 -2.2169
  184SOPE     N21014   6.172   1.153   6.113  0.5326 -0.1896 -0.2308
  184SOPE   HN121015   6.273   1.144   6.089  1.2673 -0.0369  2.4609
  184SOPE   HN221016   6.134   1.057   6.124  0.6693 -0.4826 -1.9968
  184SOPE   HN321017   6.115   1.191   6.034 -0.0318 -0.4359  0.0524
  184SOPE   C1221018   6.140   1.246   6.232 -0.8072  0.7005 -1.0976
  184SOPE  H12A21019   6.229   1.235   6.299 -0.4054  3.0145 -1.1738
  184SOPE  H12B21020   6.046   1.204   6.274 -1.0856  0.4176 -1.9860
  184SOPE   C1121021   6.110   1.383   6.175 -0.4698 -0.4392 -0.1293
  184SOPE  H11A21022   6.070   1.455   6.249 -2.0964  0.7907 -2.0936
  184SOPE  H11B21023   6.018   1.371   6.115  0.3700  0.0054 -1.5596
  184SOPE     P21024   6.347   1.502   6.171  0.4243 -0.1202  0.2696
  184SOPE   O1321025   6.425   1.569   6.060 -1.0110 -0.8364 -0.3467
  184SOPE   O1421026   6.415   1.392   6.248 -0.1943 -0.1711  0.3093
  184SOPE   O1221027   6.216   1.448   6.102 -0.1770  0.6533  0.3451
  184SOPE   O1121028   6.289   1.614   6.272 -0.1619  0.2171  0.0901
  184SOPE    C121029   6.368   1.666   6.383  0.0874  0.3123  0.1075
  184SOPE    HA21030   6.356   1.776   6.380 -0.9818  0.2196  0.5933
  184SOPE    HB21031   6.475   1.643   6.363 -0.4130 -1.6687 -0.5608
  184SOPE    C221032   6.317   1.608   6.518  0.6382  0.1298  0.4432
  184SOPE    HS21033   6.326   1.498   6.516  0.5950  0.0909  1.4550
  184SOPE   O2121034   6.177   1.646   6.539 -0.4161 -0.4139 -0.2915
  184SOPE   C2121035   6.107   1.562   6.610 -0.3548 -0.1436 -0.4170
  184SOPE   O2221036   6.149   1.459   6.665 -0.2131  0.1778  1.0555
  184SOPE   C2221037   5.978   1.619   6.634  0.0838 -0.4020  1.1083
  184SOPE   H2R21038   5.911   1.584   6.553  0.0682  2.6272 -0.3086
  184SOPE   H2S21039   5.964   1.729   6.639  0.1546 -0.3431  0.1775
  184SOPE    C321040   6.406   1.658   6.635  0.2875 -0.2335 -0.4539
  184SOPE    HX21041   6.407   1.768   6.619 -2.1165 -0.0698  0.1034
  184SOPE    HY21042   6.512   1.631   6.619  0.5492  0.5839 -0.1634
  184SOPE   O3121043   6.360   1.622   6.771 -0.1220 -0.5341  0.0013
  184SOPE   C3121044   6.422   1.519   6.828 -0.2295 -0.5062  0.4222
  184SOPE   O3221045   6.503   1.444   6.779  0.3573 -0.0778  0.8289
  184SOPE   C3221046   6.391   1.516   6.972 -0.6258 -0.2433 -0.3812
  184SOPE   H2X21047   6.456   1.589   7.025 -0.8393 -1.0969  1.1103
  184SOPE   H2Y21048   6.424   1.421   7.019  0.8192  0.8861  1.0517
  184SOPE   C2321049   5.921   1.563   6.765  0.3844 -0.1704 -0.5469
  184SOPE   H3R21050   5.992   1.542   6.848  4.1421  1.2358 -3.0999
  184SOPE   H3S21051   5.886   1.463   6.731  0.8402 -1.3747  2.2429
  184SOPE   C2421052   5.803   1.638   6.823  0.3673  0.5325 -0.3018
  184SOPE   H4R21053   5.838   1.742   6.840  0.1206  0.3788  1.3974
  184SOPE   H4S21054   5.706   1.638   6.769  0.8645  0.5676 -1.2024
  184SOPE   C2521055   5.772   1.588   6.968 -0.5437  0.5403 -0.4199
  184SOPE   H5R21056   5.742   1.482   6.953  3.4176 -0.6711 -1.0432
  184SOPE   H5S21057   5.865   1.590   7.029  1.1608  3.2025 -2.8499
  184SOPE   C2621058   5.663   1.660   7.050 -0.1821  0.8922  0.7190
  184SOPE   H6R21059   5.576   1.668   6.981  0.2609 -2.2135 -0.3531
  184SOPE   H6S21060   5.634   1.599   7.138 -0.7934  0.5223  0.2715
  184SOPE   C2721061   5.710   1.799   7.088  0.3815 -0.6641  0.0063
  184SOPE   H7R21062   5.798   1.793   7.155  0.9565  2.3700 -0.3632
  184SOPE   H7S21063   5.735   1.842   6.989  0.8589 -2.0971 -0.5264
  184SOPE   C2821064   5.600   1.886   7.150  1.2848  0.1771  0.2586
  184SOPE   H8R21065   5.635   1.991   7.155 -1.0807  1.1453 -1.5393
  184SOPE   H8S21066   5.523   1.892   7.070  0.5924 -1.3506  0.7613
  184SOPE   C2921067   5.524   1.846   7.276 -0.3369  0.7194  0.6577
  184SOPE   H9121068   5.453   1.764   7.257  2.0997 -1.4546  0.5138
  184SOPE  C21021069   5.544   1.875   7.404 -0.0013 -0.2092  0.3706
  184SOPE  H10121070   5.466   1.847   7.476  3.0395  1.8991  4.9246
  184SOPE  C21121071   5.644   1.978   7.458  0.0242 -0.0493 -0.2040
  184SOPE  H11R21072   5.656   2.063   7.387  2.3926  0.8098  1.1424
  184SOPE  H11S21073   5.743   1.934   7.482  0.8381  1.1609 -1.2032
  184SOPE  C21221074   5.600   2.046   7.588 -0.3101 -0.6511  0.4053
  184SOPE  H12R21075   5.514   2.111   7.562  0.8699  0.3649 -1.1399
  184SOPE  H12S21076   5.695   2.098   7.616 -0.0708 -2.7890  4.2967
  184SOPE  C21321077   5.575   1.954   7.709 -0.5305 -0.3400  0.1446
  184SOPE  H13R21078   5.673   1.901   7.713 -0.9948 -1.2136  0.2278
  184SOPE  H13S21079   5.504   1.874   7.680  0.3345 -0.3539 -2.2502
  184SOPE  C21421080   5.526   2.034   7.833 -0.0834 -0.0966  0.0464
  184SOPE  H14R21081   5.424   2.077   7.821  1.2685  2.7825 -2.6886
  184SOPE  H14S21082   5.600   2.116   7.842  2.6370 -2.5605  2.1239
  184SOPE  C21521083   5.530   1.951   7.962  0.4653 -0.0551 -0.1245
  184SOPE  H15R21084   5.632   1.907   7.967  0.6221  0.4264  2.8112
  184SOPE  H15S21085   5.463   1.862   7.960 -1.1439  1.1225 -1.1309
  184SOPE  C21621086   5.510   2.038   8.084  0.3800 -0.6395  0.2034
  184SOPE  H16R21087   5.416   2.094   8.067 -0.0521 -1.5427 -0.4479
  184SOPE  H16S21088   5.591   2.114   8.084 -1.5371  1.5247  0.2222
  184SOPE  C21721089   5.504   1.965   8.219  0.4100 -0.3656  0.3706
  184SOPE  H17R21090   5.610   1.955   8.253  0.1917 -1.3481  0.8232
  184SOPE  H17S21091   5.459   1.864   8.211 -2.5895  0.8430  0.7334
  184SOPE  C21821092   5.419   2.039   8.326 -0.4652  0.6613  0.1124
  184SOPE  H18R21093   5.310   2.030   8.307 -0.3125 -1.2437 -0.0784
  184SOPE  H18S21094   5.439   2.148   8.318 -1.3689  0.7892 -0.6084
  184SOPE  H18T21095   5.451   2.004   8.427 -0.6211 -2.6072 -0.8413
  184SOPE   C3321096   6.246   1.541   7.001  0.3261 -0.2258 -0.5255
  184SOPE   H3X21097   6.186   1.463   6.950 -0.7265 -0.4346  0.9805
  184SOPE   H3Y21098   6.232   1.648   6.974  2.4630 -0.1224 -1.4448
  184SOPE   C3421099   6.212   1.528   7.154 -1.2846  0.2556 -0.4587
  184SOPE   H4X21100   6.290   1.575   7.218  0.5198 -3.2709  0.1665
  184SOPE   H4Y21101   6.229   1.419   7.169 -0.7398  0.2756 -0.8851
  184SOPE   C3521102   6.076   1.564   7.201 -0.4421 -0.6120  0.1968
  184SOPE   H5X21103   6.006   1.508   7.135  0.5608  0.5445 -1.9772
  184SOPE   H5Y21104   6.062   1.670   7.168  3.1980  0.5110  1.7831
  184SOPE   C3621105   6.056   1.539   7.354 -0.1571 -0.0624  0.6076
  184SOPE   H6X21106   6.134   1.596   7.410  0.8172  0.0139 -0.7689
  184SOPE   H6Y21107   6.065   1.433   7.384 -2.3983 -0.7551 -0.8936
  184SOPE   C3721108   5.920   1.593   7.404  0.6072 -0.1583 -0.1600
  184SOPE   H7X21109   5.837   1.549   7.345  1.2461 -2.7607  0.7203
  184SOPE   H7Y21110   5.918   1.702   7.383  0.6123 -0.3794 -1.3686
  184SOPE   C3821111   5.892   1.573   7.553  0.6196  0.0181  0.6669
  184SOPE   H8X21112   5.979   1.614   7.609  0.2612  0.7525  0.7121
  184SOPE   H8Y21113   5.885   1.467   7.583  2.6658 -0.0095  1.2146
  184SOPE   C3921114   5.756   1.640   7.599  0.9803  0.4001  0.7141
  184SOPE   H9X21115   5.679   1.622   7.521 -0.1755 -0.2283  1.9379
  184SOPE   H9Y21116   5.764   1.747   7.628 -0.0702  0.6186  0.2427
  184SOPE  C31021117   5.702   1.594   7.737 -0.6545 -0.4070 -0.2848
  184SOPE  H10X21118   5.700   1.483   7.742 -0.1772 -0.3805  0.6697
  184SOPE  H10Y21119   5.600   1.635   7.751 -0.1981 -0.2560  3.8462
  184SOPE  C31121120   5.771   1.649   7.865  0.1525  0.1489 -0.2011
  184SOPE  H11X21121   5.779   1.756   7.838  0.4448  0.6076  1.5592
  184SOPE  H11Y21122   5.870   1.602   7.881  0.5851  0.3374 -2.0940
  184SOPE  C31221123   5.674   1.629   7.981  0.4800 -0.4155 -0.4177
  184SOPE  H12X21124   5.574   1.656   7.939  1.4215  1.4014 -1.6218
  184SOPE  H12Y21125   5.700   1.696   8.065 -1.8404 -1.0700  0.9101
  184SOPE  C31321126   5.683   1.486   8.024 -0.5143 -0.6853  0.1336
  184SOPE  H13X21127   5.784   1.439   8.030  0.0236  0.2431 -1.1956
  184SOPE  H13Y21128   5.642   1.427   7.940  1.1869 -0.1330 -1.1343
  184SOPE  C31421129   5.602   1.465   8.153  0.1703  0.1578 -0.0741
  184SOPE  H14X21130   5.553   1.366   8.141 -0.5378  0.2971  1.3879
  184SOPE  H14Y21131   5.521   1.539   8.173 -0.1308 -0.3376  0.6024
  184SOPE  C31521132   5.686   1.447   8.287 -0.1372  0.4135 -0.3576
  184SOPE  H15X21133   5.752   1.358   8.295  2.9331  2.4634 -0.9219
  184SOPE  H15Y21134   5.617   1.439   8.373  0.6025  2.5779  0.5119
  184SOPE  C31621135   5.770   1.568   8.322  0.7159 -0.3971  0.0080
  184SOPE  H16X21136   5.703   1.656   8.311  1.7604  0.3916 -0.2846
  184SOPE  H16Y21137   5.862   1.586   8.262  1.8476  0.4455  1.9200
  184SOPE  C31721138   5.809   1.562   8.469 -0.8777 -0.4968  0.1667
  184SOPE  H17X21139   5.877   1.475   8.480 -3.8023 -3.6009 -3.4729
  184SOPE  H17Y21140   5.722   1.533   8.531 -0.5016 -1.0879  0.4290
  184SOPE  C31821141   5.870   1.687   8.528 -0.6964  0.2683 -0.0218
  184SOPE  H18X21142   5.796   1.769   8.512 -1.1366  0.2310  1.7130
  184SOPE  H18Y21143   5.960   1.719   8.469 -1.0516  4.7004  1.4471
  184SOPE  H18Z21144   5.910   1.680   8.631  0.3442 -4.0562 -0.5508
  185SAPI   C1221145   2.157   2.705  11.019 -0.6689 -0.5479  0.5256
  185SAPI    H221146   2.169   2.723  10.910 -1.0190 -2.8136  0.0507
  185SAPI    O221147   2.114   2.573  11.037  0.3863  0.2868 -0.1993
  185SAPI   HO221148   2.138   2.523  10.959  1.5344 -2.0195  1.5160
  185SAPI   C1321149   2.296   2.712  11.090 -0.5254 -0.4842 -0.0993
  185SAPI    H321150   2.326   2.817  11.068 -0.2977 -0.7316 -1.0365
  185SAPI    O321151   2.386   2.622  11.027 -0.2907 -0.4453 -0.4665
  185SAPI   HO321152   2.364   2.621  10.933 -3.4368 -0.6256  0.1768
  185SAPI   C1421153   2.287   2.686  11.240  0.5213 -0.0653 -0.1437
  185SAPI    H421154   2.259   2.579  11.249  1.8790 -0.6657 -2.3600
  185SAPI    O421155   2.417   2.690  11.299 -0.0288 -0.5951  0.6701
  185SAPI   HO421156   2.454   2.777  11.281 -2.3666  0.4202  0.3955
  185SAPI   C1521157   2.191   2.775  11.304 -0.4906 -0.5334 -0.7635
  185SAPI    H521158   2.229   2.879  11.295 -0.6511 -0.0622  2.5833
  185SAPI    O521159   2.176   2.744  11.443 -0.2883  0.7938  0.1191
  185SAPI   HO521160   2.095   2.693  11.436 -0.9156  1.5577  1.4067
  185SAPI   C1621161   2.052   2.763  11.232 -0.6260  0.0946  0.3122
  185SAPI    H621162   2.019   2.658  11.239 -0.4300 -0.1057 -1.2830
  185SAPI    O621163   1.968   2.854  11.292 -0.0533  0.3383 -0.2000
  185SAPI   HO621164   1.882   2.840  11.251  0.4064  1.2295 -1.5404
  185SAPI   C1121165   2.054   2.799  11.086 -0.6799  0.6949  1.2338
  185SAPI    H121166   2.099   2.900  11.073 -0.9733  0.4976 -2.2582
  185SAPI     P21167   1.871   2.917  10.929  0.1472  0.1389 -0.3598
  185SAPI   O1321168   1.924   3.045  10.981  0.6539 -0.0146  0.2477
  185SAPI   O1421169   1.722   2.906  10.917 -0.0495 -0.0995  0.6510
  185SAPI   O1221170   1.927   2.792  11.015 -0.0172 -0.2559 -0.6372
  185SAPI   O1121171   1.929   2.898  10.780  0.0781  0.3202  0.7004
  185SAPI    C121172   1.887   2.795  10.692 -0.0181 -0.3308 -0.4251
  185SAPI    HA21173   1.944   2.701  10.701 -2.1604 -1.6321  0.1491
  185SAPI    HB21174   1.779   2.774  10.703 -0.2163  1.3280  1.2736
  185SAPI    C221175   1.890   2.848  10.538  0.8519  0.5121 -0.5611
  185SAPI    HS21176   1.819   2.784  10.481  1.1548  1.1783 -1.7013
  185SAPI   O2121177   2.024   2.826  10.490 -0.0544 -0.1982 -0.6292
  185SAPI   C2121178   2.040   2.839  10.355 -0.9061 -0.2006 -0.1674
  185SAPI   O2221179   1.948   2.819  10.279 -0.8776 -0.1136  0.0185
  185SAPI   C2221180   2.183   2.867  10.324 -0.1677 -0.2968  0.1016
  185SAPI   H2R21181   2.213   2.960  10.377 -2.6262  0.2639  0.6480
  185SAPI   H2S21182   2.256   2.791  10.356  0.6938  0.0836 -0.8882
  185SAPI    C321183   1.851   3.000  10.519  0.8409 -0.8069  0.4029
  185SAPI    HX21184   1.932   3.074  10.537 -3.1379  3.3577  3.4241
  185SAPI    HY21185   1.787   3.019  10.607  0.6823 -2.1627  0.6013
  185SAPI   O3121186   1.781   3.034  10.394  0.1103  0.0640  0.0920
  185SAPI   C3121187   1.660   2.983  10.375 -0.4697  0.1113  0.2043
  185SAPI   O3221188   1.599   2.912  10.453  0.0173 -0.3196  0.4649
  185SAPI   C3221189   1.602   3.042  10.249  0.2853  0.0782 -0.1220
  185SAPI   H2X21190   1.602   3.151  10.266  0.3246  0.6186 -3.0155
  185SAPI   H2Y21191   1.501   3.003  10.223 -0.1497 -0.1480  1.7623
  185SAPI   C2321192   2.196   2.887  10.171  0.0251 -0.2891 -0.3085
  185SAPI   H3R21193   2.131   2.973  10.144 -0.1475 -0.2449  0.2351
  185SAPI   H3S21194   2.159   2.810  10.101  3.3213 -0.7861 -1.6756
  185SAPI   C2421195   2.343   2.919  10.119  0.6062  0.0118  0.2731
  185SAPI   H4R21196   2.405   2.826  10.125 -2.1058 -1.9712 -0.4806
  185SAPI   H4S21197   2.380   3.001  10.184 -0.3663  0.4446  0.2855
  185SAPI   C2521198   2.329   2.969   9.975  0.3961 -0.9611 -0.3115
  185SAPI   H5R21199   2.261   3.054   9.965 -0.3667 -1.3597  1.1740
  185SAPI   C2621200   2.372   2.904   9.872  0.7034 -0.4782  0.8992
  185SAPI   H6R21201   2.344   2.957   9.780 -1.8317 -0.6062  1.5335
  185SAPI   C2721202   2.440   2.777   9.856 -0.1933  0.1501 -0.0945
  185SAPI   H7R21203   2.365   2.702   9.887 -0.1206  0.1893  0.1777
  185SAPI   H7S21204   2.518   2.763   9.934  1.2679 -0.1816 -1.5461
  185SAPI   C2821205   2.497   2.742   9.720  0.0418  0.5126 -1.1533
  185SAPI   H8R21206   2.581   2.673   9.737 -0.9353 -0.3241  0.4902
  185SAPI   C2921207   2.463   2.765   9.591 -0.6613 -0.4474 -0.9996
  185SAPI   H9R21208   2.527   2.722   9.513  0.4561  1.3954 -1.1387
  185SAPI  C21021209   2.348   2.851   9.542  0.1532  0.2934 -0.1733
  185SAPI  H10R21210   2.398   2.936   9.490 -2.5155  3.0017  1.3433
  185SAPI  H10S21211   2.278   2.891   9.619 -0.4830  0.9043 -1.0591
  185SAPI  C21121212   2.270   2.763   9.452 -0.0536 -0.4982  0.4081
  185SAPI  H11R21213   2.250   2.660   9.484  1.8784 -1.0508 -0.0064
  185SAPI  C21221214   2.235   2.800   9.331 -0.4185  0.4872  0.7890
  185SAPI  H12R21215   2.184   2.724   9.269 -0.5304  1.0518  0.1822
  185SAPI  C21321216   2.269   2.928   9.260  0.2634 -0.9347 -0.8034
  185SAPI  H13R21217   2.379   2.940   9.248  0.4789 -1.7649  0.2346
  185SAPI  H13S21218   2.239   3.010   9.328 -2.3453 -0.9749 -1.7854
  185SAPI  C21421219   2.203   2.956   9.124  0.5701 -0.2516  0.2124
  185SAPI  H14R21220   2.113   3.018   9.132  0.5341  0.4942 -3.8662
  185SAPI  C21521221   2.239   2.913   8.999 -0.1748  0.2632 -0.1208
  185SAPI  H15R21222   2.172   2.924   8.913  0.3692  1.5535 -0.3979
  185SAPI  C21621223   2.365   2.833   8.975  0.2107 -0.0688  0.3894
  185SAPI  H16R21224   2.430   2.829   9.065  0.3283  0.3271  0.3248
  185SAPI  H16S21225   2.414   2.879   8.887 -1.5902  3.5105  1.0484
  185SAPI  C21721226   2.334   2.682   8.940 -0.3212 -0.2208 -0.3653
  185SAPI  H17R21227   2.242   2.646   8.992 -1.4663 -1.5464 -3.0982
  185SAPI  H17S21228   2.415   2.621   8.986 -0.9708  0.0226  1.1563
  185SAPI  C21821229   2.326   2.653   8.788  0.7705  0.2913 -0.2141
  185SAPI  H18R21230   2.417   2.589   8.782  0.0466 -1.5188  4.1258
  185SAPI  H18S21231   2.341   2.746   8.728  0.9386  0.9470  0.8228
  185SAPI  C21921232   2.193   2.582   8.744  0.1538  0.8105  0.7219
  185SAPI  H19R21233   2.110   2.655   8.756 -1.1642 -0.0690 -2.1249
  185SAPI  H19S21234   2.174   2.488   8.800 -1.0789 -0.0777 -1.0974
  185SAPI  C22021235   2.189   2.554   8.592  0.6149  0.5546  0.0714
  185SAPI  H20R21236   2.260   2.471   8.570 -2.6762 -1.9237 -2.3623
  185SAPI  H20S21237   2.233   2.642   8.542  1.3506  1.2273  1.8240
  185SAPI  H20T21238   2.091   2.526   8.548  1.2807 -2.9568  0.5138
  185SAPI   C3321239   1.694   2.998  10.133  0.2083 -0.1237 -0.8463
  185SAPI   H3X21240   1.678   2.888  10.138  1.8447 -0.3508  0.3721
  185SAPI   H3Y21241   1.800   3.018  10.161  0.1158 -1.1264  0.3032
  185SAPI   C3421242   1.659   3.080  10.002  0.5403  0.4256 -0.4265
  185SAPI   H4X21243   1.684   3.181  10.043  1.7461 -0.8775  2.2920
  185SAPI   H4Y21244   1.552   3.065   9.977  0.5784  0.7261 -0.7759
  185SAPI   C3521245   1.741   3.042   9.883 -0.6068 -0.3575 -0.0577
  185SAPI   H5X21246   1.735   3.122   9.807 -1.5777  0.4001  0.7814
  185SAPI   H5Y21247   1.683   2.956   9.841 -4.0682  1.5838  0.3316
  185SAPI   C3621248   1.892   3.011   9.905 -0.0511 -0.5843 -0.1354
  185SAPI   H6X21249   1.902   2.950   9.997 -1.5728 -0.0675  0.4153
  185SAPI   H6Y21250   1.948   3.104   9.925 -4.3647  2.1472  0.4322
  185SAPI   C3721251   1.963   2.949   9.782  0.5747 -0.5128 -0.1306
  185SAPI   H7X21252   1.884   2.883   9.741 -1.7408 -0.9564  4.3910
  185SAPI   H7Y21253   2.038   2.876   9.821 -0.3196 -0.4780  1.7774
  185SAPI   C3821254   2.017   3.061   9.683  0.9429  0.0799 -0.1480
  185SAPI   H8X21255   2.084   3.002   9.616 -0.6986 -3.0283  0.7317
  185SAPI   H8Y21256   2.073   3.134   9.744  0.5655  0.1837  0.0774
  185SAPI   C3921257   1.915   3.117   9.596 -0.6708 -0.1733 -0.3444
  185SAPI   H9X21258   1.981   3.167   9.522 -0.6284  1.2515  0.6145
  185SAPI   H9Y21259   1.855   3.196   9.647 -0.8146 -1.0973  0.9637
  185SAPI  C31021260   1.822   3.018   9.520 -0.5934  0.3173 -1.0235
  185SAPI  H10X21261   1.737   2.998   9.588 -1.0435 -0.8699 -1.9061
  185SAPI  H10Y21262   1.881   2.926   9.498 -1.4786 -0.7127  0.6788
  185SAPI  C31121263   1.755   3.069   9.397 -0.1038 -0.1747 -0.0971
  185SAPI  H11X21264   1.679   3.146   9.420  0.5179 -0.0351  1.6158
  185SAPI  H11Y21265   1.704   2.978   9.358  2.9881 -2.3051  0.4946
  185SAPI  C31221266   1.843   3.114   9.281 -0.1144 -0.1582 -0.2073
  185SAPI  H12X21267   1.933   3.050   9.281  0.4123  0.4948  1.9770
  185SAPI  H12Y21268   1.889   3.209   9.315  1.0001 -1.0206  0.7445
  185SAPI  C31321269   1.787   3.127   9.138  0.0270 -0.4507 -0.4700
  185SAPI  H13X21270   1.680   3.159   9.141 -0.1558 -1.0559 -0.1889
  185SAPI  H13Y21271   1.790   3.029   9.086 -0.5183 -0.1924 -1.0117
  185SAPI  C31421272   1.861   3.214   9.030  0.4015  0.2571 -0.1481
  185SAPI  H14X21273   1.971   3.204   9.045  0.8021  4.2028  0.4913
  185SAPI  H14Y21274   1.839   3.320   9.054 -3.4079 -0.5484  0.5962
  185SAPI  C31521275   1.824   3.168   8.885 -0.3304  0.7247  0.8443
  185SAPI  H15X21276   1.714   3.155   8.871  0.0127 -2.0410  0.2219
  185SAPI  H15Y21277   1.873   3.069   8.875 -1.0722  0.5031 -1.2666
  185SAPI  C31621278   1.877   3.264   8.776  0.9477 -0.1746  0.0803
  185SAPI  H16X21279   1.844   3.367   8.802  4.7110  0.7583  1.8640
  185SAPI  H16Y21280   1.817   3.222   8.693 -2.3765  0.6194  1.9356
  185SAPI  C31721281   2.020   3.263   8.746 -0.1935 -0.2371  1.0091
  185SAPI  H17X21282   2.082   3.284   8.836  1.0014  0.2954  0.0972
  185SAPI  H17Y21283   2.043   3.353   8.684 -0.4250 -0.5868  0.4151
  185SAPI  C31821284   2.070   3.137   8.671  0.1113  0.4693  0.1240
  185SAPI  H18X21285   2.039   3.041   8.718  2.0434 -0.6827 -0.8451
  185SAPI  H18Y21286   2.180   3.130   8.657  0.1717  0.7925  0.4097
  185SAPI  H18Z21287   2.024   3.139   8.570  0.4901 -0.3574 -0.0694
  186SAPI   C1221288   4.352   1.360  10.966 -0.4753  0.5921 -0.6313
  186SAPI    H221289   4.248   1.401  10.970 -0.0006  1.7419  1.2394
  186SAPI    O221290   4.416   1.435  10.861  0.1543  0.6111  0.3288
  186SAPI   HO221291   4.370   1.417  10.779 -1.7107  1.6781  1.0714
  186SAPI   C1321292   4.422   1.393  11.095  0.0607 -0.0644 -0.0232
  186SAPI    H321293   4.372   1.333  11.174  2.3324 -0.7940  0.9475
  186SAPI    O321294   4.401   1.526  11.131 -0.1118 -0.1337 -0.3770
  186SAPI   HO321295   4.329   1.533  11.194  0.3107  0.5710  0.0379
  186SAPI   C1421296   4.566   1.356  11.086  0.1199  0.4529  0.2728
  186SAPI    H421297   4.608   1.414  11.001 -1.1158  0.4428 -0.3665
  186SAPI    O421298   4.636   1.380  11.210  0.0020 -0.0508 -0.3369
  186SAPI   HO421299   4.612   1.314  11.275  0.1625 -0.1873 -0.4174
  186SAPI   C1521300   4.577   1.203  11.057 -0.1453 -0.1418 -0.3757
  186SAPI    H521301   4.524   1.149  11.138 -1.0952 -0.1585 -0.9955
  186SAPI    O521302   4.714   1.162  11.052 -0.0795  0.0921 -0.1661
  186SAPI   HO521303   4.735   1.129  11.140  1.9155 -0.0668 -0.6625
  186SAPI   C1621304   4.505   1.159  10.932  0.1396  0.8274 -0.0447
  186SAPI    H621305   4.554   1.201  10.842  1.0070  2.4914  1.1582
  186SAPI    O621306   4.510   1.017  10.922  0.9623 -0.4277  0.0878
  186SAPI   HO621307   4.430   0.996  10.873  1.6156 -0.2385 -1.1298
  186SAPI   C1121308   4.355   1.207  10.934  0.3310 -0.4045  0.0556
  186SAPI    H121309   4.306   1.154  11.018 -2.6226  1.1655 -0.5504
  186SAPI     P21310   4.132   1.147  10.788  0.0997 -0.0720 -0.2977
  186SAPI   O1321311   4.056   1.208  10.897 -0.0778  0.7827  0.1922
  186SAPI   O1421312   4.097   1.008  10.758 -0.0555 -0.3973  0.3564
  186SAPI   O1221313   4.289   1.169  10.809 -0.3390 -0.6609  0.3739
  186SAPI   O1121314   4.107   1.231  10.660  0.1902 -0.7998  0.3216
  186SAPI    C121315   4.110   1.183  10.526  0.5034 -0.1136  0.2326
  186SAPI    HA21316   4.091   1.073  10.520 -0.9055 -0.0605  2.3584
  186SAPI    HB21317   4.027   1.232  10.472 -0.2224 -1.2195  0.3054
  186SAPI    C221318   4.243   1.227  10.448  0.1138  0.0310  0.9553
  186SAPI    HS21319   4.333   1.199  10.507  0.5214 -0.2437  0.2172
  186SAPI   O2121320   4.234   1.365  10.424 -0.2059  0.3167  0.0759
  186SAPI   C2121321   4.266   1.448  10.517  0.1353  0.2963 -0.5064
  186SAPI   O2221322   4.339   1.424  10.611  0.1411  0.0111 -0.4605
  186SAPI   C2221323   4.207   1.585  10.485  0.2632  0.1659  0.3222
  186SAPI   H2R21324   4.216   1.649  10.576  2.2721  3.1121 -1.7534
  186SAPI   H2S21325   4.268   1.629  10.404  0.6716 -1.0736 -0.0646
  186SAPI    C321326   4.260   1.158  10.307  0.7191  0.6783 -0.4364
  186SAPI    HX21327   4.258   1.049  10.325  0.7866  0.8618  0.7405
  186SAPI    HY21328   4.361   1.179  10.267  0.7564  0.9772 -0.1864
  186SAPI   O3121329   4.155   1.201  10.217  0.1752  0.1194 -1.1614
  186SAPI   C3121330   4.192   1.296  10.120  0.1953 -0.5009  0.2831
  186SAPI   O3221331   4.302   1.348  10.118 -0.0625 -0.5950  0.0221
  186SAPI   C3221332   4.090   1.285   9.998  0.0921 -0.2055 -0.4051
  186SAPI   H2X21333   3.999   1.328  10.046  1.5313  2.3125  0.2459
  186SAPI   H2Y21334   4.074   1.179   9.967 -0.0268 -0.0353 -0.9299
  186SAPI   C2321335   4.068   1.571  10.424 -0.3174  0.0474 -0.8364
  186SAPI   H3R21336   3.991   1.516  10.482  1.9980  0.9004  3.4433
  186SAPI   H3S21337   4.088   1.524  10.325 -0.8509  0.8390 -1.3279
  186SAPI   C2421338   4.001   1.709  10.404 -0.0817  0.2494  0.2504
  186SAPI   H4R21339   4.073   1.779  10.356  1.4331 -1.2015  0.3242
  186SAPI   H4S21340   3.972   1.741  10.507 -0.2036 -0.8141  0.5566
  186SAPI   C2521341   3.857   1.694  10.338 -0.5598  0.3489  0.3887
  186SAPI   H5R21342   3.776   1.667  10.407  0.1467  0.6557  1.3545
  186SAPI   C2621343   3.843   1.695  10.203 -0.9689  0.6566  0.0426
  186SAPI   H6R21344   3.746   1.657  10.167 -0.1785 -1.9446  0.4362
  186SAPI   C2721345   3.961   1.719  10.105 -0.2974 -0.2200  0.3674
  186SAPI   H7R21346   4.060   1.709  10.155 -0.0510 -1.1522 -0.2738
  186SAPI   H7S21347   3.966   1.827  10.080 -1.6634 -0.9026 -3.4347
  186SAPI   C2821348   3.958   1.631   9.987 -0.9093  0.1624 -0.3375
  186SAPI   H8R21349   3.999   1.529   9.995 -0.1502  0.4996  0.1271
  186SAPI   C2921350   3.907   1.669   9.865  0.9508  0.9364 -1.1224
  186SAPI   H9R21351   3.911   1.594   9.785 -0.3657 -0.2713 -0.1144
  186SAPI  C21021352   3.836   1.800   9.843 -0.6430  0.0561  0.0038
  186SAPI  H10R21353   3.808   1.849   9.938  1.2309  0.5198  0.3580
  186SAPI  H10S21354   3.748   1.784   9.777 -1.3647 -0.7192  1.1197
  186SAPI  C21121355   3.949   1.881   9.778  0.7249  0.5221  1.0816
  186SAPI  H11R21356   4.031   1.915   9.843  2.0971 -2.2703  0.9880
  186SAPI  C21221357   3.979   1.895   9.650  0.1641 -0.3511  0.4816
  186SAPI  H12R21358   4.076   1.941   9.627 -0.1623 -0.7984 -2.0964
  186SAPI  C21321359   3.905   1.835   9.534  0.3299 -0.1778  0.0517
  186SAPI  H13R21360   3.840   1.912   9.489  1.0006  0.3575 -0.0144
  186SAPI  H13S21361   3.840   1.753   9.571  0.1821 -0.8434 -1.6198
  186SAPI  C21421362   4.003   1.768   9.435  0.4335  1.2490 -0.0448
  186SAPI  H14R21363   4.039   1.675   9.480 -1.8173  0.0165 -0.6567
  186SAPI  C21521364   4.054   1.805   9.317  0.1467 -0.2267 -0.4679
  186SAPI  H15R21365   4.114   1.745   9.246  1.6556  3.0699 -2.2237
  186SAPI  C21621366   4.009   1.932   9.245 -0.3879  0.1080 -0.8785
  186SAPI  H16R21367   4.099   1.982   9.204 -0.4483  0.2545 -0.8332
  186SAPI  H16S21368   3.963   1.998   9.321 -1.4077 -1.7134  0.1583
  186SAPI  C21721369   3.902   1.902   9.130 -0.1933 -0.0820  0.8173
  186SAPI  H17R21370   3.815   1.841   9.163 -0.7434 -0.2335 -0.8354
  186SAPI  H17S21371   3.961   1.851   9.052 -1.4495  0.9876 -0.8872
  186SAPI  C21821372   3.846   2.031   9.073  0.2413  0.8985 -0.3979
  186SAPI  H18R21373   3.856   2.117   9.141  0.1874  1.0620 -0.5952
  186SAPI  H18S21374   3.735   2.023   9.080  0.4053 -1.0342  0.6827
  186SAPI  C21921375   3.901   2.080   8.933  0.0321  0.0630 -0.5298
  186SAPI  H19R21376   3.882   1.987   8.876  0.5341  1.2457 -2.7273
  186SAPI  H19S21377   4.011   2.092   8.940 -0.2315  1.8064  1.6211
  186SAPI  C22021378   3.818   2.200   8.889 -0.6881 -0.0816 -0.0833
  186SAPI  H20R21379   3.709   2.187   8.906 -0.2891 -0.5578  2.6211
  186SAPI  H20S21380   3.846   2.224   8.784  0.5351 -1.9407 -0.2374
  186SAPI  H20T21381   3.836   2.293   8.946 -1.1893 -0.2259  0.3242
  186SAPI   C3321382   4.145   1.351   9.860 -0.3031 -0.2132  0.1340
  186SAPI   H3X21383   4.252   1.319   9.859 -0.9724 -2.6114 -0.5211
  186SAPI   H3Y21384   4.139   1.462   9.868 -1.2777 -0.3347  1.4521
  186SAPI   C3421385   4.066   1.312   9.738  0.3857 -0.1441  0.6371
  186SAPI   H4X21386   3.966   1.360   9.742  0.4178  0.5043 -2.9001
  186SAPI   H4Y21387   4.047   1.203   9.734  0.3136 -0.1605  1.3777
  186SAPI   C3521388   4.144   1.360   9.617  0.6826  0.1102  0.1085
  186SAPI   H5X21389   4.244   1.312   9.611  1.3687  1.2818  1.4665
  186SAPI   H5Y21390   4.173   1.467   9.617 -0.3849  0.4650  2.6925
  186SAPI   C3621391   4.048   1.352   9.491 -0.6229  0.4654  0.5365
  186SAPI   H6X21392   3.964   1.421   9.507 -0.6074  0.6441 -0.0969
  186SAPI   H6Y21393   4.000   1.251   9.490 -1.1022  0.6194  2.8387
  186SAPI   C3721394   4.119   1.391   9.364  0.1289  0.1177  0.2157
  186SAPI   H7X21395   4.225   1.401   9.394  0.5820  0.4504 -1.4098
  186SAPI   H7Y21396   4.085   1.489   9.323  0.3639 -0.1365 -0.6054
  186SAPI   C3821397   4.101   1.297   9.238  0.9665  0.4691 -0.2320
  186SAPI   H8X21398   4.023   1.218   9.243  1.7430 -0.3533 -0.8180
  186SAPI   H8Y21399   4.198   1.243   9.237 -0.0023 -1.4285  1.3727
  186SAPI   C3921400   4.089   1.380   9.113 -0.5935  0.0367 -0.2740
  186SAPI   H9X21401   4.163   1.462   9.127 -0.6918  0.2665 -1.0522
  186SAPI   H9Y21402   3.987   1.424   9.115 -0.6827 -0.1826  1.2173
  186SAPI  C31021403   4.109   1.307   8.974  0.3681  0.0767  0.2377
  186SAPI  H10X21404   4.179   1.221   8.974 -1.3819 -1.4561 -1.4859
  186SAPI  H10Y21405   4.151   1.388   8.911  0.1393 -0.9719 -1.3268
  186SAPI  C31121406   3.975   1.246   8.912  0.5985 -0.6149 -0.3303
  186SAPI  H11X21407   3.910   1.202   8.990 -0.2911  2.0153  0.4913
  186SAPI  H11Y21408   3.996   1.169   8.834 -1.1098 -0.4453 -1.0011
  186SAPI  C31221409   3.902   1.355   8.833  0.1811  0.2673  0.7786
  186SAPI  H12X21410   3.897   1.450   8.891 -4.9362  1.8257 -1.6497
  186SAPI  H12Y21411   3.796   1.329   8.813  0.1936 -0.8630  2.0028
  186SAPI  C31321412   3.976   1.388   8.703 -0.0699  0.1259 -0.3212
  186SAPI  H13X21413   3.951   1.297   8.645  0.2875 -0.3326  0.2218
  186SAPI  H13Y21414   4.087   1.394   8.711 -0.0567 -0.6916  0.2265
  186SAPI  C31421415   3.928   1.524   8.648  0.1172 -0.4603  0.0756
  186SAPI  H14X21416   3.982   1.607   8.699 -2.1560 -0.0619  1.9864
  186SAPI  H14Y21417   3.824   1.542   8.681  0.1934 -0.9654  0.6010
  186SAPI  C31521418   3.946   1.534   8.495  0.6238 -0.5376 -0.3648
  186SAPI  H15X21419   3.911   1.445   8.438 -2.8520  2.2690 -3.0962
  186SAPI  H15Y21420   4.052   1.544   8.464  0.6185 -1.0866 -0.5610
  186SAPI  C31621421   3.867   1.654   8.449 -0.1938 -0.3096  0.9569
  186SAPI  H16X21422   3.927   1.740   8.485  1.2644 -1.1486  0.6134
  186SAPI  H16Y21423   3.766   1.652   8.495 -1.5178  0.0691 -1.7225
  186SAPI  C31721424   3.863   1.662   8.293 -0.3131 -0.2718 -0.0248
  186SAPI  H17X21425   3.796   1.576   8.271 -1.8433  0.2847  2.1530
  186SAPI  H17Y21426   3.955   1.628   8.241  0.3087 -0.2200  1.0142
  186SAPI  C31821427   3.828   1.795   8.235 -0.1120 -0.3846  0.3560
  186SAPI  H18X21428   3.828   1.786   8.124 -2.4859 -3.1148  0.4405
  186SAPI  H18Y21429   3.902   1.867   8.276 -1.7972  0.8720  1.3334
  186SAPI  H18Z21430   3.724   1.823   8.264  0.8276  0.7577  2.9173
  187SAPI   C1221431   6.486   3.045   6.145 -0.6078 -0.7011 -0.5500
  187SAPI    H221432   6.567   3.058   6.219 -0.3438  1.9524 -1.1754
  187SAPI    O221433   6.508   3.145   6.045  0.3744  0.3268  0.0343
  187SAPI   HO221434   6.603   3.154   6.038  0.4041  0.4696  0.5717
  187SAPI   C1321435   6.492   2.909   6.076  0.4271 -0.6161  0.3740
  187SAPI    H321436   6.475   2.824   6.146 -0.1716  0.1555  1.1895
  187SAPI    O321437   6.622   2.882   6.021 -0.4506 -0.2551 -0.1692
  187SAPI   HO321438   6.660   2.807   6.066  0.1482  0.5569  0.7167
  187SAPI   C1421439   6.386   2.898   5.966  0.3795  0.0623 -0.2519
  187SAPI    H421440   6.393   2.980   5.891 -2.1985 -0.5970 -1.3021
  187SAPI    O421441   6.398   2.772   5.901 -0.1264  0.1832  0.1899
  187SAPI   HO421442   6.489   2.743   5.911  0.5375  1.5599 -1.3051
  187SAPI   C1521443   6.247   2.920   6.035  0.3729  0.1456  0.5447
  187SAPI    H521444   6.229   2.835   6.105  1.7382 -1.5379 -1.0326
  187SAPI    O521445   6.134   2.908   5.946  0.0585 -0.1353 -0.1916
  187SAPI   HO521446   6.055   2.923   5.998 -0.8420 -1.1967 -1.1883
  187SAPI   C1621447   6.243   3.048   6.119 -0.6015  0.2802 -0.0782
  187SAPI    H621448   6.255   3.132   6.048 -1.4150  2.8120  2.5557
  187SAPI    O621449   6.113   3.064   6.178  0.1045 -0.0337 -0.1584
  187SAPI   HO621450   6.121   3.063   6.274 -0.7020 -2.2766 -0.0630
  187SAPI   C1121451   6.357   3.060   6.218  0.1663 -0.8105  0.3872
  187SAPI    H121452   6.353   2.979   6.294  0.4798  1.1380  2.5848
  187SAPI     P21453   6.294   3.204   6.426 -0.3037  0.1696 -0.1108
  187SAPI   O1321454   6.161   3.140   6.429  0.0810  0.1457 -0.2929
  187SAPI   O1421455   6.289   3.347   6.472 -0.2387  0.9825  0.2561
  187SAPI   O1221456   6.362   3.193   6.272  0.1114 -0.7867 -0.0921
  187SAPI   O1121457   6.399   3.120   6.515 -0.1021  0.0402 -0.1671
  187SAPI    C121458   6.519   3.180   6.563  0.2540  0.2295  0.4154
  187SAPI    HA21459   6.606   3.122   6.524 -0.9968 -0.3424 -1.6776
  187SAPI    HB21460   6.538   3.283   6.526 -0.8901 -0.9318 -3.9449
  187SAPI    C221461   6.524   3.193   6.714  0.2519 -1.0385 -0.4015
  187SAPI    HS21462   6.628   3.218   6.743 -0.2751 -2.4337  3.2624
  187SAPI   O2121463   6.485   3.074   6.771  0.1544 -0.4966  0.2572
  187SAPI   C2121464   6.562   2.969   6.760 -0.0182  0.0132  0.7922
  187SAPI   O2221465   6.669   2.952   6.702 -0.2586 -0.7297 -0.1100
  187SAPI   C2221466   6.497   2.865   6.848 -0.1442  0.2485  0.6658
  187SAPI   H2R21467   6.388   2.889   6.852  0.0706  1.9036 -1.4324
  187SAPI   H2S21468   6.507   2.766   6.799  0.4875  0.7271 -0.2059
  187SAPI    C321469   6.426   3.298   6.778 -0.2999  0.4641 -0.5627
  187SAPI    HX21470   6.323   3.271   6.746 -1.4037  3.0590  0.4668
  187SAPI    HY21471   6.444   3.397   6.731  0.3427 -0.2134 -1.7845
  187SAPI   O3121472   6.444   3.298   6.926 -0.3515 -0.4271  0.1578
  187SAPI   C3121473   6.345   3.309   7.016  0.5288  0.4852 -0.7067
  187SAPI   O3221474   6.226   3.300   6.982  0.7071  0.4806  0.7920
  187SAPI   C3221475   6.395   3.305   7.164 -0.1493 -0.6964  0.0077
  187SAPI   H2X21476   6.488   3.365   7.168 -1.0242  0.7760 -0.6315
  187SAPI   H2Y21477   6.403   3.200   7.200 -1.6815  0.0919  2.9971
  187SAPI   C2321478   6.568   2.859   6.985 -0.8462 -0.6326 -0.8371
  187SAPI   H3R21479   6.578   2.963   7.024 -3.3393 -0.5220 -0.3248
  187SAPI   H3S21480   6.670   2.815   6.973 -0.7926 -0.8391  0.3162
  187SAPI   C2421481   6.479   2.778   7.093 -0.2185 -0.5518  0.0397
  187SAPI   H4R21482   6.544   2.750   7.179 -1.0008  0.3417  0.9616
  187SAPI   H4S21483   6.466   2.686   7.033  0.4225 -0.7440  0.1871
  187SAPI   C2521484   6.352   2.848   7.125 -0.2432 -0.1346 -0.2200
  187SAPI   H5R21485   6.281   2.838   7.042 -1.3775  1.2854  0.5330
  187SAPI   C2621486   6.308   2.884   7.248  0.0292  0.4654  0.5154
  187SAPI   H6R21487   6.205   2.923   7.254  0.6788  2.8616 -1.8401
  187SAPI   C2721488   6.380   2.875   7.375  0.7521 -0.1749 -0.0968
  187SAPI   H7R21489   6.430   2.974   7.386 -1.3105  0.8989  0.0912
  187SAPI   H7S21490   6.464   2.804   7.365 -0.4658 -1.8364  0.9447
  187SAPI   C2821491   6.293   2.827   7.489  0.4735  0.3867 -0.4099
  187SAPI   H8R21492   6.190   2.867   7.487  0.1647 -0.4031 -0.4185
  187SAPI   C2921493   6.325   2.740   7.583  0.4140 -0.6819 -0.8998
  187SAPI   H9R21494   6.254   2.707   7.660  1.2873  0.6043  0.5256
  187SAPI  C21021495   6.459   2.677   7.591 -0.9086  0.1993 -0.5698
  187SAPI  H10R21496   6.505   2.658   7.491  1.4019 -1.2020  0.6725
  187SAPI  H10S21497   6.456   2.576   7.636  0.4802 -0.3481 -1.6102
  187SAPI  C21121498   6.558   2.758   7.667  0.3570  0.4208  0.2246
  187SAPI  H11R21499   6.627   2.826   7.614  1.3157 -0.6609  0.0517
  187SAPI  C21221500   6.573   2.753   7.801  0.2567 -0.0296 -0.1925
  187SAPI  H12R21501   6.638   2.831   7.844 -0.8875  0.7177  0.2436
  187SAPI  C21321502   6.500   2.670   7.906 -0.5263 -0.1509  0.4270
  187SAPI  H13R21503   6.421   2.604   7.866 -0.5828  0.1085  0.1031
  187SAPI  H13S21504   6.452   2.740   7.978 -0.4078  0.4804 -0.0953
  187SAPI  C21421505   6.613   2.586   7.959  0.8671  0.7817  0.3041
  187SAPI  H14R21506   6.644   2.491   7.913  0.2052  0.5348  0.3471
  187SAPI  C21521507   6.666   2.604   8.080  0.0117 -0.2111 -1.4294
  187SAPI  H15R21508   6.754   2.541   8.100  0.3035  0.6517  0.1224
  187SAPI  C21621509   6.631   2.703   8.177 -0.3059  0.8670 -0.1560
  187SAPI  H16R21510   6.553   2.776   8.146  0.0743  1.5440  0.4575
  187SAPI  H16S21511   6.725   2.753   8.205  0.4314 -0.4211 -0.2310
  187SAPI  C21721512   6.582   2.648   8.318  0.1776  0.3299  0.0908
  187SAPI  H17R21513   6.483   2.597   8.313  0.5043 -0.2818 -0.2992
  187SAPI  H17S21514   6.565   2.738   8.381 -3.9884  0.6175 -1.1596
  187SAPI  C21821515   6.695   2.561   8.375  0.4488  0.4430  0.2196
  187SAPI  H18R21516   6.785   2.627   8.373  0.3287  0.6143 -1.4803
  187SAPI  H18S21517   6.719   2.476   8.307 -0.6383 -0.0667  0.4581
  187SAPI  C21921518   6.660   2.519   8.516 -0.1668 -0.2808  0.0093
  187SAPI  H19R21519   6.627   2.603   8.581  0.4129  0.6033 -0.8285
  187SAPI  H19S21520   6.752   2.497   8.574 -0.7321 -0.4951  0.8474
  187SAPI  C22021521   6.567   2.403   8.529  0.1100  0.7390  0.0357
  187SAPI  H20R21522   6.549   2.374   8.635 -3.4644  1.9643 -0.0965
  187SAPI  H20S21523   6.613   2.310   8.490 -2.1581 -0.4871  0.1679
  187SAPI  H20T21524   6.464   2.420   8.491  0.1308  1.7823  0.4145
  187SAPI   C3321525   6.287   3.377   7.245  0.2921  0.2120 -0.3372
  187SAPI   H3X21526   6.194   3.318   7.257  1.2071 -1.1067  0.5013
  187SAPI   H3Y21527   6.252   3.474   7.204  0.5685  0.5729  0.2628
  187SAPI   C3421528   6.321   3.396   7.391 -0.1403  0.5752  0.2565
  187SAPI   H4X21529   6.244   3.456   7.444  2.3281  0.5050  4.3638
  187SAPI   H4Y21530   6.411   3.459   7.401 -1.0813  2.0054  0.0017
  187SAPI   C3521531   6.313   3.259   7.473  0.3160  0.9339  0.0474
  187SAPI   H5X21532   6.402   3.193   7.468 -0.4327 -0.1317  0.4245
  187SAPI   H5Y21533   6.225   3.205   7.432  1.5516  0.5689 -2.3012
  187SAPI   C3621534   6.282   3.281   7.616 -0.4627 -0.6260 -1.0632
  187SAPI   H6X21535   6.180   3.326   7.620 -1.2404 -2.3763  2.5338
  187SAPI   H6Y21536   6.358   3.346   7.666  0.5983 -2.0670 -0.7418
  187SAPI   C3721537   6.290   3.154   7.704  0.2169  0.0833  0.2660
  187SAPI   H7X21538   6.397   3.123   7.702  0.6610  1.5462 -0.8001
  187SAPI   H7Y21539   6.220   3.079   7.662 -0.9800  1.1019  0.3697
  187SAPI   C3821540   6.231   3.171   7.853 -0.8365  1.1075 -0.1163
  187SAPI   H8X21541   6.141   3.235   7.843 -0.9667  1.4564  2.6301
  187SAPI   H8Y21542   6.301   3.239   7.906  0.4153  1.2611 -1.8420
  187SAPI   C3921543   6.209   3.034   7.924 -0.4669  0.5790 -0.9219
  187SAPI   H9X21544   6.307   2.982   7.912 -0.6746 -0.7417  2.1758
  187SAPI   H9Y21545   6.137   2.969   7.869  1.6568 -1.8181 -1.0772
  187SAPI  C31021546   6.180   3.048   8.074  0.2387 -0.4468  0.6595
  187SAPI  H10X21547   6.093   3.116   8.069 -0.8528 -1.8669 -1.1640
  187SAPI  H10Y21548   6.276   3.090   8.112  1.4664 -2.4125 -0.1015
  187SAPI  C31121549   6.139   2.912   8.139 -0.0340 -1.2529  0.3946
  187SAPI  H11X21550   6.225   2.849   8.171  1.2854  1.4994  2.7573
  187SAPI  H11Y21551   6.082   2.859   8.060  0.1082 -0.3294 -0.3422
  187SAPI  C31221552   6.047   2.937   8.259  0.1029 -0.2479  0.0670
  187SAPI  H12X21553   5.986   3.029   8.254  0.2541 -0.1304  0.3756
  187SAPI  H12Y21554   6.107   2.953   8.351 -0.5075  2.1473  0.1140
  187SAPI  C31321555   5.957   2.817   8.293 -0.4215 -0.1287 -0.4148
  187SAPI  H13X21556   6.029   2.735   8.318 -1.0994 -1.4581 -2.5212
  187SAPI  H13Y21557   5.914   2.780   8.198  0.6109 -0.4910 -0.7580
  187SAPI  C31421558   5.869   2.846   8.415 -0.1408  0.9871  0.0156
  187SAPI  H14X21559   5.787   2.921   8.404 -2.4518 -1.4073 -0.1048
  187SAPI  H14Y21560   5.941   2.879   8.493 -2.0279  1.5372  1.6063
  187SAPI  C31521561   5.797   2.715   8.460 -0.0191 -0.6416 -1.2876
  187SAPI  H15X21562   5.871   2.633   8.445  2.0671  1.0157 -0.6296
  187SAPI  H15Y21563   5.715   2.697   8.388 -0.8494 -0.5850 -0.3713
  187SAPI  C31621564   5.737   2.725   8.601 -0.3729 -0.1455 -0.5273
  187SAPI  H16X21565   5.678   2.818   8.611 -1.8935 -1.0338 -0.9291
  187SAPI  H16Y21566   5.823   2.729   8.672  2.6467 -3.3361 -3.5912
  187SAPI  C31721567   5.648   2.609   8.654 -0.2190  0.1755 -0.3607
  187SAPI  H17X21568   5.554   2.593   8.596 -0.0869 -3.1967  0.1520
  187SAPI  H17Y21569   5.625   2.628   8.761  1.7211  0.1780  0.0864
  187SAPI  C31821570   5.719   2.474   8.644  0.5312 -0.2085 -0.0032
  187SAPI  H18X21571   5.640   2.397   8.663  0.3737 -0.1053 -0.2268
  187SAPI  H18Y21572   5.790   2.463   8.728  0.9157  1.3291 -0.1006
  187SAPI  H18Z21573   5.770   2.449   8.549 -1.3519 -0.3765 -1.0320
  188SAPI   C1221574   2.529   5.695   6.339  0.9301 -0.4261  1.0039
  188SAPI    H221575   2.509   5.659   6.443 -1.5696  0.0617  0.7619
  188SAPI    O221576   2.602   5.595   6.268  0.4299 -0.2558  0.8553
  188SAPI   HO221577   2.612   5.517   6.322  1.6803 -0.3675  0.4962
  188SAPI   C1321578   2.392   5.708   6.277 -0.6558  0.4420  0.3829
  188SAPI    H321579   2.347   5.794   6.331  1.1938  1.4723  0.3688
  188SAPI    O321580   2.309   5.602   6.310  0.7995 -0.0765  0.1219
  188SAPI   HO321581   2.235   5.645   6.353  1.9733  2.8307 -0.5705
  188SAPI   C1421582   2.407   5.747   6.133 -0.2718  0.5434 -0.2220
  188SAPI    H421583   2.448   5.659   6.080 -0.3266  0.6422 -0.4296
  188SAPI    O421584   2.281   5.757   6.070 -0.4577 -0.5326  0.2637
  188SAPI   HO421585   2.224   5.817   6.117 -1.7996 -2.1518  0.7777
  188SAPI   C1521586   2.489   5.877   6.115 -0.8086  0.2757  0.1206
  188SAPI    H521587   2.432   5.957   6.167 -1.5099 -0.4903  0.5532
  188SAPI    O521588   2.509   5.908   5.981  0.2348 -0.3654  0.3279
  188SAPI   HO521589   2.429   5.885   5.932  1.0185 -0.5648 -0.9020
  188SAPI   C1621590   2.620   5.875   6.187  0.6865  0.2576 -0.4374
  188SAPI    H621591   2.689   5.796   6.151  2.4764  1.5477 -0.0455
  188SAPI    O621592   2.691   5.995   6.176 -0.5165 -0.5595 -0.8003
  188SAPI   HO621593   2.699   6.025   6.267 -0.4293 -1.1342 -0.6153
  188SAPI   C1121594   2.600   5.834   6.332  0.1901  0.2211 -0.6557
  188SAPI    H121595   2.525   5.898   6.382  0.3399 -0.5625  0.6111
  188SAPI     P21596   2.780   5.948   6.493  0.1819  0.2594  0.1626
  188SAPI   O1321597   2.769   6.074   6.410 -0.0242 -0.1991  0.6744
  188SAPI   O1421598   2.915   5.917   6.543  0.7517  0.8210  0.2503
  188SAPI   O1221599   2.721   5.823   6.405 -0.2371  0.2704 -0.0525
  188SAPI   O1121600   2.670   5.951   6.605  0.1001  0.4447 -0.4524
  188SAPI    C121601   2.662   5.830   6.687 -1.0977 -0.2068 -0.4264
  188SAPI    HA21602   2.593   5.754   6.644 -0.1657 -1.1188 -0.3546
  188SAPI    HB21603   2.756   5.773   6.696  0.3194  1.4459 -3.3314
  188SAPI    C221604   2.604   5.852   6.833  0.1746  0.0505 -0.6951
  188SAPI    HS21605   2.501   5.893   6.823 -0.3415 -0.8743  0.5535
  188SAPI   O2121606   2.686   5.938   6.907  0.1186 -1.1194  0.1934
  188SAPI   C2121607   2.680   6.069   6.888 -0.4090 -0.3285  0.3201
  188SAPI   O2221608   2.594   6.124   6.818  0.4385 -0.8498  0.0777
  188SAPI   C2221609   2.793   6.137   6.961  0.2633 -0.5608  0.1671
  188SAPI   H2R21610   2.866   6.066   7.003  1.0142  0.6669  1.0094
  188SAPI   H2S21611   2.849   6.191   6.881 -1.3951  2.0110  0.5989
  188SAPI    C321612   2.586   5.711   6.908  0.1895  0.3113 -0.6309
  188SAPI    HX21613   2.679   5.654   6.888 -0.0615 -0.3926  0.1497
  188SAPI    HY21614   2.511   5.651   6.852  1.8749 -0.1546 -2.4840
  188SAPI   O3121615   2.561   5.718   7.047 -0.3691 -1.0661  0.0903
  188SAPI   C3121616   2.439   5.761   7.080  0.5543  0.1176 -0.1059
  188SAPI   O3221617   2.352   5.804   7.005 -0.1709 -0.2557 -0.8005
  188SAPI   C3221618   2.419   5.749   7.230  0.2794  0.2926 -0.9054
  188SAPI   H2X21619   2.516   5.748   7.282 -0.1523  3.1153  0.1385
  188SAPI   H2Y21620   2.373   5.654   7.265  1.9390 -0.0430  0.4576
  188SAPI   C2321621   2.739   6.231   7.070 -0.2336  0.1678 -0.0135
  188SAPI   H3R21622   2.684   6.313   7.019  0.7110 -1.5007 -4.0673
  188SAPI   H3S21623   2.832   6.269   7.118  1.0680 -0.9914 -1.5269
  188SAPI   C2421624   2.644   6.155   7.171  0.0686 -0.0779  0.2552
  188SAPI   H4R21625   2.546   6.113   7.138 -0.5858  1.3219  0.3463
  188SAPI   H4S21626   2.605   6.236   7.236  0.6761 -0.0169  0.5539
  188SAPI   C2521627   2.720   6.050   7.246 -0.3168  0.5458  0.6797
  188SAPI   H5R21628   2.783   5.980   7.189 -0.5006  0.8402  0.1076
  188SAPI   C2621629   2.725   6.035   7.382 -0.1090  0.5301  0.4999
  188SAPI   H6R21630   2.791   5.957   7.423 -0.5946  0.6662  1.5737
  188SAPI   C2721631   2.646   6.118   7.478  0.0558 -0.3545 -0.4527
  188SAPI   H7R21632   2.630   6.047   7.562 -0.3379 -0.9069 -0.9744
  188SAPI   H7S21633   2.550   6.155   7.435  0.4992 -0.2001 -1.3223
  188SAPI   C2821634   2.720   6.240   7.534  0.2484  0.3850  0.8997
  188SAPI   H8R21635   2.750   6.319   7.463 -0.1468 -0.3869 -0.1601
  188SAPI   C2921636   2.759   6.251   7.662 -0.2823  0.7513 -0.1890
  188SAPI   H9R21637   2.811   6.345   7.689  3.0447 -1.2706  1.1590
  188SAPI  C21021638   2.715   6.166   7.777 -0.6590 -0.4351  0.2616
  188SAPI  H10R21639   2.751   6.064   7.752  3.2035  0.6808  0.4829
  188SAPI  H10S21640   2.605   6.158   7.777 -0.5264 -3.1683 -0.9354
  188SAPI  C21121641   2.785   6.215   7.909  0.0147  0.1255  0.3235
  188SAPI  H11R21642   2.891   6.184   7.915  0.2806  1.0418  0.4602
  188SAPI  C21221643   2.739   6.281   8.013  0.2583 -0.5115 -0.2222
  188SAPI  H12R21644   2.803   6.306   8.099 -1.4662  0.2631  0.8768
  188SAPI  C21321645   2.594   6.317   8.020  0.4732 -0.0985 -0.0517
  188SAPI  H13R21646   2.539   6.240   8.078 -2.5587  0.2516 -2.1958
  188SAPI  H13S21647   2.553   6.313   7.917  1.6215  2.4089 -0.6935
  188SAPI  C21421648   2.580   6.455   8.069 -0.7628 -0.4416 -0.2913
  188SAPI  H14R21649   2.579   6.531   7.990  0.9329 -0.6631 -0.5584
  188SAPI  C21521650   2.560   6.494   8.195  0.3484 -0.2082 -0.0500
  188SAPI  H15R21651   2.536   6.601   8.211  2.1614  0.5487 -1.8808
  188SAPI  C21621652   2.551   6.404   8.310  0.9342 -0.4393  0.1840
  188SAPI  H16R21653   2.609   6.445   8.395 -0.8030  0.5770  0.9444
  188SAPI  H16S21654   2.594   6.304   8.288  1.8024 -0.6521  2.5313
  188SAPI  C21721655   2.409   6.381   8.365  0.2942 -0.1097  0.0222
  188SAPI  H17R21656   2.343   6.352   8.281  1.2886 -1.0946 -0.4334
  188SAPI  H17S21657   2.375   6.482   8.398 -2.1392 -0.7588 -0.3357
  188SAPI  C21821658   2.408   6.282   8.481 -0.3220 -0.3332  0.3480
  188SAPI  H18R21659   2.493   6.310   8.546 -1.4915  1.2875  1.2385
  188SAPI  H18S21660   2.423   6.181   8.437 -0.3447  0.3909 -1.3875
  188SAPI  C21921661   2.292   6.293   8.573 -0.0958 -0.7537 -0.5429
  188SAPI  H19R21662   2.295   6.196   8.626  1.1090 -0.2966  0.2613
  188SAPI  H19S21663   2.191   6.290   8.525 -0.3990  1.0418 -0.1015
  188SAPI  C22021664   2.301   6.415   8.669  0.1019  0.5041 -0.3910
  188SAPI  H20R21665   2.215   6.419   8.739  1.3388  1.2030  1.1452
  188SAPI  H20S21666   2.303   6.513   8.618 -0.1790  0.4486 -0.5069
  188SAPI  H20T21667   2.385   6.415   8.743 -0.9053 -3.9753  1.0995
  188SAPI   C3321668   2.350   5.873   7.293 -0.5125 -0.2341 -0.2441
  188SAPI   H3X21669   2.253   5.888   7.241 -1.6108 -0.9516  1.5259
  188SAPI   H3Y21670   2.420   5.958   7.276 -1.4775  0.9107  1.2330
  188SAPI   C3421671   2.323   5.864   7.443  0.0945  0.1488 -0.0055
  188SAPI   H4X21672   2.415   5.848   7.503  0.4158 -2.3501 -1.0480
  188SAPI   H4Y21673   2.258   5.774   7.455  0.0206  0.1582 -0.3324
  188SAPI   C3521674   2.239   5.986   7.492 -0.3518  0.8487 -0.3606
  188SAPI   H5X21675   2.155   5.993   7.419  0.0805 -0.2118 -0.9879
  188SAPI   H5Y21676   2.311   6.069   7.481 -0.8851  1.3222 -0.3294
  188SAPI   C3621677   2.185   5.967   7.635  0.4779  0.0628  0.0440
  188SAPI   H6X21678   2.145   5.864   7.649  2.4716 -0.8773 -0.6799
  188SAPI   H6Y21679   2.091   6.026   7.638 -0.6232 -1.4891 -1.8511
  188SAPI   C3721680   2.279   6.019   7.740  0.0011  0.3032  0.1903
  188SAPI   H7X21681   2.276   6.130   7.743  0.9452  0.4156 -1.6374
  188SAPI   H7Y21682   2.384   6.010   7.706  0.1768 -0.5532  0.9201
  188SAPI   C3821683   2.251   5.953   7.881  0.1844 -0.2976  0.5203
  188SAPI   H8X21684   2.255   5.844   7.859 -0.7249  0.0653 -1.6197
  188SAPI   H8Y21685   2.150   5.981   7.916 -1.1752 -3.8257 -0.1171
  188SAPI   C3921686   2.347   6.002   7.986 -0.3544  0.4062 -0.5103
  188SAPI   H9X21687   2.348   6.113   7.979  1.9694  0.5978  1.3685
  188SAPI   H9Y21688   2.455   5.982   7.973 -0.0556  0.5418  1.4124
  188SAPI  C31021689   2.308   5.960   8.133  0.0488  0.0048  0.0332
  188SAPI  H10X21690   2.313   5.850   8.141 -0.4091  0.0362  0.9114
  188SAPI  H10Y21691   2.203   5.992   8.154 -0.0392 -1.1247  1.4358
  188SAPI  C31121692   2.406   5.994   8.242 -0.6340  0.1978  0.2926
  188SAPI  H11X21693   2.369   5.975   8.345  0.9209  0.4419  0.9373
  188SAPI  H11Y21694   2.419   6.104   8.228 -0.9592 -0.0633 -2.8197
  188SAPI  C31221695   2.532   5.918   8.222  0.1609  0.5913 -0.7855
  188SAPI  H12X21696   2.582   5.931   8.124  2.2532  0.9351  0.2681
  188SAPI  H12Y21697   2.519   5.808   8.222  2.5598  0.1964  1.7177
  188SAPI  C31321698   2.644   5.953   8.323 -0.0880 -0.4823 -0.3249
  188SAPI  H13X21699   2.613   5.921   8.425 -1.8049  1.9319 -0.0027
  188SAPI  H13Y21700   2.662   6.063   8.333  0.0962 -0.5407  0.0116
  188SAPI  C31421701   2.784   5.892   8.294  0.6619  0.1611  0.6699
  188SAPI  H14X21702   2.777   5.782   8.282 -1.9809  0.3361 -0.0146
  188SAPI  H14Y21703   2.858   5.912   8.374  0.3350  4.4027  0.1304
  188SAPI  C31521704   2.849   5.950   8.170  0.1265  0.0890 -0.0621
  188SAPI  H15X21705   2.855   6.059   8.189 -0.8038 -0.0904  1.3900
  188SAPI  H15Y21706   2.770   5.930   8.094  0.0238 -0.3720  0.1583
  188SAPI  C31621707   2.983   5.892   8.145 -0.2649  0.0983 -0.0900
  188SAPI  H16X21708   2.984   5.782   8.132  1.4045  0.0731  0.0195
  188SAPI  H16Y21709   3.041   5.915   8.237 -0.1927  1.7231 -0.5164
  188SAPI  C31721710   3.039   5.944   8.014  0.5648  0.4217 -0.1069
  188SAPI  H17X21711   3.035   6.055   8.007 -0.1073  0.3531 -0.9751
  188SAPI  H17Y21712   2.975   5.910   7.930 -1.6026  1.1845  1.1699
  188SAPI  C31821713   3.178   5.891   7.991  0.0135  0.0722 -0.4398
  188SAPI  H18X21714   3.237   5.947   7.915 -0.4613  2.0250  0.5675
  188SAPI  H18Y21715   3.175   5.783   7.964  0.7545  0.3290 -1.6391
  188SAPI  H18Z21716   3.236   5.891   8.085  0.3840  0.0658 -0.6636
  189POPC     N21717   1.872   1.750  10.866 -0.4634 -0.3547 -0.2790
  189POPC   C1221718   1.862   1.885  10.781 -0.9832  0.0970  0.1411
  189POPC  H12A21719   1.963   1.901  10.744  0.1647 -0.8564  2.6267
  189POPC  H12B21720   1.851   1.967  10.851 -0.7139 -1.3656  1.9724
  189POPC   C1321721   1.746   1.721  10.931  0.2876 -0.4377  0.0768
  189POPC  H13A21722   1.666   1.740  10.861  1.0945  2.0189 -0.2850
  189POPC  H13B21723   1.735   1.629  10.986 -1.1175  0.2589  1.0430
  189POPC  H13C21724   1.723   1.799  11.002 -2.2012 -0.7085 -0.3355
  189POPC   C1421725   1.891   1.633  10.770  0.0496  0.2445 -0.1258
  189POPC  H14A21726   1.987   1.619  10.725  0.1974  1.3981 -0.1943
  189POPC  H14B21727   1.863   1.545  10.828 -2.6756  0.3537 -1.1166
  189POPC  H14C21728   1.814   1.637  10.694  0.0682 -2.2089 -0.3546
  189POPC   C1521729   1.970   1.754  10.975 -0.5556 -0.6237 -0.0568
  189POPC  H15A21730   1.931   1.812  11.057 -0.0506 -2.6112  1.6958
  189POPC  H15B21731   2.064   1.790  10.935 -1.5458 -0.0062 -1.9665
  189POPC  H15C21732   1.989   1.660  11.024  0.5416 -0.3631  0.0388
  189POPC   C1121733   1.760   1.906  10.667  0.2373  0.3918  0.6035
  189POPC  H11A21734   1.775   1.839  10.580 -1.8477  0.5173  0.1068
  189POPC  H11B21735   1.769   2.003  10.614 -1.5489 -0.0875 -0.6727
  189POPC     P21736   1.556   2.003  10.798 -0.3332  0.0782  0.1751
  189POPC   O1321737   1.654   2.092  10.866 -0.4463 -0.0726  0.0663
  189POPC   O1421738   1.448   1.946  10.884 -0.8455 -0.3669  0.0285
  189POPC   O1221739   1.627   1.887  10.719 -0.0729 -0.1602  1.1418
  189POPC   O1121740   1.490   2.093  10.689  0.2120  0.3562  0.2480
  189POPC    C121741   1.405   2.038  10.590  0.1275  0.1222 -0.4774
  189POPC    HA21742   1.326   2.116  10.594  1.2265  1.2277  0.2703
  189POPC    HB21743   1.368   1.936  10.616  1.3247 -0.1948  0.0890
  189POPC    C221744   1.463   2.015  10.448  0.1968  0.4259 -1.0628
  189POPC    HS21745   1.535   1.930  10.452 -1.5030 -1.1586 -2.6775
  189POPC   O2121746   1.527   2.134  10.384 -0.3141  0.4260  0.0980
  189POPC   C2121747   1.656   2.120  10.345  0.0762 -0.1478  0.0771
  189POPC   O2221748   1.723   2.021  10.363  0.3451 -0.2428 -0.2650
  189POPC   C2221749   1.709   2.242  10.263 -0.3060  0.1330 -0.1630
  189POPC   H2R21750   1.799   2.278  10.319  0.0928  1.4861 -1.5932
  189POPC   H2S21751   1.645   2.333  10.264  0.7031  0.8925  1.8356
  189POPC    C321752   1.366   1.958  10.345 -0.0984 -0.1409 -0.4030
  189POPC    HX21753   1.275   2.021  10.334 -0.3982  0.1227  2.6610
  189POPC    HY21754   1.323   1.868  10.395 -0.0080  0.6419  1.1198
  189POPC   O3121755   1.424   1.919  10.224  1.0459  0.4466  0.4355
  189POPC   C3121756   1.498   1.804  10.227  0.2252 -0.1196 -0.5366
  189POPC   O3221757   1.515   1.739  10.324 -0.0228  0.0034 -0.1937
  189POPC   C3221758   1.582   1.793  10.095 -0.4815 -0.2812 -0.2328
  189POPC   H2X21759   1.603   1.895  10.055 -2.2539 -0.6670 -2.3236
  189POPC   H2Y21760   1.512   1.740  10.028 -1.2433  0.7180 -0.2630
  189POPC   C2321761   1.758   2.213  10.112 -0.9073 -0.0403 -0.1057
  189POPC   H3R21762   1.821   2.122  10.112  0.2575  0.7389 -1.2960
  189POPC   H3S21763   1.819   2.301  10.083 -0.3507 -0.3354  0.1631
  189POPC   C2421764   1.634   2.192  10.016 -0.0402 -0.2152 -0.3198
  189POPC   H4R21765   1.568   2.281  10.021 -0.4146 -0.3120 -2.7063
  189POPC   H4S21766   1.577   2.104  10.052  1.0175 -1.3301 -1.2721
  189POPC   C2521767   1.684   2.187   9.873  0.1397  0.0745  0.2514
  189POPC   H5R21768   1.758   2.107   9.851 -1.9616 -3.0644  3.4520
  189POPC   H5S21769   1.735   2.281   9.842  2.1333 -0.9683  0.1881
  189POPC   C2621770   1.564   2.180   9.771 -1.2333  0.8227 -0.1283
  189POPC   H6R21771   1.497   2.261   9.806  2.3535  4.1725 -0.2985
  189POPC   H6S21772   1.514   2.082   9.762 -1.6795  1.1367 -1.1631
  189POPC   C2721773   1.621   2.200   9.625  0.4738 -0.3787 -0.0830
  189POPC   H7R21774   1.687   2.112   9.606 -0.5950 -1.4509  0.9484
  189POPC   H7S21775   1.676   2.293   9.602  1.2326 -0.9178 -0.5157
  189POPC   C2821776   1.500   2.203   9.525 -0.4841 -0.3123 -0.2588
  189POPC   H8R21777   1.439   2.294   9.541 -1.1713 -0.8027 -0.0715
  189POPC   H8S21778   1.430   2.119   9.545 -0.0458 -0.1749  2.0228
  189POPC   C2921779   1.556   2.201   9.385  0.3221  0.3480 -0.2626
  189POPC   H9121780   1.661   2.233   9.392  0.8072 -1.1840  0.0646
  189POPC  C21021781   1.500   2.163   9.267  0.1200  0.0800 -0.4838
  189POPC  H10121782   1.559   2.188   9.177  0.9026 -1.3917 -0.4213
  189POPC  C21121783   1.357   2.112   9.241 -0.3944 -0.3369 -0.0517
  189POPC  H11R21784   1.291   2.122   9.330 -2.5890  0.0456 -1.6431
  189POPC  H11S21785   1.366   2.008   9.205 -0.7458 -1.3796  2.5923
  189POPC  C21221786   1.274   2.173   9.127  0.5590  0.4756 -0.0423
  189POPC  H12R21787   1.350   2.173   9.046  0.6196  0.3196  0.0121
  189POPC  H12S21788   1.249   2.280   9.143  1.4674  0.6299  0.4419
  189POPC  C21321789   1.147   2.089   9.092  0.7862 -0.4461 -0.3198
  189POPC  H13R21790   1.065   2.112   9.163  2.3788 -1.5658  2.0068
  189POPC  H13S21791   1.164   1.980   9.107  1.7083 -0.4016 -0.9614
  189POPC  C21421792   1.095   2.125   8.953  0.2687  0.2676  0.1382
  189POPC  H14R21793   1.176   2.114   8.878 -1.6212  1.5286 -2.1895
  189POPC  H14S21794   1.068   2.232   8.963  0.8272  0.5396 -1.1792
  189POPC  C21521795   0.986   2.043   8.911  0.1429 -0.1652  0.1583
  189POPC  H15R21796   0.972   2.073   8.805  0.5953  2.4709  0.7731
  189POPC  H15S21797   0.898   2.066   8.975 -0.8054 -1.1185 -0.7821
  189POPC  C21621798   1.015   1.888   8.899  0.4447 -0.1828  0.1660
  189POPC  H16R21799   1.015   1.839   8.998  1.0079 -2.3101 -0.8218
  189POPC  H16S21800   1.113   1.872   8.849 -0.5059  0.4964 -2.0823
  189POPC  C21721801   0.899   1.828   8.829  0.2815 -0.2270  0.3080
  189POPC  H17R21802   0.884   1.867   8.726  0.6445  1.1435  0.7495
  189POPC  H17S21803   0.809   1.848   8.892  0.9005  1.5824  0.6887
  189POPC  C21821804   0.916   1.681   8.822 -0.9087 -0.5105 -0.6384
  189POPC  H18R21805   0.930   1.645   8.926 -1.5502  0.7192 -0.1082
  189POPC  H18S21806   0.999   1.651   8.754 -0.4198 -2.9580  0.9044
  189POPC  H18T21807   0.818   1.630   8.803 -0.6658 -1.6630  0.9824
  189POPC   C3321808   1.711   1.724  10.107  0.9725 -0.1868 -0.0384
  189POPC   H3X21809   1.682   1.617  10.101 -1.5784  0.5140 -3.2677
  189POPC   H3Y21810   1.764   1.745  10.202  0.8926 -2.0622  0.4526
  189POPC   C3421811   1.813   1.763  10.001 -0.0786 -0.1385 -0.5533
  189POPC   H4X21812   1.888   1.682  10.009  1.7314  1.5388  0.4845
  189POPC   H4Y21813   1.875   1.854  10.019  2.6803 -1.7202 -1.4432
  189POPC   C3521814   1.764   1.759   9.855  0.7511  0.5395  0.4178
  189POPC   H5X21815   1.666   1.808   9.838 -0.4378 -2.3352 -2.0749
  189POPC   H5Y21816   1.746   1.652   9.829  0.0495  0.8621 -0.5020
  189POPC   C3621817   1.872   1.809   9.767 -0.0022  0.8844  0.0008
  189POPC   H6X21818   1.956   1.736   9.767 -1.2744 -0.6420 -1.4435
  189POPC   H6Y21819   1.918   1.902   9.808 -1.1569  0.8359  1.4802
  189POPC   C3721820   1.827   1.835   9.621 -0.4911  0.2166 -0.8121
  189POPC   H7X21821   1.750   1.915   9.621 -0.4514  0.2551 -0.3350
  189POPC   H7Y21822   1.775   1.749   9.574 -1.3284  1.3702 -2.0821
  189POPC   C3821823   1.945   1.885   9.527  0.4242 -0.8491  0.0134
  189POPC   H8X21824   2.005   1.795   9.502 -0.2985 -1.8685  1.7738
  189POPC   H8Y21825   2.006   1.951   9.592  0.8000 -0.3638 -0.8167
  189POPC   C3921826   1.905   1.965   9.399 -1.2160 -0.1215  0.1796
  189POPC   H9X21827   2.000   2.005   9.359 -0.4766 -0.6660  1.3303
  189POPC   H9Y21828   1.829   2.043   9.421 -2.4714 -0.4541 -2.5176
  189POPC  C31021829   1.862   1.858   9.290  0.2146 -0.3243 -0.9075
  189POPC  H10X21830   1.783   1.793   9.334 -0.2610  0.4719 -0.5616
  189POPC  H10Y21831   1.950   1.798   9.258 -0.4567 -0.8736 -1.7682
  189POPC  C31121832   1.797   1.921   9.161 -1.0293  0.0479 -0.2945
  189POPC  H11X21833   1.687   1.922   9.174 -1.2484 -1.1105 -1.7886
  189POPC  H11Y21834   1.806   1.851   9.075  0.3762  1.7833 -1.6303
  189POPC  C31221835   1.847   2.056   9.124 -0.3460  0.1379  0.4078
  189POPC  H12X21836   1.956   2.064   9.143 -0.5398  1.8901  0.9874
  189POPC  H12Y21837   1.803   2.124   9.201  1.4157  1.2680  0.4785
  189POPC  C31321838   1.806   2.088   8.976  0.2457 -0.0147 -0.0990
  189POPC  H13X21839   1.858   2.015   8.910  3.7883  2.0766  0.0922
  189POPC  H13Y21840   1.841   2.190   8.953  2.3894 -0.8330 -0.7407
  189POPC  C31421841   1.652   2.088   8.949  0.3744  0.3177 -0.6949
  189POPC  H14X21842   1.604   2.178   8.992 -0.9975  0.4090 -2.2854
  189POPC  H14Y21843   1.604   1.995   8.985  0.5309 -0.1617 -1.6975
  189POPC  C31521844   1.625   2.080   8.799  0.4871  0.7205 -0.9052
  189POPC  H15X21845   1.668   1.984   8.765 -2.3168 -1.1906  0.5540
  189POPC  H15Y21846   1.678   2.161   8.744 -2.1925  2.4670 -1.1294
  189POPC  C31621847   1.476   2.081   8.759  0.2727  0.6816 -0.0799
  189POPC  H16X21848   1.434   1.980   8.781  1.2815  0.1377 -0.6068
  189POPC  H16Y21849   1.459   2.090   8.650 -2.1158 -1.2182  0.0562
  189POPC  H16Z21850   1.419   2.160   8.814  1.8732  2.5119 -0.9443
  190POPC     N21851   3.521   5.283  11.029  0.0305  0.3726 -0.4837
  190POPC   C1221852   3.632   5.382  11.044  0.2529  0.6720  0.0162
  190POPC  H12A21853   3.712   5.328  11.094 -0.4652  0.4684  0.9686
  190POPC  H12B21854   3.600   5.454  11.118  0.2569  0.0453  0.6439
  190POPC   C1321855   3.528   5.181  10.921  0.0679  0.2226  0.7167
  190POPC  H13A21856   3.618   5.121  10.923  0.0028  0.1283  2.0097
  190POPC  H13B21857   3.452   5.105  10.924  1.9461 -1.7607  0.4221
  190POPC  H13C21858   3.524   5.232  10.826  1.3236 -1.7196 -0.4361
  190POPC   C1421859   3.512   5.204  11.155  0.2748 -0.0569 -0.1635
  190POPC  H14A21860   3.421   5.145  11.155  0.0497  0.1815 -2.5119
  190POPC  H14B21861   3.592   5.132  11.164 -0.9140 -1.1441  3.9037
  190POPC  H14C21862   3.504   5.271  11.239 -2.1300  0.3981 -0.6644
  190POPC   C1521863   3.391   5.358  11.005 -0.5594  0.6908  0.0511
  190POPC  H15A21864   3.301   5.305  11.031 -1.1030  0.9103 -1.3364
  190POPC  H15B21865   3.379   5.392  10.904  1.4071 -0.6284 -0.6808
  190POPC  H15C21866   3.381   5.438  11.077 -1.9003  1.4037 -0.8761
  190POPC   C1121867   3.680   5.448  10.919 -0.0606 -0.1791  0.3043
  190POPC  H11A21868   3.723   5.548  10.943 -2.9495  0.4991  3.2830
  190POPC  H11B21869   3.600   5.476  10.847 -0.4019 -0.0077  0.7462
  190POPC     P21870   3.920   5.341  10.908 -0.3346  0.7243  0.2506
  190POPC   O1321871   3.905   5.371  11.055 -0.5250 -0.4612 -0.2806
  190POPC   O1421872   4.026   5.412  10.833  0.2241 -0.6596  0.6512
  190POPC   O1221873   3.773   5.364  10.848  0.1990 -0.2659  0.5100
  190POPC   O1121874   3.953   5.189  10.891  0.3527 -0.0218 -0.3408
  190POPC    C121875   3.900   5.090  10.794  0.5882  0.1254 -0.4750
  190POPC    HA21876   3.790   5.100  10.790  0.5396 -0.0801  0.2147
  190POPC    HB21877   3.922   4.990  10.836 -0.6371  0.2001  0.3800
  190POPC    C221878   3.978   5.092  10.660  0.0166  0.2083  0.3304
  190POPC    HS21879   4.086   5.080  10.682  0.6359  1.2459 -1.9359
  190POPC   O2121880   3.947   5.208  10.575  0.1433  0.5371 -0.6722
  190POPC   C2121881   4.039   5.224  10.475 -0.0508 -0.2389  0.0793
  190POPC   O2221882   4.144   5.166  10.454  0.1406 -0.2813 -0.7953
  190POPC   C2221883   3.990   5.346  10.392  0.1896  0.3708  0.1325
  190POPC   H2R21884   3.973   5.428  10.465 -0.3352 -0.6794  1.2288
  190POPC   H2S21885   3.891   5.306  10.361  0.6275  0.5834 -1.6531
  190POPC    C321886   3.928   4.958  10.587  0.6229  0.7227 -0.0942
  190POPC    HX21887   3.819   4.951  10.607  0.5687 -1.1186 -0.8354
  190POPC    HY21888   3.969   4.874  10.646  0.5646  1.1699  0.5904
  190POPC   O3121889   3.968   4.947  10.454  0.4906 -0.1686 -0.0267
  190POPC   C3121890   3.935   4.834  10.404 -0.3283 -0.3759 -0.4810
  190POPC   O3221891   3.874   4.747  10.456  0.9073 -0.3274 -0.3057
  190POPC   C3221892   3.999   4.831  10.272 -0.6418 -0.4457  0.7485
  190POPC   H2X21893   3.950   4.752  10.211  1.1474 -1.0331  0.0188
  190POPC   H2Y21894   4.106   4.800  10.278 -0.4791  0.0327  0.3857
  190POPC   C2321895   4.073   5.381  10.272 -0.4185  0.1164  0.4256
  190POPC   H3R21896   4.091   5.297  10.200  0.2495  0.5349  0.0866
  190POPC   H3S21897   4.176   5.406  10.306  0.3991 -1.2952 -0.8657
  190POPC   C2421898   4.018   5.492  10.188 -0.1710 -0.6678 -0.0506
  190POPC   H4R21899   4.024   5.587  10.245 -0.9137 -2.1972  2.7304
  190POPC   H4S21900   3.908   5.483  10.173 -0.1410 -2.0548  0.4899
  190POPC   C2521901   4.086   5.506  10.059  0.1892  0.5775 -0.0414
  190POPC   H5R21902   4.197   5.511  10.071  0.4352 -2.5339 -0.2206
  190POPC   H5S21903   4.057   5.608  10.025 -2.1955  0.5754  1.7490
  190POPC   C2621904   4.067   5.408   9.945  0.1782 -0.8156  0.7948
  190POPC   H6R21905   3.960   5.383   9.929  0.2570 -1.6498  1.4891
  190POPC   H6S21906   4.118   5.311   9.966 -0.6732 -1.7201 -1.0227
  190POPC   C2721907   4.116   5.464   9.804 -0.3119 -0.5784  0.2895
  190POPC   H7R21908   4.221   5.500   9.806 -0.3607 -0.4623  2.3840
  190POPC   H7S21909   4.052   5.547   9.766  0.0847 -1.1026 -1.6619
  190POPC   C2821910   4.109   5.354   9.691 -0.0430 -0.6320 -0.3720
  190POPC   H8R21911   4.005   5.316   9.684 -0.3095 -0.5585  2.3211
  190POPC   H8S21912   4.174   5.267   9.716  1.4311 -0.1487 -2.2514
  190POPC   C2921913   4.155   5.403   9.560 -0.5719  0.0660 -0.1751
  190POPC   H9121914   4.264   5.415   9.562 -0.5147 -0.5293  0.3625
  190POPC  C21021915   4.088   5.438   9.451  0.0564  0.1266  0.1327
  190POPC  H10121916   4.143   5.487   9.368 -0.5938 -1.6379 -1.4019
  190POPC  C21121917   3.938   5.432   9.439  0.8513 -0.5652  0.0710
  190POPC  H11R21918   3.894   5.523   9.393  0.4475 -1.7714 -2.0991
  190POPC  H11S21919   3.890   5.425   9.539 -1.6375  1.6106 -0.8682
  190POPC  C21221920   3.903   5.307   9.354 -0.3648  0.7703  0.8814
  190POPC  H12R21921   3.936   5.217   9.410 -2.9522 -0.7481  0.0965
  190POPC  H12S21922   3.968   5.312   9.264 -1.5192 -0.3091 -0.0394
  190POPC  C21321923   3.758   5.302   9.313 -0.7090  0.5059  0.3395
  190POPC  H13R21924   3.692   5.307   9.402  0.4220 -0.4896  1.2687
  190POPC  H13S21925   3.755   5.193   9.290 -1.0242  0.2133  1.6924
  190POPC  C21421926   3.723   5.397   9.197  0.8821  0.6665 -0.0518
  190POPC  H14R21927   3.820   5.406   9.145  1.3633  0.1391  0.7341
  190POPC  H14S21928   3.693   5.495   9.240 -3.4195  0.2726 -1.5706
  190POPC  C21521929   3.610   5.347   9.120 -0.0896  0.9631  0.2030
  190POPC  H15R21930   3.522   5.374   9.182 -0.1371 -1.4947  1.3105
  190POPC  H15S21931   3.609   5.237   9.107 -0.5078  1.0388 -0.4894
  190POPC  C21621932   3.587   5.424   8.995  0.2055 -0.1135 -0.2234
  190POPC  H16R21933   3.662   5.406   8.915 -0.9328 -0.9223 -1.1325
  190POPC  H16S21934   3.590   5.531   9.024  1.7779 -0.6291  1.7207
  190POPC  C21721935   3.455   5.383   8.923 -0.2837 -0.2719 -0.6758
  190POPC  H17R21936   3.373   5.402   8.996  1.7940  4.1324  0.9198
  190POPC  H17S21937   3.474   5.277   8.898  1.2229  0.3405 -2.3635
  190POPC  C21821938   3.431   5.462   8.792  0.2553  0.0005 -0.8758
  190POPC  H18R21939   3.502   5.437   8.710  0.3731  0.4416 -0.9134
  190POPC  H18S21940   3.434   5.573   8.807  1.0265 -0.2924  1.8045
  190POPC  H18T21941   3.330   5.431   8.759  0.0977 -1.4515  0.8244
  190POPC   C3321942   3.995   4.967  10.206 -0.6655  0.1431  0.0044
  190POPC   H3X21943   4.082   5.025  10.245  0.9133 -0.3276 -2.5712
  190POPC   H3Y21944   3.909   5.034  10.226  0.3227  0.9145  2.0357
  190POPC   C3421945   4.011   4.943  10.050 -0.3763  0.2991 -0.5345
  190POPC   H4X21946   3.973   5.033   9.997 -1.6029 -1.2071 -2.3681
  190POPC   H4Y21947   3.960   4.855  10.006 -1.6325  0.9326 -0.3892
  190POPC   C3521948   4.162   4.911  10.008 -0.2986  0.0052  0.4612
  190POPC   H5X21949   4.200   4.808  10.026  0.8578  0.2287 -0.5145
  190POPC   H5Y21950   4.223   4.978  10.073 -0.4630  0.8391 -0.2224
  190POPC   C3621951   4.195   4.955   9.863 -0.8529  0.5034  0.0778
  190POPC   H6X21952   4.305   4.956   9.855 -0.7686  2.8299  0.9399
  190POPC   H6Y21953   4.165   5.061   9.848  0.4071  0.9022  0.2797
  190POPC   C3721954   4.132   4.853   9.768 -0.2613  0.2241  0.6524
  190POPC   H7X21955   4.022   4.856   9.785 -0.6393 -0.9619 -1.2796
  190POPC   H7Y21956   4.160   4.746   9.775  2.9623  0.6480 -2.4990
  190POPC   C3821957   4.137   4.880   9.613  0.6767  0.2629  1.2049
  190POPC   H8X21958   4.238   4.864   9.571  1.1034 -0.2216  2.3997
  190POPC   H8Y21959   4.129   4.990   9.599 -1.3781  0.5304  3.7144
  190POPC   C3921960   4.038   4.793   9.534 -0.1972  0.4992 -0.2020
  190POPC   H9X21961   3.940   4.789   9.586 -0.3972  3.4869 -0.1813
  190POPC   H9Y21962   4.079   4.690   9.534  0.4718  0.6437  3.4638
  190POPC  C31021963   4.015   4.834   9.390 -0.5057 -0.0416 -0.2484
  190POPC  H10X21964   3.983   4.940   9.399 -0.1174 -0.0505  1.7472
  190POPC  H10Y21965   3.930   4.780   9.343 -1.9727  0.5102  1.6273
  190POPC  C31121966   4.141   4.822   9.307 -0.2664  0.1492  0.7874
  190POPC  H11X21967   4.181   4.718   9.301  0.8989  0.6926 -2.2790
  190POPC  H11Y21968   4.218   4.889   9.353  0.9586 -0.2586 -0.5931
  190POPC  C31221969   4.122   4.874   9.160  0.0394 -0.0423 -0.1738
  190POPC  H12X21970   4.048   4.802   9.120 -2.7985  1.7678  1.5141
  190POPC  H12Y21971   4.221   4.872   9.109  1.5385  0.3720  2.4923
  190POPC  C31321972   4.069   5.017   9.156  0.5985 -0.6248 -0.1496
  190POPC  H13X21973   4.133   5.068   9.231 -1.2750  1.5813  0.0719
  190POPC  H13Y21974   3.964   5.011   9.194 -0.1901  0.2712 -2.0522
  190POPC  C31421975   4.074   5.098   9.025 -0.0782  0.3590  0.3782
  190POPC  H14X21976   4.004   5.184   9.035  1.7483  1.7945  1.5709
  190POPC  H14Y21977   4.047   5.034   8.939  3.0995 -0.8139  0.1130
  190POPC  C31521978   4.210   5.168   8.995 -0.3520  0.3374  0.1611
  190POPC  H15X21979   4.207   5.211   8.893 -1.2180 -0.3857 -0.1234
  190POPC  H15Y21980   4.298   5.100   8.992 -0.8578 -0.2850 -0.6072
  190POPC  C31621981   4.245   5.286   9.080 -0.0040  0.1565  0.7355
  190POPC  H16X21982   4.266   5.258   9.186 -0.2769 -0.0030  0.7471
  190POPC  H16Y21983   4.158   5.355   9.081  0.9998  1.5082 -0.3526
  190POPC  H16Z21984   4.336   5.336   9.040  0.5124 -1.2351  0.1019
  191POPC     N21985   4.559   6.689   5.894 -0.0531 -0.7976 -0.3552
  191POPC   C1221986   4.539   6.662   6.042 -0.1962 -0.1441  0.7207
  191POPC  H12A21987   4.454   6.718   6.080  0.7581  1.0779  1.0953
  191POPC  H12B21988   4.625   6.700   6.094 -0.6982  0.8539  0.8493
  191POPC   C1321989   4.426   6.688   5.826  0.0471 -0.0126 -0.0016
  191POPC  H13A21990   4.435   6.682   5.719 -3.8597 -2.8880 -0.4201
  191POPC  H13B21991   4.366   6.603   5.856 -1.8745  1.7599  1.4851
  191POPC  H13C21992   4.358   6.771   5.839 -1.6587 -0.8818 -2.5427
  191POPC   C1421993   4.622   6.824   5.871  0.6135 -0.0077 -0.0794
  191POPC  H14A21994   4.623   6.848   5.765  0.8692 -1.7012 -0.4953
  191POPC  H14B21995   4.562   6.893   5.928 -3.4231 -3.5446  0.4831
  191POPC  H14C21996   4.722   6.821   5.911  0.5324 -0.8789  0.0745
  191POPC   C1521997   4.642   6.585   5.836  0.0603  0.3439  0.1504
  191POPC  H15A21998   4.648   6.590   5.728  0.3312  0.3251  0.1624
  191POPC  H15B21999   4.590   6.493   5.860  1.3089 -0.7155 -0.9731
  191POPC  H15C22000   4.743   6.580   5.875 -0.3349  2.2326  1.5153
  191POPC   C1122001   4.529   6.512   6.085  0.6476  0.0365 -0.1063
  191POPC  H11A22002   4.498   6.518   6.191  1.0903 -0.2269  0.0394
  191POPC  H11B22003   4.629   6.464   6.093 -0.0881 -1.3849  1.0006
  191POPC     P22004   4.280   6.422   6.045 -0.2857 -0.2556  0.2864
  191POPC   O1322005   4.234   6.282   6.034  0.6056  0.2293  0.6443
  191POPC   O1422006   4.211   6.525   5.959  0.4377  0.4961 -0.0917
  191POPC   O1222007   4.437   6.429   6.009 -0.0892  0.0091 -0.0074
  191POPC   O1122008   4.271   6.462   6.201  0.4161 -0.4465  0.6718
  191POPC    C122009   4.143   6.462   6.266  0.6509  0.1689  0.5996
  191POPC    HA22010   4.078   6.376   6.239  1.3113 -0.2711  0.3865
  191POPC    HB22011   4.092   6.558   6.243 -0.2779 -0.6652 -0.9612
  191POPC    C222012   4.157   6.456   6.422  0.2314 -0.6261  0.2260
  191POPC    HS22013   4.057   6.454   6.470  0.3268 -1.9856  0.4209
  191POPC   O2122014   4.231   6.568   6.471  0.1298  0.2136  0.4791
  191POPC   C2122015   4.194   6.607   6.587 -0.1171  0.1696  0.9066
  191POPC   O2222016   4.107   6.557   6.658  0.6828 -0.1583 -0.3093
  191POPC   C2222017   4.268   6.729   6.623 -0.0007 -1.0722 -0.1295
  191POPC   H2R22018   4.189   6.792   6.669  1.3947 -0.5567  1.6881
  191POPC   H2S22019   4.307   6.786   6.536  0.7150  1.1069  1.5164
  191POPC    C322020   4.221   6.318   6.453  0.0121 -0.5514  0.2329
  191POPC    HX22021   4.309   6.304   6.387 -0.0367  0.2066 -0.0146
  191POPC    HY22022   4.147   6.237   6.436  0.8757 -1.3863  0.3884
  191POPC   O3122023   4.262   6.310   6.589 -0.2167 -0.5193 -0.1215
  191POPC   C3122024   4.294   6.191   6.636 -0.0195 -0.8918  0.2509
  191POPC   O3222025   4.295   6.088   6.571  0.5717  0.0437  0.0958
  191POPC   C3222026   4.317   6.205   6.789  0.5111 -0.0582  0.2011
  191POPC   H2X22027   4.266   6.298   6.821 -1.3688 -0.7474 -0.6796
  191POPC   H2Y22028   4.426   6.224   6.797  0.1588  1.9831  0.5513
  191POPC   C2322029   4.374   6.699   6.729 -0.7411  0.0912 -0.8695
  191POPC   H3R22030   4.449   6.781   6.735  0.2062 -0.7854 -0.4467
  191POPC   H3S22031   4.425   6.606   6.697 -0.9152 -0.3144  0.0025
  191POPC   C2422032   4.310   6.674   6.872 -0.0295  0.4319 -0.0464
  191POPC   H4R22033   4.266   6.572   6.867  1.8966 -0.6340  2.3889
  191POPC   H4S22034   4.230   6.747   6.895  0.4520  1.6166 -1.9089
  191POPC   C2522035   4.415   6.655   6.979 -0.2456  0.4222 -0.0158
  191POPC   H5R22036   4.485   6.741   6.983  1.2050 -0.6654 -0.8509
  191POPC   H5S22037   4.476   6.569   6.943 -0.5130  0.1493  0.1844
  191POPC   C2622038   4.359   6.615   7.112  0.2751  0.2943  0.1505
  191POPC   H6R22039   4.303   6.519   7.109  0.5114  0.1701 -0.3603
  191POPC   H6S22040   4.286   6.688   7.154 -1.3924 -1.0768 -0.2681
  191POPC   C2722041   4.469   6.582   7.215 -0.3017 -0.3321 -0.2728
  191POPC   H7R22042   4.526   6.673   7.241  0.0252 -1.2674  2.6922
  191POPC   H7S22043   4.528   6.507   7.157  1.4650  0.3810  0.5292
  191POPC   C2822044   4.411   6.507   7.340  0.0059 -0.2639  0.0319
  191POPC   H8R22045   4.490   6.462   7.403  1.0521  1.1025 -0.2549
  191POPC   H8S22046   4.357   6.417   7.301  1.2862 -0.0708 -2.3631
  191POPC   C2922047   4.331   6.608   7.415 -0.3521  0.1551  0.6660
  191POPC   H9122048   4.238   6.635   7.363  0.7809  0.3344 -1.4157
  191POPC  C21022049   4.368   6.678   7.518 -0.0926 -0.5444 -0.6834
  191POPC  H10122050   4.289   6.727   7.578  0.2047  1.5120 -1.8915
  191POPC  C21122051   4.490   6.657   7.592 -0.5448  0.1966  0.3526
  191POPC  H11R22052   4.561   6.737   7.563  1.0734 -1.8967 -1.8374
  191POPC  H11S22053   4.532   6.556   7.577  1.6935  0.9808  0.9306
  191POPC  C21222054   4.471   6.649   7.743  0.0988  0.1578  0.1773
  191POPC  H12R22055   4.430   6.740   7.793 -1.4895  0.3882 -1.4372
  191POPC  H12S22056   4.565   6.634   7.800 -0.6192  0.7842  1.5742
  191POPC  C21322057   4.382   6.530   7.774 -0.4658  0.3320 -0.7976
  191POPC  H13R22058   4.416   6.442   7.716 -0.3495  0.1008 -0.3795
  191POPC  H13S22059   4.276   6.544   7.742 -0.0693  0.7375 -2.0085
  191POPC  C21422060   4.388   6.472   7.916 -0.1068 -0.8700 -0.1556
  191POPC  H14R22061   4.492   6.459   7.954  0.3137 -0.2542 -1.0541
  191POPC  H14S22062   4.331   6.377   7.910  0.8991 -1.4865 -0.2454
  191POPC  C21522063   4.324   6.562   8.027  0.0824 -0.0155 -0.5484
  191POPC  H15R22064   4.219   6.595   8.009  0.3518  1.2032  0.0203
  191POPC  H15S22065   4.386   6.654   8.032 -1.2509  0.8660  1.2323
  191POPC  C21622066   4.335   6.501   8.169 -0.2011 -0.3017 -0.6076
  191POPC  H16R22067   4.316   6.575   8.249 -0.6524  1.3875 -2.2173
  191POPC  H16S22068   4.437   6.462   8.186  0.2812  0.7259 -1.0625
  191POPC  C21722069   4.245   6.377   8.185  0.0613  0.2053 -0.2648
  191POPC  H17R22070   4.261   6.310   8.098  2.0121  0.6892 -0.3182
  191POPC  H17S22071   4.142   6.417   8.185 -0.1310 -0.1831 -2.4214
  191POPC  C21822072   4.265   6.303   8.313 -0.0006 -0.5982 -0.1491
  191POPC  H18R22073   4.243   6.370   8.398  0.3118 -0.7884  0.0851
  191POPC  H18S22074   4.371   6.271   8.321 -0.3848 -2.1619 -0.8306
  191POPC  H18T22075   4.205   6.209   8.321  0.1634 -0.6180  0.9786
  191POPC   C3322076   4.272   6.088   6.876 -0.3534 -0.0446  0.9098
  191POPC   H3X22077   4.321   5.997   6.836  0.6443  1.1879 -0.8170
  191POPC   H3Y22078   4.164   6.081   6.855  0.1671 -5.0628 -1.4489
  191POPC   C3422079   4.308   6.109   7.023  0.4940  0.4096 -0.0803
  191POPC   H4X22080   4.242   6.182   7.075 -0.4105 -1.8644  2.1590
  191POPC   H4Y22081   4.408   6.158   7.030  0.0931  1.0034  2.4546
  191POPC   C3522082   4.301   5.979   7.114  0.0528 -0.2338 -0.3693
  191POPC   H5X22083   4.372   5.903   7.077 -1.5108 -1.9514  0.0462
  191POPC   H5Y22084   4.201   5.933   7.095  1.0083 -2.3634 -0.4388
  191POPC   C3622085   4.330   5.999   7.265 -0.8174 -0.3713 -0.1198
  191POPC   H6X22086   4.440   6.012   7.268 -0.9341  1.0863 -1.0707
  191POPC   H6Y22087   4.307   5.897   7.305 -4.2754  1.0822  2.0487
  191POPC   C3722088   4.237   6.100   7.336  0.4632 -0.4162 -1.0855
  191POPC   H7X22089   4.137   6.078   7.291  0.3382  0.7904 -1.4176
  191POPC   H7Y22090   4.268   6.205   7.322  0.6725 -0.2351  0.5279
  191POPC   C3822091   4.224   6.073   7.487 -0.4062 -0.0212 -0.0159
  191POPC   H8X22092   4.199   5.965   7.481 -0.4360 -0.1131  1.3569
  191POPC   H8Y22093   4.143   6.135   7.529 -0.4220  0.1260 -0.2636
  191POPC   C3922094   4.340   6.094   7.578 -0.2997 -0.4473  0.2114
  191POPC   H9X22095   4.383   6.196   7.565  0.3753 -0.5954  1.1761
  191POPC   H9Y22096   4.425   6.029   7.548 -0.0709  1.0526 -2.7491
  191POPC  C31022097   4.308   6.086   7.724  0.5580  0.1348  0.3655
  191POPC  H10X22098   4.249   5.993   7.740 -0.9922  1.1833  0.9752
  191POPC  H10Y22099   4.240   6.169   7.756 -0.0066 -0.8328  1.7754
  191POPC  C31122100   4.436   6.100   7.797  0.1796 -0.6196  0.0484
  191POPC  H11X22101   4.502   6.187   7.775  3.0896 -3.1712 -2.4194
  191POPC  H11Y22102   4.502   6.016   7.764 -0.4023 -0.8772 -0.4847
  191POPC  C31222103   4.410   6.086   7.951 -0.1962 -0.3047 -0.3888
  191POPC  H12X22104   4.340   6.001   7.967 -0.5558 -0.4256 -2.3335
  191POPC  H12Y22105   4.357   6.180   7.976 -0.3509 -0.3242 -0.6336
  191POPC  C31322106   4.549   6.072   8.022  0.2518  0.6922  0.3180
  191POPC  H13X22107   4.623   6.136   7.970  0.9402 -0.7646 -0.5783
  191POPC  H13Y22108   4.580   5.967   8.002  0.7624  0.7500  0.7941
  191POPC  C31422109   4.536   6.111   8.173  0.3086 -0.2048 -0.0635
  191POPC  H14X22110   4.435   6.073   8.200  0.2530  0.6346  0.9866
  191POPC  H14Y22111   4.535   6.221   8.187  1.2858 -0.0488 -1.0938
  191POPC  C31522112   4.636   6.047   8.269 -0.1200  0.0140 -0.3958
  191POPC  H15X22113   4.614   6.088   8.369 -0.8383 -2.0133  0.3345
  191POPC  H15Y22114   4.735   6.084   8.236  1.1371 -1.9194  1.0233
  191POPC  C31622115   4.643   5.893   8.270 -0.3221 -0.1151  0.1183
  191POPC  H16X22116   4.545   5.846   8.291  0.6837 -3.5101 -2.0279
  191POPC  H16Y22117   4.709   5.865   8.355 -2.3297  0.3896  1.9220
  191POPC  H16Z22118   4.679   5.852   8.174 -1.5987 -0.7141 -0.1259
  192POPC     N22119   2.792   1.441   5.978 -0.1504  0.5350 -0.2743
  192POPC   C1222120   2.658   1.395   6.038  0.1111  0.3521  0.0134
  192POPC  H12A22121   2.603   1.342   5.962  1.5293  1.2740 -1.7095
  192POPC  H12B22122   2.611   1.491   6.059 -3.3322 -1.6053  2.2469
  192POPC   C1322123   2.881   1.334   5.935  0.4941  0.3493 -0.1223
  192POPC  H13A22124   2.924   1.275   6.014  1.5544  1.3434  0.0755
  192POPC  H13B22125   2.845   1.274   5.853  1.7546 -0.9277  0.2202
  192POPC  H13C22126   2.968   1.386   5.897  0.7752  0.5524  0.7617
  192POPC   C1422127   2.774   1.552   5.877 -0.3467 -0.3403 -0.6747
  192POPC  H14A22128   2.861   1.591   5.826 -0.6862 -0.2643 -1.2014
  192POPC  H14B22129   2.709   1.524   5.796  0.1669  1.6540 -1.8374
  192POPC  H14C22130   2.729   1.637   5.927 -1.2800 -0.7262 -0.8450
  192POPC   C1522131   2.866   1.507   6.087  0.1000  0.0002 -0.2089
  192POPC  H15A22132   2.809   1.584   6.137  0.1063  0.5650 -1.0545
  192POPC  H15B22133   2.948   1.568   6.052  1.6553  0.0064  2.9945
  192POPC  H15C22134   2.899   1.434   6.160  0.7141 -0.9874 -1.4457
  192POPC   C1122135   2.650   1.303   6.159  0.3299  0.1316  0.2445
  192POPC  H11A22136   2.542   1.296   6.183  1.0732  0.1428  4.1265
  192POPC  H11B22137   2.698   1.339   6.252  1.5519  0.5260 -0.5118
  192POPC     P22138   2.612   1.083   6.041  0.2595 -0.1851 -0.4179
  192POPC   O1322139   2.684   0.956   6.005  0.6916 -0.3901 -0.3307
  192POPC   O1422140   2.552   1.156   5.926 -0.0132  0.3750 -0.1931
  192POPC   O1222141   2.710   1.177   6.128  0.2897  0.4274 -0.5315
  192POPC   O1122142   2.495   1.049   6.144 -0.3132  0.0199  0.5171
  192POPC    C122143   2.517   0.985   6.269  0.0256 -0.4042  0.1024
  192POPC    HA22144   2.591   1.042   6.330 -0.6815  0.8676 -0.1791
  192POPC    HB22145   2.567   0.889   6.245 -3.4441 -1.7500 -2.4540
  192POPC    C222146   2.388   0.956   6.353 -0.5301  0.1269  0.0084
  192POPC    HS22147   2.318   0.897   6.291  1.0116 -2.9585  0.9602
  192POPC   O2122148   2.329   1.082   6.376 -0.4664  0.1584 -0.2182
  192POPC   C2122149   2.199   1.098   6.394  0.7472  0.4068 -0.2461
  192POPC   O2222150   2.115   1.010   6.398 -0.1001  0.4141  0.2940
  192POPC   C2222151   2.170   1.239   6.429 -0.4467 -0.2535  0.0460
  192POPC   H2R22152   2.141   1.297   6.339 -2.2409  0.0670  0.7756
  192POPC   H2S22153   2.254   1.290   6.481 -1.7031  0.9195  1.0009
  192POPC    C322154   2.427   0.881   6.486  0.3367 -0.5197  0.1150
  192POPC    HX22155   2.334   0.886   6.547  1.1905  0.8966  1.3863
  192POPC    HY22156   2.500   0.941   6.545 -0.2692  0.3183  0.0408
  192POPC   O3122157   2.462   0.745   6.475  0.3097  0.2057 -0.3766
  192POPC   C3122158   2.591   0.710   6.466 -0.6667 -1.2661 -0.2485
  192POPC   O3222159   2.681   0.795   6.458  0.2519 -0.4215 -0.6614
  192POPC   C3222160   2.613   0.557   6.465 -0.0368 -0.1456 -0.3030
  192POPC   H2X22161   2.656   0.543   6.364  1.1801 -0.9545  0.2988
  192POPC   H2Y22162   2.514   0.505   6.471 -0.9927  1.3619 -1.9688
  192POPC   C2322163   2.046   1.252   6.523 -0.2520  0.0482 -0.1321
  192POPC   H3R22164   1.959   1.199   6.480  0.0147 -0.3075 -0.2411
  192POPC   H3S22165   2.017   1.359   6.523 -0.1799  0.0735 -1.0794
  192POPC   C2422166   2.076   1.208   6.673 -0.2411  0.0552  0.5400
  192POPC   H4R22167   2.160   1.276   6.700 -0.9247  0.9303  0.5289
  192POPC   H4S22168   2.116   1.105   6.675  1.3979  0.6080 -0.9171
  192POPC   C2522169   1.965   1.236   6.773  1.1061 -0.1643  0.0879
  192POPC   H5R22170   1.865   1.199   6.741  0.7146  0.4260  0.6213
  192POPC   H5S22171   1.950   1.346   6.779  0.2829 -0.3570  2.2987
  192POPC   C2622172   2.002   1.163   6.905 -0.4508  0.4804  0.0901
  192POPC   H6R22173   2.104   1.190   6.943  0.1869  0.5790 -1.6180
  192POPC   H6S22174   1.999   1.055   6.882 -0.1792  0.9487 -2.4272
  192POPC   C2722175   1.902   1.187   7.016 -0.0138  0.1472  0.4896
  192POPC   H7R22176   1.796   1.182   6.983 -0.2199  2.5725  0.6063
  192POPC   H7S22177   1.924   1.292   7.044  2.2459 -0.1706  0.0675
  192POPC   C2822178   1.929   1.085   7.134 -0.1461 -0.0982  0.5942
  192POPC   H8R22179   2.036   1.071   7.160  0.0994 -0.1896 -0.4181
  192POPC   H8S22180   1.898   0.983   7.103  0.1766 -0.5502  1.7214
  192POPC   C2922181   1.844   1.129   7.251  0.4436  0.7488  0.2203
  192POPC   H9122182   1.771   1.209   7.236  1.4689  2.0468  1.8207
  192POPC  C21022183   1.864   1.097   7.380 -0.4424  0.1740  0.1192
  192POPC  H10122184   1.800   1.141   7.458 -1.6359  0.1642 -0.8173
  192POPC  C21122185   1.966   1.004   7.440  0.0371  0.3053  0.3006
  192POPC  H11R22186   2.060   1.019   7.381  0.3563 -0.4753  0.6062
  192POPC  H11S22187   1.926   0.901   7.439 -1.1780  0.7534 -1.1755
  192POPC  C21222188   2.002   1.034   7.587  0.0071  0.0456  0.2187
  192POPC  H12R22189   2.040   1.138   7.593  0.9580 -0.3332  1.2179
  192POPC  H12S22190   2.086   0.968   7.618 -0.5334 -1.2585 -1.0003
  192POPC  C21322191   1.882   1.024   7.683  0.6370 -0.6779  0.2336
  192POPC  H13R22192   1.821   0.934   7.660 -0.6419  0.0945  0.4764
  192POPC  H13S22193   1.811   1.109   7.673 -0.1995 -1.5051 -1.2991
  192POPC  C21422194   1.922   1.019   7.833  0.2948  0.4261  0.5259
  192POPC  H14R22195   1.981   1.110   7.857 -0.2563  1.1707 -0.8289
  192POPC  H14S22196   1.982   0.928   7.854  0.7804  0.7303  0.4745
  192POPC  C21522197   1.800   0.996   7.929  0.0466 -0.5413  0.2351
  192POPC  H15R22198   1.740   0.906   7.904 -0.4272 -0.6562  1.7135
  192POPC  H15S22199   1.734   1.086   7.926 -0.6491 -1.0191  0.9881
  192POPC  C21622200   1.851   0.998   8.073  0.4827 -0.1790  0.2031
  192POPC  H16R22201   1.772   1.035   8.142  1.2431  1.0001  0.4580
  192POPC  H16S22202   1.934   1.070   8.086 -1.4909  2.2748 -0.1739
  192POPC  C21722203   1.894   0.864   8.124  0.4863 -0.8472 -0.1685
  192POPC  H17R22204   1.983   0.826   8.070  0.0361 -1.6526 -0.3642
  192POPC  H17S22205   1.806   0.796   8.117 -0.1029 -0.0794 -0.2813
  192POPC  C21822206   1.913   0.860   8.279 -1.1030  0.5022  0.2799
  192POPC  H18R22207   2.001   0.921   8.311 -2.1624  2.4498 -0.3489
  192POPC  H18S22208   1.930   0.752   8.301 -0.5052  0.5844  0.2450
  192POPC  H18T22209   1.823   0.887   8.338  0.3636  0.4765  2.6723
  192POPC   C3322210   2.712   0.499   6.561  0.6218 -0.3330 -0.0721
  192POPC   H3X22211   2.816   0.536   6.549  0.2408  0.3787 -1.2831
  192POPC   H3Y22212   2.719   0.390   6.538 -0.8166 -0.2968 -0.7517
  192POPC   C3422213   2.661   0.516   6.702  0.2460 -0.5505  0.5286
  192POPC   H4X22214   2.698   0.426   6.755  1.7595  0.3375  1.0777
  192POPC   H4Y22215   2.550   0.514   6.703  0.1671  0.8614 -0.9591
  192POPC   C3522216   2.709   0.639   6.783  0.2953  0.3949  0.1563
  192POPC   H5X22217   2.659   0.718   6.723 -1.4611 -1.0263 -0.3329
  192POPC   H5Y22218   2.819   0.647   6.771  0.7588 -2.0597  2.0543
  192POPC   C3622219   2.668   0.636   6.929  0.2340 -0.0568  0.0047
  192POPC   H6X22220   2.557   0.641   6.942  0.4052 -0.8850  2.1909
  192POPC   H6Y22221   2.706   0.730   6.973 -1.3999  0.9921 -0.7390
  192POPC   C3722222   2.715   0.516   7.017 -0.0825 -0.1545 -0.6070
  192POPC   H7X22223   2.821   0.505   6.986  0.8081  1.3532  1.6543
  192POPC   H7Y22224   2.649   0.429   6.996  0.1296 -0.3323 -0.5488
  192POPC   C3822225   2.697   0.551   7.161  0.3003 -0.4810 -0.2620
  192POPC   H8X22226   2.590   0.580   7.156  1.0113  2.2705 -1.5661
  192POPC   H8Y22227   2.757   0.639   7.194  0.6855 -0.6386 -0.5470
  192POPC   C3922228   2.730   0.452   7.270 -0.0388 -0.7195 -0.2086
  192POPC   H9X22229   2.838   0.428   7.284  0.6526  0.9883 -2.1645
  192POPC   H9Y22230   2.670   0.360   7.255 -1.5502  0.3269 -0.8186
  192POPC  C31022231   2.690   0.507   7.411  0.7162  0.4056 -0.5058
  192POPC  H10X22232   2.583   0.536   7.402  0.7510  1.1057  0.9820
  192POPC  H10Y22233   2.736   0.606   7.432  1.7600 -0.3865  1.2072
  192POPC  C31122234   2.712   0.409   7.520  0.4497  0.0267 -0.1444
  192POPC  H11X22235   2.820   0.389   7.530  0.3659 -0.1194  0.5074
  192POPC  H11Y22236   2.663   0.311   7.500  1.0842  0.0366 -1.9380
  192POPC  C31222237   2.675   0.462   7.658  0.3594  0.0874  0.0546
  192POPC  H12X22238   2.566   0.447   7.675  0.5211 -2.0675 -0.5385
  192POPC  H12Y22239   2.708   0.568   7.658  1.3690 -0.2135  0.7043
  192POPC  C31322240   2.741   0.377   7.769 -0.0738  0.8096 -0.3356
  192POPC  H13X22241   2.852   0.386   7.768  0.0842  0.1661 -4.1088
  192POPC  H13Y22242   2.725   0.268   7.756  2.2693  0.1389  1.7704
  192POPC  C31422243   2.694   0.403   7.909  0.4780  0.1160 -0.0275
  192POPC  H14X22244   2.589   0.369   7.913  0.0356  1.3410 -0.8972
  192POPC  H14Y22245   2.698   0.512   7.929  0.9954  0.2287 -0.7067
  192POPC  C31522246   2.772   0.325   8.026  0.0555 -0.3322  0.5226
  192POPC  H15X22247   2.863   0.376   8.062  0.0476 -0.0739  0.1827
  192POPC  H15Y22248   2.789   0.220   7.996  1.4914 -0.2849  1.1131
  192POPC  C31622249   2.667   0.313   8.136  0.1736 -0.1778 -0.8843
  192POPC  H16X22250   2.587   0.244   8.102  0.0045 -1.1875  1.4019
  192POPC  H16Y22251   2.625   0.411   8.166 -2.3196 -1.4372  0.0334
  192POPC  H16Z22252   2.705   0.269   8.231 -1.0640 -0.4611 -0.5081
  193SOD    SOD22253   4.732   0.805   4.745 -0.6205  0.4883  0.2608
  194SOD    SOD22254   3.067   6.407   6.198 -0.0117  0.4099 -0.0971
  195SOD    SOD22255   5.274   3.466  15.169  0.0063  0.5177 -0.3582
  196SOD    SOD22256   2.180   2.719  12.426 -0.6525 -0.2418 -0.8099
  197SOD    SOD22257   6.691   5.043   5.722  0.5111  0.0620 -0.2726
  198SOD    SOD22258   2.407   0.698  12.493 -0.7291  0.6679  0.2207
  199SOD    SOD22259   3.434   1.584  13.335  0.4906  0.0535  0.1967
  200SOD    SOD22260   5.674   3.098   2.151 -0.3282  0.2123  0.6436
  201SOD    SOD22261   0.560   2.498  12.452 -0.4358 -0.0270  0.1255
  202SOD    SOD22262   1.537   2.386  16.536  0.1349 -0.0582  0.0918
  203SOD    SOD22263   2.969   4.110   6.131 -0.3128  0.4765 -0.0690
  204SOD    SOD22264   4.031   4.006   1.697 -0.3128  0.0449 -0.3954
  205SOD    SOD22265   4.312   4.888   5.737  0.6309 -0.1709 -0.0018
  206SOD    SOD22266   4.506   0.036  11.251  0.0777  0.5467 -0.1994
  207SOD    SOD22267   3.796   5.835  14.299 -0.1548  0.6328  0.3996
  208SOD    SOD22268   0.104   3.959  10.490  0.1350  0.2498  0.1542
  209SOD    SOD22269   3.681   6.002  10.925  0.0567  0.1462  0.0665
  210SOD    SOD22270   3.420   3.152   0.961 -0.4079  0.2981 -0.1566
  211SOD    SOD22271   2.638   0.109  14.762  0.0197  0.3715 -0.3403
  212SOD    SOD22272   5.292   5.617  16.530  0.0321 -0.4324 -0.5541
  213SOD    SOD22273   6.464   5.955   0.585 -0.4487 -0.2610  0.3263
  214SOD    SOD22274   4.735   3.819   4.860  0.2134  0.2175  0.0582
  215SOD    SOD22275   4.466   0.905  15.781  0.4130  0.1571  0.4942
  216SOD    SOD22276   3.812   1.554  14.012  0.3266 -0.1343 -0.1379
  217SOD    SOD22277   2.019   2.406   6.502  0.1438  0.6416 -0.2475
  218SOD    SOD22278   1.354   5.608  13.916  0.7768  0.1712  0.2130
  219SOD    SOD22279   2.161   5.718  15.083 -0.3566 -0.0415  0.2782
  220SOD    SOD22280   0.251   1.171  11.133 -0.3462 -0.0573  0.1714
  221SOD    SOD22281   3.665   6.735   4.804  0.6320  0.2167  0.1410
  222SOD    SOD22282   2.230   4.851  12.721  0.7102 -0.1125 -0.8538
  223SOD    SOD22283   0.526   6.612  11.914 -0.1401  0.3986 -0.2677
  224SOD    SOD22284   4.710   4.071   3.050 -0.0061 -0.0340 -0.0563
  225SOD    SOD22285   0.097   5.233  13.984  0.6127 -0.2604 -0.7464
  226SOD    SOD22286   3.049   6.188   5.620  0.3422  0.1199  0.2215
  227SOD    SOD22287   1.476   3.383   4.628  0.2161  0.0760 -0.1969
  228SOD    SOD22288   4.259   5.878   6.453 -0.2923  0.0966 -0.0720
  229SOD    SOD22289   0.042   2.070   2.297 -0.0356  0.1655 -0.4083
  230SOD    SOD22290   3.626   1.114   3.691  0.3124 -0.8864  0.1852
  231SOD    SOD22291   0.515   2.989  11.206  0.0304 -0.8700 -0.7034
  232SOD    SOD22292   4.478   4.507   2.267 -0.0209 -0.2150 -0.2143
  233SOD    SOD22293   5.407   3.940  16.588  0.5407 -0.1672 -0.3269
  234SOD    SOD22294   3.953   5.682  16.929  0.0350 -0.0234  0.3020
  235SOD    SOD22295   6.267   4.687  11.325  0.6613  0.1376  0.7465
  236SOD    SOD22296   6.576   5.746  10.930 -0.0305  0.4612  0.2954
  237SOD    SOD22297   5.219   2.744   6.330 -0.2295 -0.3384  0.4281
  238SOD    SOD22298   6.423   3.368   6.101  0.2256  0.2527 -0.0165
  239SOD    SOD22299   0.671   0.144   5.737 -0.1872 -0.4330 -0.3163
  240SOD    SOD22300   3.711   0.633   1.809  0.1877  0.2024  0.2144
  241SOD    SOD22301   1.201   1.317  14.976  0.0674 -0.0816  0.0705
  242SOD    SOD22302   5.186   6.619  16.448  0.2406 -0.2233  0.2688
  243SOD    SOD22303   2.730   4.919   5.218 -0.2165 -0.2649  0.2133
  244SOD    SOD22304   3.991   5.313  12.068  0.2915  0.0879  0.0985
  245SOD    SOD22305   4.498   5.514   4.899  0.5344 -0.6832 -0.2184
  246SOD    SOD22306   4.016   1.065   5.452  0.3102 -0.1736 -0.1824
  247SOD    SOD22307   0.133   1.363   1.800 -0.4239  0.5004  0.1104
  248SOD    SOD22308   6.446   3.696  10.772 -0.5050  0.1429 -0.3560
  249SOD    SOD22309   2.609   3.645   6.649 -0.3048 -0.4609 -0.1596
  250SOD    SOD22310   3.707   3.409   2.166 -0.2415 -0.6448 -0.0850
  251SOD    SOD22311   5.041   6.709   0.318 -0.3836  0.1890 -0.6427
  252SOD    SOD22312   5.586   5.064  15.764  0.3961  0.1446 -0.1423
  253SOD    SOD22313   4.976   2.483  16.308 -0.5334  0.1308 -0.0184
  254SOD    SOD22314   6.788   2.023   5.902  0.2691  0.1557 -0.4887
  255SOD    SOD22315   0.387   0.476  13.350  0.1376 -0.1889  0.4729
  256SOD    SOD22316   2.271   4.545   2.690 -0.0380 -0.2655  0.2035
  257SOD    SOD22317   5.906   4.339  16.068  0.2919  0.1361 -0.1251
  258SOD    SOD22318   3.888   1.666  11.155  0.1756  0.7086  0.2826
  259SOD    SOD22319   0.748   2.539   3.637  0.5851  0.4415  0.3471
  260SOD    SOD22320   1.327   3.725   2.870 -0.0847  0.2918 -0.2650
  261SOD    SOD22321   5.241   0.958  14.254 -0.1199 -0.2611  0.2960
  262SOD    SOD22322   5.443   0.076   3.717 -0.3530  0.2351 -0.6783
  263SOD    SOD22323   0.102   2.619  15.305  0.0723 -0.4087 -0.1434
  264SOD    SOD22324   4.455   5.039  15.257  0.5161  0.0891 -0.1329
  265SOD    SOD22325   3.195   2.415  16.020 -0.0571  0.4374  0.1735
  266SOD    SOD22326   3.751   0.828   0.174  0.2800 -0.5969  0.3101
  267SOD    SOD22327   1.439   2.963  10.609 -0.0598  0.1067 -0.2320
  268SOD    SOD22328   2.552   3.503  12.139 -0.4441 -0.4820  0.5108
  269SOD    SOD22329   3.701   4.346  15.136 -0.4329 -0.2714 -0.4383
  270CLA    CLA22330   5.942   0.627  12.084  0.0384 -0.3206  0.0765
  271CLA    CLA22331   2.701   1.089  15.537  0.2104 -0.1883  0.0892
  272CLA    CLA22332   5.687   0.831  15.177 -0.1182 -0.2641  0.3065
  273CLA    CLA22333   4.119   5.673  16.251  0.0626  0.0433  0.7393
  274CLA    CLA22334   3.246   4.655  15.580 -0.0560 -0.0573  0.0783
  275CLA    CLA22335   5.435   3.347  12.703 -0.1982  0.3364 -0.2389
  276CLA    CLA22336   3.370   4.617  16.555 -0.1919 -0.1662  0.0623
  277CLA    CLA22337   3.777   2.815   3.485  0.3331 -0.3079 -0.0053
  278CLA    CLA22338   0.691   5.629   3.112  0.2781 -0.2002  0.4799
  279CLA    CLA22339   2.611   0.339  14.594 -0.2042  0.6802 -0.3189
  280CLA    CLA22340   4.329   4.517   5.507  0.4428  0.1572 -0.2076
  281CLA    CLA22341   4.142   3.491   0.205  0.2426 -0.1351  0.1929
  282CLA    CLA22342   5.037   6.733   4.185  0.2522  0.1188  0.0671
  283CLA    CLA22343   6.031   2.520   0.419  0.7067 -0.0489  0.1370
  284CLA    CLA22344   3.153   3.767   5.264  0.0006 -0.3576 -0.1849
  285CLA    CLA22345   0.409   2.110   1.931 -0.8060  0.2502 -0.0984
  286CLA    CLA22346   5.638   4.772  16.407 -0.1266 -0.0121 -0.4691
  287CLA    CLA22347   5.987   0.640   3.099  0.0439  0.0841 -0.2910
  288CLA    CLA22348   2.348   3.330   4.968  0.0588 -0.2259  0.3378
  289CLA    CLA22349   0.148   2.063  12.376  0.0510 -0.2958 -0.2914
  290CLA    CLA22350   5.536   4.665  14.704 -0.0557 -0.2660  0.6299
  291CLA    CLA22351   1.726   5.020   3.692 -0.2950  0.1997  0.0557
  292CLA    CLA22352   0.792   6.494   4.644  0.1915 -0.2777  0.0348
  293CLA    CLA22353   1.091   3.069   4.146  0.1434  0.3687 -0.0691
  294CLA    CLA22354   1.694   4.728  16.917  0.0710 -0.0740  0.5816
  295CLA    CLA22355   3.816   6.492  15.795  0.1280 -0.0383  0.0870
  296CLA    CLA22356   2.595   6.312  14.024 -0.0348  0.4373  0.3011
  297CLA    CLA22357   1.479   0.475  15.268  0.2509 -0.1636  0.0102
  298CLA    CLA22358   3.891   5.510  11.470  0.1919 -0.4211 -0.5101
  299CLA    CLA22359   3.021   1.770  13.498 -0.1164 -0.1126 -0.0696
  300CLA    CLA22360   2.306   1.036  12.113  0.4573  0.0891 -0.1019
  301CLA    CLA22361   4.512   3.385  15.735 -0.1170 -0.1736 -0.1458
  302CLA    CLA22362   4.157   1.033   1.779 -0.0886  0.0689 -0.1913
  303CLA    CLA22363   4.627   6.192   1.736  0.3555 -0.0813  0.1589
  304CLA    CLA22364   5.104   3.486  16.589  0.1720 -0.0572 -0.4255
  305CLA    CLA22365   1.772   6.339   5.431  0.0319  0.3364 -0.1136
  306CLA    CLA22366   4.346   1.932   4.316 -0.7760  0.1982 -0.0789
  307CLA    CLA22367   5.175   6.124  16.594 -0.0439 -0.0002 -0.2231
  308CLA    CLA22368   1.247   6.221  13.651  0.1484 -0.2435 -0.2566
  309CLA    CLA22369   5.784   1.452  14.350  0.5923 -0.2889 -0.4380
  310CLA    CLA22370   6.772   2.681  13.091  0.1756  0.2450  0.4970
  311CLA    CLA22371   3.435   1.589  16.213 -0.4584  0.4174 -0.1236
  312CLA    CLA22372   5.377   3.697  14.672  0.1030  0.1045  0.0747
  313CLA    CLA22373   6.041   5.961   0.049  0.4237  0.2438  0.0404
  314CLA    CLA22374   0.575   2.324  15.834  0.1379  0.7162 -0.3635
  315CLA    CLA22375   6.669   0.825   4.161  0.1998  0.5942  0.4756
  316CLA    CLA22376   6.471   3.842  16.315 -0.1369 -0.2464  0.0368
  317CLA    CLA22377   4.207   1.333  14.350  0.4175 -0.3628 -0.2715
  318CLA    CLA22378   3.211   3.736   1.436 -0.2309  0.4943 -0.1128
  319CLA    CLA22379   4.282   4.362   1.959  0.2567  0.4686  0.1160
  320CLA    CLA22380   4.685   2.404   1.712 -0.0754 -0.3917  0.0125
  321CLA    CLA22381   5.075   3.211  14.253 -0.0428  0.3720 -0.4420
  322CLA    CLA22382   6.118   4.081   3.395  0.1852 -0.3035  0.1013
  323TIP3   OH222383   5.728   0.730  12.370 -0.0608  0.3723  0.7154
  323TIP3    H122384   5.754   0.660  12.430 -1.3171 -0.9213 -0.2045
  323TIP3    H222385   5.810   0.760  12.332  0.3919 -2.3472 -0.7354
  324TIP3   OH222386   0.047   6.592   4.514  0.0596  0.9158 -0.0688
  324TIP3    H122387   0.002   6.646   4.579  1.1692  0.8674  0.7627
  324TIP3    H222388   0.136   6.583   4.547 -0.2681 -2.0908  0.2460
  325TIP3   OH222389   0.393   0.893  13.594 -0.0292 -0.1246  0.1426
  325TIP3    H122390   0.350   0.879  13.510 -0.4515 -1.1290  0.5218
  325TIP3    H222391   0.486   0.902  13.572 -0.3521  1.8001 -0.6451
  326TIP3   OH222392   3.432   1.842  11.952  0.0903 -0.6198  0.3583
  326TIP3    H122393   3.408   1.921  11.904 -0.7053 -1.0144  0.0933
  326TIP3    H222394   3.392   1.771  11.903  0.3588 -1.1428  0.8857
  327TIP3   OH222395   6.249   5.747  13.803  0.0645 -0.1182 -0.1741
  327TIP3    H122396   6.314   5.706  13.746 -3.3416 -3.3921 -2.1047
  327TIP3    H222397   6.225   5.828  13.758  1.6987  0.4437 -0.1066
  328TIP3   OH222398   2.379   6.775   3.145 -0.2266  0.0832 -0.1892
  328TIP3    H122399   2.451   6.810   3.196  0.3952 -0.2470 -0.8246
  328TIP3    H222400   2.321   6.733   3.209  1.7614 -2.5090  0.0751
  329TIP3   OH222401   0.562   3.756   4.033 -0.4519  0.4906  0.2327
  329TIP3    H122402   0.496   3.728   4.096 -0.7232  1.1420  0.2463
  329TIP3    H222403   0.524   3.833   3.991 -0.1201  0.2717 -0.4763
  330TIP3   OH222404   4.065   1.573   0.870  0.0760  0.3218 -0.4135
  330TIP3    H122405   3.974   1.571   0.900  0.2043 -0.9945 -0.0697
  330TIP3    H222406   4.059   1.572   0.775 -0.2655  0.5503 -0.3981
  331TIP3   OH222407   5.732   5.981  14.231 -0.3362  0.4078 -0.3486
  331TIP3    H122408   5.711   5.980  14.325  0.7951 -0.1220 -0.0831
  331TIP3    H222409   5.673   5.916  14.193  0.8344 -1.2014  0.4184
  332TIP3   OH222410   0.316   4.619   4.139 -0.3986 -0.4056  0.0408
  332TIP3    H122411   0.337   4.693   4.197 -1.0449 -0.0917 -0.1140
  332TIP3    H222412   0.350   4.646   4.053  2.2941 -1.6665  0.5866
  333TIP3   OH222413   4.560   2.702  11.443 -0.1644  0.0102 -0.2213
  333TIP3    H122414   4.486   2.645  11.463  0.5706  0.4259  4.8221
  333TIP3    H222415   4.638   2.647  11.455  0.4519  0.8753 -0.1318
  334TIP3   OH222416   6.395   6.599  14.099  0.8561  0.2833 -0.1937
  334TIP3    H122417   6.307   6.585  14.066  0.8308 -2.9177  0.9289
  334TIP3    H222418   6.452   6.577  14.025  0.7598  0.5696 -0.3572
  335TIP3   OH222419   4.122   5.944   5.831  0.0541 -0.2846 -0.2453
  335TIP3    H122420   4.197   6.002   5.844  0.6953 -1.3728  1.1788
  335TIP3    H222421   4.102   5.952   5.737  1.2279  0.8805 -0.4244
  336TIP3   OH222422   3.875   2.045  16.071 -0.5352  0.1532 -0.3725
  336TIP3    H122423   3.821   2.121  16.047 -0.9550  0.0785  0.3242
  336TIP3    H222424   3.927   2.027  15.992 -1.2830  0.4319 -0.9396
  337TIP3   OH222425   1.165   2.418  11.127  0.1882 -0.0120 -0.4857
  337TIP3    H122426   1.182   2.470  11.049  2.8786 -0.4663 -0.3105
  337TIP3    H222427   1.202   2.332  11.107 -1.2591 -0.8896  0.4254
  338TIP3   OH222428   2.636   0.484   3.582  0.2414  0.0794  0.6308
  338TIP3    H122429   2.718   0.478   3.631 -0.1928  0.1578  1.3719
  338TIP3    H222430   2.651   0.430   3.504  1.2878  0.7539  0.3362
  339TIP3   OH222431   5.954   0.653  14.758  0.0217 -0.4156  0.4876
  339TIP3    H122432   5.904   0.729  14.729  0.0116 -0.3804  0.5984
  339TIP3    H222433   5.995   0.619  14.678  1.5026  0.7659  0.6993
  340TIP3   OH222434   1.808   2.894   2.770 -0.3438 -0.2920 -0.4570
  340TIP3    H122435   1.823   2.894   2.865 -0.1132  1.6687 -0.4461
  340TIP3    H222436   1.880   2.843   2.734  1.0368  1.0841  0.2628
  341TIP3   OH222437   3.498   2.380  13.941 -0.0034  0.3935 -0.1182
  341TIP3    H122438   3.467   2.463  13.975  0.1391 -0.5153  2.4636
  341TIP3    H222439   3.456   2.314  13.997  2.3641 -1.0885  0.0481
  342TIP3   OH222440   3.672   5.812   3.500 -0.7718 -0.0102 -0.1794
  342TIP3    H122441   3.591   5.763   3.517 -1.3371  1.3205  1.1587
  342TIP3    H222442   3.714   5.819   3.585 -1.2516  2.6942 -0.0731
  343TIP3   OH222443   3.008   4.298   4.841  1.0373 -0.4580  0.0725
  343TIP3    H122444   3.055   4.214   4.841  2.1049  0.1257  0.6312
  343TIP3    H222445   3.048   4.348   4.912 -1.3642 -0.4337  1.5340
  344TIP3   OH222446   1.452   3.000   5.417  0.0894  0.1364 -0.2247
  344TIP3    H122447   1.358   2.997   5.402  0.1804  0.4806 -0.9011
  344TIP3    H222448   1.468   3.088   5.450 -0.1661 -0.7310  2.4293
  345TIP3   OH222449   2.336   5.497   1.320 -0.0702  0.4731 -0.1011
  345TIP3    H122450   2.333   5.414   1.271 -0.2700 -0.4372  1.3824
  345TIP3    H222451   2.368   5.561   1.257  1.9704 -1.1198 -0.7912
  346TIP3   OH222452   6.708   6.565  12.597  0.3222  0.0576  0.0898
  346TIP3    H122453   6.650   6.616  12.540 -1.0211 -1.6860 -0.1782
  346TIP3    H222454   6.677   6.585  12.686 -0.6856 -0.8161 -0.0491
  347TIP3   OH222455   0.933   6.231  11.136  0.3693  0.1895 -0.6187
  347TIP3    H122456   0.839   6.252  11.139  0.2635 -0.0799 -1.7007
  347TIP3    H222457   0.972   6.302  11.085  0.8341  0.5206  0.1730
  348TIP3   OH222458   5.781   1.181   2.569  0.2205 -0.3059 -0.7713
  348TIP3    H122459   5.757   1.257   2.623  1.5644 -0.8005  0.6139
  348TIP3    H222460   5.699   1.134   2.556 -0.3658  0.5592 -0.3257
  349TIP3   OH222461   2.228   4.258   0.161  0.4190 -0.3717  0.0123
  349TIP3    H122462   2.140   4.236   0.131  0.6988 -0.7729 -0.5185
  349TIP3    H222463   2.284   4.249   0.083  0.5625  2.2103 -0.2666
  350TIP3   OH222464   4.607   4.859   3.396  0.0386 -0.3645  0.5741
  350TIP3    H122465   4.555   4.939   3.386  1.1756  0.5898  1.7515
  350TIP3    H222466   4.554   4.790   3.357 -1.8125  0.6574  1.1468
  351TIP3   OH222467   4.789   1.484   3.204  0.2554  0.3319 -0.5899
  351TIP3    H122468   4.839   1.533   3.139  1.6612  0.9849  0.9154
  351TIP3    H222469   4.790   1.540   3.282  0.0662 -1.1555  0.5146
  352TIP3   OH222470   0.315   6.235  14.521  0.1811  0.3425  0.2379
  352TIP3    H122471   0.320   6.140  14.511 -0.7405  0.2429  0.6498
  352TIP3    H222472   0.231   6.259  14.483  1.1560  1.2374 -1.4703
  353TIP3   OH222473   1.648   0.981   4.447 -0.1691 -0.1351 -0.8745
  353TIP3    H122474   1.634   1.025   4.363  0.0236  1.8729  0.0882
  353TIP3    H222475   1.715   1.034   4.491  0.8147 -1.9699 -0.0128
  354TIP3   OH222476   1.071   5.741   2.502  0.0382  0.3113  0.4332
  354TIP3    H122477   1.000   5.804   2.514 -0.5201 -0.1968 -0.1428
  354TIP3    H222478   1.101   5.756   2.412 -0.2874 -0.4409  0.1980
  355TIP3   OH222479   1.518   5.830   1.301 -0.6108  0.3068 -0.0709
  355TIP3    H122480   1.585   5.803   1.364 -0.1931  2.6476  0.6116
  355TIP3    H222481   1.517   5.761   1.235  1.7157 -0.3426  0.4740
  356TIP3   OH222482   0.839   3.405  15.991  0.1072 -1.0444  0.0534
  356TIP3    H122483   0.881   3.492  15.990  0.7258 -1.2747  1.7140
  356TIP3    H222484   0.824   3.384  15.899  1.3665  0.1591 -0.4656
  357TIP3   OH222485   5.582   6.391  13.898  0.2398  0.1475 -0.0197
  357TIP3    H122486   5.633   6.406  13.978 -0.2970  0.4211  0.2817
  357TIP3    H222487   5.593   6.471  13.847 -0.1039  0.3137  0.1670
  358TIP3   OH222488   3.725   2.873  15.301 -0.1637 -0.1662 -0.1714
  358TIP3    H122489   3.769   2.890  15.384 -1.8867  0.7879  0.6041
  358TIP3    H222490   3.669   2.949  15.287 -2.9486 -2.0580 -0.1294
  359TIP3   OH222491   5.076   3.956   5.754  0.0681 -0.0991  0.0397
  359TIP3    H122492   5.109   3.957   5.844  0.8510  0.0333 -0.2396
  359TIP3    H222493   4.981   3.948   5.763 -0.0331  1.6848  0.9150
  360TIP3   OH222494   0.651   3.220  11.114  0.3784  0.1141 -0.1478
  360TIP3    H122495   0.739   3.229  11.149  0.1504  3.5473 -0.1812
  360TIP3    H222496   0.659   3.240  11.021 -0.1221 -2.0577 -0.7247
  361TIP3   OH222497   2.461   5.267  12.493  0.1828 -0.0827  0.5024
  361TIP3    H122498   2.413   5.349  12.507  0.7621  0.1314  1.3026
  361TIP3    H222499   2.437   5.240  12.404 -5.2865 -2.5433  2.2551
  362TIP3   OH222500   2.516   0.713  12.001  0.0737  0.0784  0.5171
  362TIP3    H122501   2.543   0.776  11.934  1.5977  0.3491  1.3212
  362TIP3    H222502   2.425   0.735  12.019  0.3647  1.6266  0.2767
  363TIP3   OH222503   0.345   2.510  15.766 -0.1613 -0.4581 -0.4775
  363TIP3    H122504   0.373   2.511  15.675  2.8353  0.1572  0.3532
  363TIP3    H222505   0.413   2.461  15.812 -0.5476  0.8819  1.6876
  364TIP3   OH222506   6.398   0.966  11.292 -0.0040  0.0628 -0.0213
  364TIP3    H122507   6.457   0.968  11.217  1.2960  2.3655  0.9799
  364TIP3    H222508   6.313   0.993  11.256 -0.5417 -2.9991 -1.4110
  365TIP3   OH222509   0.021   6.754   3.873 -0.2987  0.2470 -0.0419
  365TIP3    H122510   0.101   6.747   3.926 -1.2005 -0.4401  1.2818
  365TIP3    H222511   0.024   6.677   3.816 -0.0937  0.1393  0.1110
  366TIP3   OH222512   6.388   5.026  14.459 -0.1730  0.1430 -0.5982
  366TIP3    H122513   6.446   5.046  14.532  1.3575 -1.5778 -1.2548
  366TIP3    H222514   6.346   4.943  14.484  0.6745 -0.6773 -1.7828
  367TIP3   OH222515   3.019   6.213  17.076  0.1021 -0.1833 -0.2579
  367TIP3    H122516   3.045   6.144  17.016 -0.0732 -0.5543  0.0838
  367TIP3    H222517   3.049   6.183  17.162  1.3830  0.8855 -0.3112
  368TIP3   OH222518   1.898   1.111  11.114  0.1062  0.2744 -0.3833
  368TIP3    H122519   1.867   1.020  11.123  1.4376 -0.0939  0.9793
  368TIP3    H222520   1.904   1.142  11.205 -2.9072  2.7013 -0.8622
  369TIP3   OH222521   6.032   6.790   1.617 -0.6761  0.1142  0.9860
  369TIP3    H122522   5.971   6.726   1.655 -1.0574  0.6917  1.3669
  369TIP3    H222523   6.032   6.863   1.679 -0.3036  0.5151  0.5231
  370TIP3   OH222524   1.694   6.421  12.767 -0.2147  0.0066  0.0566
  370TIP3    H122525   1.654   6.399  12.852 -1.8439  0.1402 -0.6259
  370TIP3    H222526   1.662   6.354  12.707 -0.0022  0.5612 -0.6898
  371TIP3   OH222527   2.431   2.220  11.131  0.3872  0.2331  0.0348
  371TIP3    H122528   2.391   2.278  11.196 -0.5981  0.5346 -0.8148
  371TIP3    H222529   2.459   2.278  11.061 -1.8634 -0.3744 -1.4684
  372TIP3   OH222530   0.989   0.431  13.340 -0.2133 -0.1248  0.6891
  372TIP3    H122531   1.016   0.449  13.250 -0.7717  1.6703  0.8574
  372TIP3    H222532   0.897   0.454  13.343 -0.2007 -0.1637  1.7338
  373TIP3   OH222533   0.301   1.001   1.324  0.3490 -0.3609 -0.7696
  373TIP3    H122534   0.224   0.943   1.328  0.1034 -0.0816 -1.2497
  373TIP3    H222535   0.369   0.954   1.371 -0.5758  0.1234  1.1276
  374TIP3   OH222536   2.649   6.688  11.979  0.2626 -0.0245  0.7868
  374TIP3    H122537   2.710   6.659  12.048  1.4001 -0.7558 -0.4726
  374TIP3    H222538   2.651   6.784  11.985  0.1094 -0.0762  1.9519
  375TIP3   OH222539   2.160   6.218   4.740 -0.3484  0.2729 -0.1826
  375TIP3    H122540   2.080   6.258   4.709 -1.4755 -1.8377 -0.2085
  375TIP3    H222541   2.163   6.239   4.833  0.5330  2.6051 -0.6803
  376TIP3   OH222542   1.085   1.525  11.395  0.2464  0.1038  0.1026
  376TIP3    H122543   1.150   1.581  11.353 -2.4638  1.8269 -2.1713
  376TIP3    H222544   1.114   1.436  11.374  1.9037  0.8069 -0.7739
  377TIP3   OH222545   5.511   3.505  13.366 -0.2208  0.4501  0.3612
  377TIP3    H122546   5.507   3.583  13.422 -0.1079  0.8769 -0.2178
  377TIP3    H222547   5.423   3.468  13.370 -0.0014  0.0093  1.4742
  378TIP3   OH222548   6.508   5.613  11.146  0.7553  0.0464 -0.1478
  378TIP3    H122549   6.582   5.564  11.182  0.7326 -1.0287 -1.4756
  378TIP3    H222550   6.436   5.597  11.207  0.8505 -1.3028 -0.3617
  379TIP3   OH222551   5.004   1.252   4.117 -0.8083 -0.1726  0.1411
  379TIP3    H122552   5.008   1.216   4.206 -0.4638 -1.5215 -0.4105
  379TIP3    H222553   5.095   1.274   4.096 -0.8850  0.1088  0.0939
  380TIP3   OH222554   2.980   0.588  13.223  0.1606 -0.1931 -0.3533
  380TIP3    H122555   3.033   0.657  13.262 -0.3123  0.0016 -0.0431
  380TIP3    H222556   2.890   0.619  13.233 -0.0574 -0.8609 -0.1956
  381TIP3   OH222557   5.239   3.409   5.134 -0.0821  0.0787 -0.5151
  381TIP3    H122558   5.224   3.424   5.227  0.4705 -1.6844 -0.0894
  381TIP3    H222559   5.207   3.320   5.119 -1.6551  0.8943 -2.4052
  382TIP3   OH222560   6.390   3.697   1.053 -0.5849  0.0896  0.4605
  382TIP3    H122561   6.443   3.736   1.123 -2.0473  2.2801  0.4323
  382TIP3    H222562   6.397   3.759   0.980 -0.8507 -1.0589 -0.5692
  383TIP3   OH222563   1.249   6.361  12.605 -0.1076  0.1588  0.2631
  383TIP3    H122564   1.237   6.340  12.697  0.8098  0.0412  0.3616
  383TIP3    H222565   1.312   6.433  12.604 -0.5200  0.5226 -0.2475
  384TIP3   OH222566   2.395   3.394  15.499  0.0279 -0.2831 -0.9866
  384TIP3    H122567   2.366   3.318  15.448 -0.2917 -0.4492 -0.5667
  384TIP3    H222568   2.421   3.459  15.434  0.8257 -0.9474 -1.3524
  385TIP3   OH222569   4.271   6.524  13.642  0.0981  0.4601  0.3883
  385TIP3    H122570   4.232   6.605  13.607 -0.3441  1.1368  2.3253
  385TIP3    H222571   4.200   6.483  13.692 -0.7087 -2.8430 -3.0221
  386TIP3   OH222572   3.205   4.782  12.447  0.7721  0.0368 -0.1290
  386TIP3    H122573   3.177   4.790  12.356  2.3164  1.6407 -0.5168
  386TIP3    H222574   3.128   4.750  12.493  0.1885 -1.6188 -2.1069
  387TIP3   OH222575   6.396   0.648  16.372  0.4571  0.0958  0.1850
  387TIP3    H122576   6.389   0.556  16.346  1.4955 -0.0138  0.2345
  387TIP3    H222577   6.486   0.657  16.405  0.1052  0.9284  0.9863
  388TIP3   OH222578   4.195   6.507   3.924  0.5751  0.5660 -0.4472
  388TIP3    H122579   4.100   6.515   3.916  0.5845  0.2754 -0.8822
  388TIP3    H222580   4.229   6.524   3.836  0.8465 -0.3269 -0.5321
  389TIP3   OH222581   4.973   5.063  14.518 -0.3486 -0.0731 -0.4839
  389TIP3    H122582   5.055   5.042  14.563 -0.2466  1.3096  0.0254
  389TIP3    H222583   4.961   5.157  14.532 -0.2091  0.5082 -3.5105
  390TIP3   OH222584   4.106   3.003  15.738  0.1180  0.0515 -0.0085
  390TIP3    H122585   4.153   2.923  15.762 -0.2014  0.5810  2.7319
  390TIP3    H222586   4.151   3.073  15.786 -2.4970  0.7770  1.6120
  391TIP3   OH222587   6.355   1.905  15.271 -0.1746  0.2151  0.2656
  391TIP3    H122588   6.387   1.875  15.186 -0.6918  0.1274  0.1011
  391TIP3    H222589   6.266   1.871  15.277  0.1504 -0.5021  1.2198
  392TIP3   OH222590   3.210   1.440   1.903  0.5760  0.3514  0.0703
  392TIP3    H122591   3.142   1.478   1.958  0.3188 -2.0810  1.5406
  392TIP3    H222592   3.247   1.515   1.856 -1.3242  2.0817  1.1840
  393TIP3   OH222593   4.760   3.700  11.840  0.4181  0.1521 -0.4403
  393TIP3    H122594   4.836   3.650  11.808  0.7416 -0.1164  0.6778
  393TIP3    H222595   4.791   3.739  11.922 -0.6674 -0.0062  0.0602
  394TIP3   OH222596   6.375   3.112   0.498  0.1906 -0.2656 -0.1403
  394TIP3    H122597   6.313   3.184   0.509  0.0364 -0.2589 -0.9505
  394TIP3    H222598   6.359   3.054   0.573 -0.4149  0.0147 -0.0472
  395TIP3   OH222599   2.012   5.736  11.585  0.2235  0.8551 -0.5784
  395TIP3    H122600   2.092   5.779  11.616 -0.8963  2.0361  0.8035
  395TIP3    H222601   2.020   5.737  11.489  2.0762  0.4592 -0.4770
  396TIP3   OH222602   5.816   1.957  14.419 -0.0350 -0.1732 -0.4732
  396TIP3    H122603   5.816   1.984  14.511  0.8668 -2.9849  0.4424
  396TIP3    H222604   5.757   1.882  14.415 -2.7496  1.8639 -2.9694
  397TIP3   OH222605   6.005   5.826   4.653 -0.2380  0.0570 -0.5769
  397TIP3    H122606   6.036   5.814   4.564  2.2503 -1.8607  0.4462
  397TIP3    H222607   5.913   5.801   4.650 -0.6737  1.6280 -2.8711
  398TIP3   OH222608   5.054   1.779   2.807  0.4403  0.7042  0.1258
  398TIP3    H122609   4.996   1.706   2.828 -0.4087  0.7363 -1.9325
  398TIP3    H222610   5.012   1.824   2.734  1.5182  2.5943  0.5903
  399TIP3   OH222611   0.932   3.387  14.039 -0.1569  0.4554  0.0843
  399TIP3    H122612   0.955   3.342  13.957  0.0915 -0.2414  0.5279
  399TIP3    H222613   0.881   3.324  14.088 -1.5576  1.3856 -0.1295
  400TIP3   OH222614   2.093   1.625  16.089 -0.2879  0.8034  0.6485
  400TIP3    H122615   2.179   1.584  16.084 -0.9816 -0.8339  1.1791
  400TIP3    H222616   2.079   1.642  16.182  0.1155  2.6243  0.4092
  401TIP3   OH222617   4.437   2.346   3.879  0.0126 -0.0406 -0.3599
  401TIP3    H122618   4.363   2.290   3.902 -0.7826 -0.3258 -3.2434
  401TIP3    H222619   4.490   2.292   3.821  2.6053  0.1374  1.6759
  402TIP3   OH222620   3.577   4.620   1.773  0.7128  0.0750 -0.8336
  402TIP3    H122621   3.568   4.541   1.826  0.1889 -0.8889 -2.2840
  402TIP3    H222622   3.671   4.637   1.771  0.6814  0.7056  1.1490
  403TIP3   OH222623   0.899   2.177   5.527  0.1838  0.0285 -0.1210
  403TIP3    H122624   0.819   2.201   5.573  0.4625  1.8389 -0.5102
  403TIP3    H222625   0.939   2.109   5.582 -0.9249  0.0657  0.7649
  404TIP3   OH222626   5.545   4.447  12.476  0.4852 -0.4184  0.2527
  404TIP3    H122627   5.454   4.466  12.499 -0.2951 -1.5275 -1.6923
  404TIP3    H222628   5.547   4.353  12.460  1.9744 -0.4031  0.1582
  405TIP3   OH222629   3.586   6.152  14.620 -0.3403 -0.1777 -0.2635
  405TIP3    H122630   3.607   6.175  14.710  2.0891 -0.9266 -0.5659
  405TIP3    H222631   3.620   6.224  14.568  0.0279 -0.6434 -0.6823
  406TIP3   OH222632   5.540   1.831   0.939  0.1256  0.3791 -0.0007
  406TIP3    H122633   5.609   1.766   0.933  1.4377  1.6524  0.6965
  406TIP3    H222634   5.574   1.898   0.999 -1.9903  0.7158  0.9350
  407TIP3   OH222635   5.710   2.027   1.119  0.2189  0.1735  0.0020
  407TIP3    H122636   5.652   2.097   1.090  0.7770  1.0118  0.8559
  407TIP3    H222637   5.796   2.051   1.083  0.5893  0.3959  1.0069
  408TIP3   OH222638   2.532   3.026  12.013  0.0629  0.2469 -0.6775
  408TIP3    H122639   2.624   3.053  12.006  0.0234  0.1189 -2.2093
  408TIP3    H222640   2.500   3.031  11.923 -0.8339 -1.7743 -0.5220
  409TIP3   OH222641   3.803   5.605  14.309 -0.4532  0.3230 -0.4437
  409TIP3    H122642   3.870   5.587  14.375 -1.8348 -1.3718  0.5828
  409TIP3    H222643   3.785   5.520  14.269 -3.3360  0.2665  0.7153
  410TIP3   OH222644   1.553   1.730  14.613 -0.1430 -0.0295  0.0300
  410TIP3    H122645   1.475   1.768  14.654 -1.2081 -2.8244  0.7870
  410TIP3    H222646   1.544   1.751  14.520 -1.2248  0.5778  0.2561
  411TIP3   OH222647   4.417   3.322   3.518 -0.2771 -0.1875 -0.0546
  411TIP3    H122648   4.358   3.275   3.578 -0.2607  0.8806  0.8334
  411TIP3    H222649   4.425   3.265   3.442 -3.2615  0.0846 -0.6644
  412TIP3   OH222650   4.486   0.155  15.953 -0.4589  0.0035  0.1517
  412TIP3    H122651   4.392   0.143  15.969 -1.3569  3.7511 -1.1722
  412TIP3    H222652   4.503   0.107  15.872 -1.0023 -1.3178  0.7882
  413TIP3   OH222653   0.326   1.758  11.150 -0.2169  0.0642  0.5773
  413TIP3    H122654   0.329   1.824  11.220 -1.9736 -0.1048  0.8439
  413TIP3    H222655   0.318   1.675  11.196 -0.9133 -0.0879  0.1781
  414TIP3   OH222656   6.771   5.993  16.395  0.1443 -0.0605  0.7648
  414TIP3    H122657   6.769   6.085  16.421  0.3992  0.1305  0.1377
  414TIP3    H222658   6.798   5.995  16.303  0.2278 -0.7691  0.7679
  415TIP3   OH222659   2.160   4.899  11.492  0.7525 -0.2875 -0.1848
  415TIP3    H122660   2.078   4.898  11.542  0.0851 -0.7611 -1.2668
  415TIP3    H222661   2.196   4.811  11.504 -1.4097 -1.8277 -3.6880
  416TIP3   OH222662   0.705   6.039  15.970  0.5185  0.4876 -0.1733
  416TIP3    H122663   0.700   6.000  16.058 -3.0290  0.4955 -0.2219
  416TIP3    H222664   0.706   5.964  15.911 -1.0986  0.4072 -0.1474
  417TIP3   OH222665   3.927   1.567  13.584  0.3080  0.0674  0.3664
  417TIP3    H122666   3.919   1.590  13.676  0.8549  3.2638 -0.2855
  417TIP3    H222667   3.941   1.650  13.539  2.9968 -1.6487 -2.3105
  418TIP3   OH222668   6.251   1.487  12.583 -0.1414  0.4556  0.0713
  418TIP3    H122669   6.327   1.543  12.568  0.2176  0.3715  1.4526
  418TIP3    H222670   6.204   1.487  12.500  0.9678  1.1169 -0.5710
  419TIP3   OH222671   2.665   3.949  15.283  0.4800 -0.3109 -0.4326
  419TIP3    H122672   2.711   3.943  15.366 -0.9218 -0.5712  0.3519
  419TIP3    H222673   2.666   3.859  15.249 -1.0280 -0.7284  0.5042
  420TIP3   OH222674   4.916   2.488   1.483 -0.4104 -0.8376  0.2964
  420TIP3    H122675   4.886   2.482   1.392  1.8152  0.9883 -0.6619
  420TIP3    H222676   4.837   2.506   1.533 -1.5208 -0.4830 -1.4726
  421TIP3   OH222677   3.008   2.185   4.976  0.4991 -0.5839 -0.5194
  421TIP3    H122678   2.988   2.272   4.942  0.3578 -0.5171 -0.2688
  421TIP3    H222679   3.094   2.194   5.017  1.3310 -1.0162 -2.1175
  422TIP3   OH222680   2.516   3.248   5.237  0.4704 -0.4104 -0.0864
  422TIP3    H122681   2.474   3.287   5.160  0.7977  0.4035  0.1382
  422TIP3    H222682   2.578   3.185   5.201  0.2842 -0.3786 -0.4735
  423TIP3   OH222683   1.222   3.812  11.404 -0.0167  0.2637 -0.1417
  423TIP3    H122684   1.250   3.736  11.353 -0.4596  0.9076 -1.3901
  423TIP3    H222685   1.300   3.836  11.455  1.1912  0.8933 -2.1587
  424TIP3   OH222686   6.364   6.175   0.642  0.0222  0.2024 -0.5402
  424TIP3    H122687   6.309   6.251   0.624 -2.1599 -1.3372 -0.7879
  424TIP3    H222688   6.370   6.171   0.737  0.6871  1.0241 -0.5413
  425TIP3   OH222689   2.044   1.697   4.171 -0.5435  0.0307 -0.8906
  425TIP3    H122690   1.978   1.692   4.239 -0.5917 -0.8270 -0.9934
  425TIP3    H222691   2.126   1.712   4.218 -0.8918  1.9481 -0.8146
  426TIP3   OH222692   1.255   4.145  14.292  0.1759  0.3764  0.1053
  426TIP3    H122693   1.208   4.184  14.366 -0.3513 -1.5035  0.8216
  426TIP3    H222694   1.320   4.088  14.333  3.0779  2.7239 -0.8530
  427TIP3   OH222695   4.410   0.681   1.606  0.3249 -0.3990 -0.7872
  427TIP3    H122696   4.465   0.605   1.593  1.1973 -0.2077  1.2731
  427TIP3    H222697   4.460   0.754   1.571  2.5456  0.0943  2.8614
  428TIP3   OH222698   2.912   1.887   3.512 -0.0199 -0.3777  0.1598
  428TIP3    H122699   2.891   1.971   3.471  0.2973  0.2576  1.2668
  428TIP3    H222700   3.006   1.876   3.498  0.1034 -0.1217  0.7714
  429TIP3   OH222701   2.775   4.928  17.026  0.0127 -0.1661 -0.1250
  429TIP3    H122702   2.863   4.910  17.059  0.4089  0.0331 -1.0329
  429TIP3    H222703   2.731   4.973  17.099  0.9507  0.5143  0.0462
  430TIP3   OH222704   4.286   3.033  13.132  0.1904  0.3285 -0.3210
  430TIP3    H122705   4.257   3.015  13.043 -0.2734  0.5630 -0.2212
  430TIP3    H222706   4.378   3.007  13.133  0.1602  0.1911 -0.8270
  431TIP3   OH222707   3.182   3.501   1.239 -0.2328  0.2860  0.5227
  431TIP3    H122708   3.173   3.566   1.308 -0.3974 -1.2994  2.0502
  431TIP3    H222709   3.106   3.516   1.182  0.5056  2.3447 -0.0443
  432TIP3   OH222710   6.666   6.092  15.864  0.3906 -0.3154  0.0199
  432TIP3    H122711   6.762   6.088  15.860  0.4790  1.3099 -0.4342
  432TIP3    H222712   6.638   6.089  15.773  0.0292 -0.4935  0.1364
  433TIP3   OH222713   5.207   5.768  14.144  0.2338 -0.5845 -0.1550
  433TIP3    H122714   5.180   5.848  14.098 -1.6012 -1.3003 -0.4308
  433TIP3    H222715   5.196   5.699  14.079  0.3733 -1.2502  0.5171
  434TIP3   OH222716   0.197   0.883  14.245 -0.1301 -0.5114 -0.2819
  434TIP3    H122717   0.135   0.877  14.172 -1.3830  0.4090  0.6514
  434TIP3    H222718   0.190   0.799  14.290 -1.5614 -0.0567  0.4284
  435TIP3   OH222719   6.736   2.219  16.064 -0.2630  0.1789 -0.4282
  435TIP3    H122720   6.810   2.277  16.051  1.1974 -1.6721 -0.8524
  435TIP3    H222721   6.722   2.217  16.158  0.4211  0.3227 -0.3209
  436TIP3   OH222722   3.581   2.312  12.342  0.0014  0.0731  0.3128
  436TIP3    H122723   3.509   2.256  12.312 -0.3041 -0.3404  1.7573
  436TIP3    H222724   3.636   2.324  12.264 -1.9818  0.9882 -1.0280
  437TIP3   OH222725   1.030   0.490  15.155 -0.5443  0.6009  0.0610
  437TIP3    H122726   0.950   0.487  15.103 -0.6162  2.0741  0.0402
  437TIP3    H222727   1.001   0.472  15.245 -0.5954 -0.7603 -0.2141
  438TIP3   OH222728   3.605   4.327   5.038 -0.1674  0.0176 -0.1974
  438TIP3    H122729   3.560   4.251   5.076 -0.4784 -0.1311 -0.8516
  438TIP3    H222730   3.628   4.300   4.950  0.7745  0.2776 -0.0398
  439TIP3   OH222731   5.523   6.192  11.850  0.1634 -0.1281  0.2604
  439TIP3    H122732   5.594   6.128  11.857  0.6586  0.4675  0.8030
  439TIP3    H222733   5.448   6.141  11.820  1.0710 -0.5884 -1.3587
  440TIP3   OH222734   3.258   4.970  15.546 -0.2077 -0.5289 -0.1700
  440TIP3    H122735   3.229   5.012  15.627  2.3146  2.1605 -0.4932
  440TIP3    H222736   3.281   4.881  15.572 -1.4558 -0.4163  1.5640
  441TIP3   OH222737   3.929   4.419  16.895  0.1499  0.0488 -0.9201
  441TIP3    H122738   3.870   4.465  16.955  0.8486 -0.5098  0.2161
  441TIP3    H222739   3.879   4.414  16.813 -0.1533  2.3898 -0.9631
  442TIP3   OH222740   6.289   4.532   0.864  0.5302  0.1788 -0.3293
  442TIP3    H122741   6.338   4.513   0.784  1.6527 -2.3059  0.8392
  442TIP3    H222742   6.212   4.476   0.859 -0.8480  2.0350 -0.8656
  443TIP3   OH222743   2.757   5.373   1.936 -0.0400  0.3130  0.0312
  443TIP3    H122744   2.840   5.404   1.898  0.3010  1.0020  1.2769
  443TIP3    H222745   2.727   5.446   1.990  0.5931 -1.3001  2.7812
  444TIP3   OH222746   5.943   2.545   2.537 -0.2959 -0.0727 -0.6601
  444TIP3    H122747   5.985   2.628   2.512  1.3468 -0.9835 -1.0677
  444TIP3    H222748   5.911   2.509   2.454 -0.1421 -0.3170 -0.6114
  445TIP3   OH222749   4.849   4.376   4.854 -0.1153  0.9167 -0.0525
  445TIP3    H122750   4.814   4.379   4.764  0.2037  1.0736 -0.1707
  445TIP3    H222751   4.778   4.412   4.908  0.1118  1.8858 -0.3747
  446TIP3   OH222752   0.545   5.026  14.361 -0.8071 -0.1139  0.1872
  446TIP3    H122753   0.618   5.086  14.372 -0.4829 -0.4126 -0.2824
  446TIP3    H222754   0.542   4.976  14.443 -1.9908  1.4977  1.1808
  447TIP3   OH222755   3.035   3.573   2.549 -0.6868 -0.2192  0.2520
  447TIP3    H122756   3.034   3.584   2.644  3.6088  0.7043  0.3992
  447TIP3    H222757   3.097   3.502   2.534 -3.3642 -2.3086 -1.9167
  448TIP3   OH222758   6.727   0.379   0.934 -0.0380 -0.1397 -0.6854
  448TIP3    H122759   6.818   0.355   0.950  0.1281  1.0982  0.3524
  448TIP3    H222760   6.677   0.299   0.952  0.6694 -0.3063  0.6146
  449TIP3   OH222761   5.218   3.042  14.716  0.1833  0.1852  0.5440
  449TIP3    H122762   5.210   3.114  14.780  2.6391  1.6154 -0.6170
  449TIP3    H222763   5.299   2.997  14.742  2.7043  2.3117 -2.7494
  450TIP3   OH222764   5.826   6.349   5.838 -0.2294  0.0565  0.7425
  450TIP3    H122765   5.783   6.416   5.891  0.7967  1.1743  0.2398
  450TIP3    H222766   5.759   6.318   5.777 -1.0609 -0.3108  1.8360
  451TIP3   OH222767   2.923   6.523  10.689 -0.1523 -0.1589 -0.1970
  451TIP3    H122768   2.952   6.576  10.763  0.5550 -0.8356  0.0234
  451TIP3    H222769   2.991   6.457  10.678 -0.5167 -0.4083 -1.1087
  452TIP3   OH222770   2.882   5.380   5.861 -0.6418  0.2473 -0.4637
  452TIP3    H122771   2.833   5.430   5.926  0.4599 -1.1487  1.5168
  452TIP3    H222772   2.968   5.423   5.857 -0.2217 -0.5293  0.0843
  453TIP3   OH222773   6.408   3.306   3.606  0.8057  0.2128  0.3219
  453TIP3    H122774   6.332   3.262   3.643  1.1968 -0.7921 -0.0179
  453TIP3    H222775   6.378   3.340   3.522  0.0557  2.0536  1.2873
  454TIP3   OH222776   6.589   4.568  14.146  0.3882  0.2276  0.1824
  454TIP3    H122777   6.653   4.525  14.203  0.8857  1.1053  0.3165
  454TIP3    H222778   6.567   4.503  14.080  0.3920 -0.5479  0.9283
  455TIP3   OH222779   4.083   2.004  12.196  0.1834 -0.1629 -0.3813
  455TIP3    H122780   4.107   1.992  12.287 -0.0432 -1.0333 -0.4204
  455TIP3    H222781   4.165   1.997  12.147  0.3530  0.6723 -0.2151
  456TIP3   OH222782   4.534   5.579  12.362 -0.0963  0.0764  1.2646
  456TIP3    H122783   4.623   5.614  12.354  0.0656 -0.2118  1.7811
  456TIP3    H222784   4.509   5.597  12.452 -0.7883  0.6705  0.9681
  457TIP3   OH222785   5.925   6.551   2.256 -0.5974  0.6236  0.3372
  457TIP3    H122786   5.888   6.628   2.298  1.2137  1.1320  1.0946
  457TIP3    H222787   6.009   6.581   2.221 -0.6540 -0.5792 -0.8983
  458TIP3   OH222788   1.952   0.785  10.524 -0.5098  0.4560  0.6969
  458TIP3    H122789   2.023   0.811  10.465 -1.8221  1.3668 -0.5656
  458TIP3    H222790   1.950   0.690  10.519  0.6688  0.4015  0.8489
  459TIP3   OH222791   4.857   6.205  11.780  1.2292 -0.6002 -0.6843
  459TIP3    H122792   4.862   6.293  11.818  2.1306 -0.1741 -1.7483
  459TIP3    H222793   4.933   6.199  11.722 -1.1585 -0.4528 -4.0837
  460TIP3   OH222794   2.947   4.693  12.546  0.7659  0.0523 -0.6209
  460TIP3    H122795   2.859   4.720  12.524  0.4693  0.0291  0.4842
  460TIP3    H222796   2.951   4.601  12.518  0.1380 -0.2146  0.1315
  461TIP3   OH222797   1.834   1.557   3.122  0.1696  0.0128 -0.4188
  461TIP3    H122798   1.743   1.546   3.150  0.2850  1.2089  0.5393
  461TIP3    H222799   1.875   1.472   3.139 -0.0385  0.3374  2.1742
  462TIP3   OH222800   2.064   2.036   5.235  0.0324 -0.2590 -0.3341
  462TIP3    H122801   2.036   1.945   5.237 -1.0423  0.0554 -0.1448
  462TIP3    H222802   2.020   2.073   5.158  1.1869 -0.1126 -0.9448
  463TIP3   OH222803   5.096   1.548   3.173  0.3243 -0.4318 -0.0589
  463TIP3    H122804   5.184   1.514   3.161  0.6921 -0.6376  2.6647
  463TIP3    H222805   5.039   1.473   3.160  0.5741 -0.4642 -1.0588
  464TIP3   OH222806   5.345   5.512  16.739 -0.4205  0.1157  0.4319
  464TIP3    H122807   5.284   5.466  16.796  0.3335 -0.3817  0.8593
  464TIP3    H222808   5.431   5.476  16.762 -0.1594 -0.6923 -1.5716
  465TIP3   OH222809   4.915   5.791   2.425 -0.1071  0.3492 -0.3679
  465TIP3    H122810   4.868   5.868   2.458  0.4792  1.1356 -1.3137
  465TIP3    H222811   4.947   5.818   2.339  1.0235 -0.5963 -0.2601
  466TIP3   OH222812   3.401   3.268  13.271 -0.2910 -0.3538 -0.3438
  466TIP3    H122813   3.367   3.224  13.349 -2.3165  0.6096 -0.6182
  466TIP3    H222814   3.398   3.361  13.292  1.8452 -0.1703 -0.5826
  467TIP3   OH222815   6.264   0.501   0.306 -0.0050  0.5687 -0.3477
  467TIP3    H122816   6.352   0.526   0.280 -0.3898  2.7294  0.1903
  467TIP3    H222817   6.254   0.537   0.394 -1.2231 -0.1720 -0.1567
  468TIP3   OH222818   5.560   5.812  14.079  0.2954  0.2689 -0.2258
  468TIP3    H122819   5.510   5.735  14.049  2.1495 -1.6258  1.2636
  468TIP3    H222820   5.498   5.861  14.133 -0.9104 -0.1875 -1.1393
  469TIP3   OH222821   5.115   0.526   2.040  0.1974  0.8012 -0.0536
  469TIP3    H122822   5.106   0.486   2.126  1.1000  0.3668 -0.1492
  469TIP3    H222823   5.106   0.620   2.056 -3.6976  0.5860 -0.0574
  470TIP3   OH222824   0.550   1.281  13.142 -0.0933  0.0521  0.0078
  470TIP3    H122825   0.491   1.229  13.087  0.0233  0.6457 -0.6911
  470TIP3    H222826   0.539   1.244  13.230 -0.2101 -0.9781 -0.4230
  471TIP3   OH222827   6.296   3.578  10.898  0.4241  0.5471  0.1052
  471TIP3    H122828   6.281   3.599  10.990  1.4520 -0.6496  0.5878
  471TIP3    H222829   6.209   3.565  10.861  0.0273  0.3681  1.0842
  472TIP3   OH222830   2.632   5.479  13.937 -0.1356 -0.0387  0.1300
  472TIP3    H122831   2.622   5.562  13.983 -1.0055 -0.0680 -0.0028
  472TIP3    H222832   2.553   5.471  13.884 -0.5511 -1.4468  0.9286
  473TIP3   OH222833   3.199   2.062  11.620 -0.6457  0.1981  0.7929
  473TIP3    H122834   3.290   2.041  11.640 -1.1116 -0.5185  2.3191
  473TIP3    H222835   3.196   2.157  11.617  0.7413  0.2741 -2.4168
  474TIP3   OH222836   1.950   5.445  15.894  0.0746  0.2724 -0.6477
  474TIP3    H122837   1.861   5.420  15.916 -0.1189 -0.2850 -1.9652
  474TIP3    H222838   1.940   5.519  15.834  0.4842  0.0412 -1.0069
  475TIP3   OH222839   1.541   3.624   5.014  0.3572  0.3850  0.2117
  475TIP3    H122840   1.551   3.715   4.986  0.0553  0.7011  1.0814
  475TIP3    H222841   1.598   3.616   5.090  0.1183 -0.0550  0.3511
  476TIP3   OH222842   1.551   1.393   6.310 -0.1355  0.5577  1.1848
  476TIP3    H122843   1.464   1.424   6.285 -1.6927 -2.6209  2.1621
  476TIP3    H222844   1.558   1.306   6.270  1.6441 -0.2367  3.0432
  477TIP3   OH222845   6.267   3.418   0.604  0.2856 -0.2195 -0.7251
  477TIP3    H122846   6.184   3.434   0.649 -0.4594  2.0199 -2.7099
  477TIP3    H222847   6.332   3.466   0.655  0.2129 -1.0775  0.2110
  478TIP3   OH222848   3.348   4.177  14.182 -0.1955  0.0221  0.5198
  478TIP3    H122849   3.373   4.232  14.257  0.9379 -1.3129  1.1604
  478TIP3    H222850   3.431   4.147  14.145 -0.7833 -0.9394 -0.0660
  479TIP3   OH222851   1.605   0.700   2.052  0.7485  0.0383  0.0413
  479TIP3    H122852   1.686   0.743   2.077  1.4669 -2.8322  3.4304
  479TIP3    H222853   1.577   0.652   2.130 -1.8385 -2.6392 -2.2377
  480TIP3   OH222854   5.027   0.751  12.900  0.3021 -0.0026 -0.1241
  480TIP3    H122855   5.099   0.716  12.953 -1.1544 -1.5069  0.9764
  480TIP3    H222856   4.948   0.716  12.942 -1.1472  2.4241 -0.6500
  481TIP3   OH222857   4.691   6.684  11.175 -0.0291  0.0190 -0.1129
  481TIP3    H122858   4.768   6.730  11.206  0.4954 -1.2087  0.4665
  481TIP3    H222859   4.724   6.601  11.140 -0.9076  0.1877 -1.4435
  482TIP3   OH222860   6.683   1.780  16.667 -0.3800 -0.1688  0.1676
  482TIP3    H122861   6.708   1.730  16.745  1.4722 -0.9791 -0.8920
  482TIP3    H222862   6.593   1.754  16.650 -0.4110 -0.9054  1.3283
  483TIP3   OH222863   0.656   6.299   1.813  0.5557  0.0003  0.2325
  483TIP3    H122864   0.617   6.365   1.871 -0.1336 -0.1868 -0.0056
  483TIP3    H222865   0.749   6.297   1.838  0.1814 -0.4598  1.7283
  484TIP3   OH222866   1.455   1.601  11.995  0.1677 -0.0990 -0.1525
  484TIP3    H122867   1.517   1.672  11.983 -0.9957  1.0826  0.6321
  484TIP3    H222868   1.375   1.643  12.026 -0.2708 -1.8503  1.2494
  485TIP3   OH222869   0.571   6.706  14.864  0.3039 -0.0143  0.2657
  485TIP3    H122870   0.619   6.771  14.811 -0.4867 -0.0940 -0.5751
  485TIP3    H222871   0.518   6.759  14.924  1.8045  0.0739  1.5819
  486TIP3   OH222872   3.243   1.186   3.716  0.6472 -0.3695 -0.0918
  486TIP3    H122873   3.296   1.160   3.641 -1.1111 -0.1673 -1.4478
  486TIP3    H222874   3.180   1.115   3.727  0.6735 -0.2424  1.0077
  487TIP3   OH222875   0.924   6.656   5.668 -0.5586  0.1087 -0.1429
  487TIP3    H122876   0.948   6.570   5.636  1.1573  1.0730 -1.6579
  487TIP3    H222877   0.961   6.661   5.756  0.9387 -0.0799 -0.7384
  488TIP3   OH222878   6.660   0.541  10.282 -0.0585 -0.0490  0.5122
  488TIP3    H122879   6.625   0.613  10.334  1.0211  1.1530 -0.3442
  488TIP3    H222880   6.749   0.528  10.316 -0.8239 -2.3037  1.9239
  489TIP3   OH222881   5.992   0.589   5.273 -0.4037 -0.2529 -0.3485
  489TIP3    H122882   5.916   0.544   5.310  0.0851 -0.7248  0.1005
  489TIP3    H222883   6.045   0.615   5.349  0.5921 -1.1872 -0.6939
  490TIP3   OH222884   0.697   3.049  11.784 -0.1541  0.0699  0.3281
  490TIP3    H122885   0.751   3.073  11.859 -0.0198 -0.9243  0.5639
  490TIP3    H222886   0.655   3.131  11.758  0.6102  0.6357  0.8260
  491TIP3   OH222887   2.696   3.419   6.616 -0.4817 -0.5673 -0.0981
  491TIP3    H122888   2.711   3.344   6.673  1.6795 -0.2032 -0.0830
  491TIP3    H222889   2.739   3.397   6.534 -0.4170  0.3557 -0.3314
  492TIP3   OH222890   4.952   1.102  11.613 -0.2064  0.5554  0.1187
  492TIP3    H122891   4.864   1.136  11.624  0.0332  0.6897  1.8976
  492TIP3    H222892   4.992   1.159  11.547 -0.9991  1.3658  0.3270
  493TIP3   OH222893   3.111   5.934  14.540  0.6226 -0.0848 -0.5903
  493TIP3    H122894   3.200   5.968  14.547  0.7119 -0.4904  0.3782
  493TIP3    H222895   3.114   5.848  14.582 -0.9706  1.3029  2.7851
  494TIP3   OH222896   3.614   0.087  13.050 -0.1170 -0.1494 -0.0943
  494TIP3    H122897   3.559   0.153  13.092 -0.4980 -0.2393 -0.4398
  494TIP3    H222898   3.552   0.030  13.004  0.2553 -0.3441 -0.3616
  495TIP3   OH222899   0.754   5.944   3.765  0.0853  0.1729  0.1838
  495TIP3    H122900   0.751   5.885   3.839  1.7646  0.8928  0.8615
  495TIP3    H222901   0.788   6.026   3.800 -1.0368  1.2008 -0.9729
  496TIP3   OH222902   4.953   6.712   2.597  0.1729  0.4259  0.5850
  496TIP3    H122903   4.878   6.751   2.641 -0.8401 -2.4652  1.6678
  496TIP3    H222904   4.998   6.662   2.666  1.1928 -0.5411 -0.7190
  497TIP3   OH222905   3.305   0.848  11.298  0.3049 -0.5546  0.4232
  497TIP3    H122906   3.338   0.811  11.380  2.0581 -2.0023 -0.8370
  497TIP3    H222907   3.292   0.772  11.241 -0.1367  0.4692 -0.8926
  498TIP3   OH222908   1.450   2.047  13.563 -0.7130 -0.3971  0.2390
  498TIP3    H122909   1.408   1.961  13.556 -0.2560 -0.7965  1.8755
  498TIP3    H222910   1.395   2.095  13.626 -0.3258  0.0995  0.2040
  499TIP3   OH222911   6.521   2.853   1.868 -0.3371  0.3228 -0.6423
  499TIP3    H122912   6.506   2.830   1.960  1.9471  0.0731 -0.2718
  499TIP3    H222913   6.442   2.899   1.842 -2.4885 -2.4317  0.4542
  500TIP3   OH222914   0.062   4.718  15.955 -0.6118  0.0362  0.2449
  500TIP3    H122915   0.000   4.645  15.952 -0.7788  0.2051 -1.1846
  500TIP3    H222916   0.136   4.690  15.902 -1.0896  1.2276 -1.1354
  501TIP3   OH222917   0.825   3.004   2.763 -0.0580  0.1988 -0.2502
  501TIP3    H122918   0.905   2.978   2.717 -0.8202  0.6129 -1.8626
  501TIP3    H222919   0.853   3.015   2.854  1.6238 -0.0953 -0.6962
  502TIP3   OH222920   6.060   2.692   4.673 -0.1842 -0.0156  0.0599
  502TIP3    H122921   5.989   2.644   4.632 -0.7803  0.2976  0.7008
  502TIP3    H222922   6.101   2.629   4.732  0.9800 -0.6075 -1.3330
  503TIP3   OH222923   1.021   6.083   1.753 -0.9658 -0.2429  0.0567
  503TIP3    H122924   0.939   6.042   1.780 -0.9591 -0.8987 -0.8638
  503TIP3    H222925   1.037   6.049   1.665  1.3071 -1.7138  0.9492
  504TIP3   OH222926   1.228   3.976  16.991 -0.3551  0.1795  0.8774
  504TIP3    H122927   1.182   3.906  16.945  2.7615 -1.7188  0.3563
  504TIP3    H222928   1.304   3.994  16.936 -0.1201  2.7951  1.9257
  505TIP3   OH222929   2.752   1.404   0.672  0.3793  0.2300 -0.7982
  505TIP3    H122930   2.840   1.442   0.667  0.3127  0.3657 -0.9724
  505TIP3    H222931   2.714   1.443   0.751  0.3547  0.4345 -0.9092
  506TIP3   OH222932   1.550   5.393  16.865 -0.5652  0.0363 -0.0451
  506TIP3    H122933   1.643   5.398  16.889 -0.7042 -1.2882  0.9110
  506TIP3    H222934   1.537   5.464  16.803  1.7913 -1.5545 -2.5805
  507TIP3   OH222935   5.850   5.495   0.242  0.5889  0.5803 -0.1730
  507TIP3    H122936   5.897   5.548   0.177  3.0782  0.0830  1.0903
  507TIP3    H222937   5.882   5.406   0.227  0.0188  0.2212  0.7295
  508TIP3   OH222938   3.486   0.864   1.202  0.3301  0.3267  0.0325
  508TIP3    H122939   3.562   0.914   1.230  1.6176 -1.0143 -0.9305
  508TIP3    H222940   3.517   0.811   1.128 -1.5177 -0.2964 -0.3657
  509TIP3   OH222941   5.913   5.943  12.302 -0.0140 -0.5416  0.5779
  509TIP3    H122942   5.843   6.007  12.312  0.8365  0.5795 -0.3026
  509TIP3    H222943   5.972   5.961  12.375  0.3438 -0.1416  0.1981
  510TIP3   OH222944   4.684   4.153  13.278  0.3159 -0.3537 -0.0742
  510TIP3    H122945   4.661   4.099  13.203  0.5736 -1.9234  0.9262
  510TIP3    H222946   4.600   4.175  13.318  0.1978  0.1984 -0.6111
  511TIP3   OH222947   4.251   5.414  13.040  0.0762  0.2163  0.4710
  511TIP3    H122948   4.200   5.445  13.115 -1.5297 -0.8017 -0.1634
  511TIP3    H222949   4.265   5.321  13.057 -0.3417 -0.0368 -0.5109
  512TIP3   OH222950   5.169   2.415   4.945  0.0857 -0.7724 -0.0868
  512TIP3    H122951   5.110   2.429   5.019 -0.4918  1.9989 -0.9744
  512TIP3    H222952   5.229   2.346   4.975 -0.1757  0.1754  2.9161
  513TIP3   OH222953   5.907   5.814  15.812 -0.0730  0.0593 -0.3382
  513TIP3    H122954   5.831   5.848  15.764 -0.8860 -0.9451  0.2220
  513TIP3    H222955   5.978   5.813  15.747 -0.2477  1.9167 -0.6232
  514TIP3   OH222956   3.363   1.450  16.941 -0.0523  0.3403  0.2630
  514TIP3    H122957   3.268   1.448  16.952  0.0248 -0.8775  0.8952
  514TIP3    H222958   3.383   1.376  16.885  0.6113 -0.0010  0.9286
  515TIP3   OH222959   3.560   4.507  17.055 -0.6005 -0.4491 -0.2226
  515TIP3    H122960   3.568   4.413  17.039 -1.0663 -0.9004  1.8495
  515TIP3    H222961   3.510   4.513  17.137 -0.0542  1.5864  0.0145
  516TIP3   OH222962   5.870   6.321  11.735 -0.5102 -0.5727  0.0709
  516TIP3    H122963   5.821   6.281  11.664 -1.9374  0.0623  0.6571
  516TIP3    H222964   5.915   6.248  11.777 -1.3104 -1.2424 -0.2198
  517TIP3   OH222965   3.206   0.276  12.409  0.1368  0.0687  0.8736
  517TIP3    H122966   3.179   0.226  12.486  1.1694 -0.3754  0.9661
  517TIP3    H222967   3.241   0.358  12.445  0.0780  0.1116  0.8342
  518TIP3   OH222968   2.684   0.010   0.263  0.0936 -0.2877  0.1024
  518TIP3    H122969   2.709  -0.081   0.245 -0.1817 -0.6686  1.5504
  518TIP3    H222970   2.617   0.004   0.330  0.5736  1.0213  0.7428
  519TIP3   OH222971   1.283   4.661  14.589  0.0828 -0.1146  0.3465
  519TIP3    H122972   1.366   4.708  14.587  0.8725 -1.4451 -2.0219
  519TIP3    H222973   1.308   4.568  14.585 -1.5113 -0.5802  0.4710
  520TIP3   OH222974   2.985   0.643   3.740  0.2198 -0.3736  0.1879
  520TIP3    H122975   2.918   0.574   3.740  1.3033 -1.4742 -0.8346
  520TIP3    H222976   2.936   0.723   3.757 -1.1250 -1.3441  1.1144
  521TIP3   OH222977   0.367   3.211  11.825 -0.1483  0.0841 -0.4448
  521TIP3    H122978   0.318   3.170  11.754  0.0375 -0.7950 -0.0789
  521TIP3    H222979   0.451   3.234  11.785 -0.0439 -0.4084 -0.5274
  522TIP3   OH222980   5.486   4.009   3.456  0.0265 -0.3044  0.0851
  522TIP3    H122981   5.552   4.073   3.430 -1.4366  0.6065 -1.5672
  522TIP3    H222982   5.482   4.016   3.552  0.5252  1.4377  0.0010
  523TIP3   OH222983   0.889   3.098  15.862  0.0913 -0.2578 -0.0211
  523TIP3    H122984   0.929   3.179  15.893 -0.7643  0.2588 -0.2175
  523TIP3    H222985   0.795   3.112  15.872 -0.0675 -1.2971  0.1043
  524TIP3   OH222986   4.319   2.293  14.586 -0.1084  0.4232  0.4967
  524TIP3    H122987   4.408   2.284  14.620  0.2268 -1.7527 -0.7879
  524TIP3    H222988   4.286   2.204  14.579 -2.1548  1.1308  0.2650
  525TIP3   OH222989   2.824   3.405  11.430 -0.1156  0.2745  0.4748
  525TIP3    H122990   2.793   3.446  11.349  1.1968 -1.0566 -0.7552
  525TIP3    H222991   2.912   3.441  11.443 -0.3449  0.5396  1.3798
  526TIP3   OH222992   0.054   1.473   0.089  0.1698 -0.4624  0.5773
  526TIP3    H122993   0.129   1.445   0.140  1.1671  0.1491 -0.4958
  526TIP3    H222994   0.088   1.544   0.034 -1.2230 -0.0965  0.1517
  527TIP3   OH222995   6.432   5.793   3.282  0.1991 -0.8226  0.1192
  527TIP3    H122996   6.516   5.786   3.327 -0.1513  1.0850  1.1923
  527TIP3    H222997   6.393   5.706   3.288  2.2903 -1.8858 -0.8667
  528TIP3   OH222998   0.598   3.813   1.841 -0.1624 -0.7117  0.0444
  528TIP3    H122999   0.505   3.797   1.827 -0.0162 -0.7591 -0.9700
  528TIP3    H223000   0.601   3.874   1.914 -0.9625 -1.1311  0.4430
  529TIP3   OH223001   0.358   1.081  16.172  0.1865 -0.2239 -0.0915
  529TIP3    H123002   0.425   1.082  16.104 -0.6629  0.6303 -0.9514
  529TIP3    H223003   0.394   1.132  16.243  0.2764  0.6390 -0.7404
  530TIP3   OH223004   2.725   3.353   0.601  0.2204  0.4619 -0.5722
  530TIP3    H123005   2.818   3.369   0.585 -0.1911  1.2006 -2.5298
  530TIP3    H223006   2.689   3.440   0.619 -0.1021  0.1650  0.2965
  531TIP3   OH223007   1.263   6.641   2.727 -0.1378  0.2319 -0.0786
  531TIP3    H123008   1.208   6.718   2.741 -2.0616 -1.0270 -0.2655
  531TIP3    H223009   1.291   6.649   2.636  1.8208  1.9534  0.6002
  532TIP3   OH223010   4.567   1.654  15.642  0.0245 -0.2936 -0.1069
  532TIP3    H123011   4.661   1.667  15.637  0.4012 -2.8932 -2.6239
  532TIP3    H223012   4.537   1.659  15.551 -2.4309  1.0919  0.6760
  533TIP3   OH223013   2.493   5.043   1.679  0.2248  0.1251  0.4514
  533TIP3    H123014   2.461   5.023   1.767  1.0215 -0.5708  0.5999
  533TIP3    H223015   2.510   5.137   1.680 -1.1648  0.3951  0.5692
  534TIP3   OH223016   4.138   0.320   3.897  0.2106  0.0588  0.2708
  534TIP3    H123017   4.064   0.323   3.836 -0.1223 -0.0758  0.6650
  534TIP3    H223018   4.207   0.370   3.853 -0.6173  1.5288  0.5795
  535TIP3   OH223019   4.785   0.953  13.706  0.0436 -0.5376 -0.2394
  535TIP3    H123020   4.850   1.001  13.655 -0.5926 -1.3015 -1.8338
  535TIP3    H223021   4.771   0.872  13.657  0.0102 -1.7094  1.6050
  536TIP3   OH223022   4.298   0.567  16.181  0.1701  0.1027 -0.8121
  536TIP3    H123023   4.242   0.500  16.142  3.0298 -3.1439  0.1384
  536TIP3    H223024   4.297   0.547  16.275  0.9367  1.5379 -0.4737
  537TIP3   OH223025   5.220   3.708  11.285  0.7339  0.9413 -0.2217
  537TIP3    H123026   5.215   3.681  11.193 -1.1752 -2.0331  0.6100
  537TIP3    H223027   5.288   3.652  11.323 -0.1466  0.4489  0.6576
  538TIP3   OH223028   6.534   0.810  13.257  0.3186  0.1014  0.5881
  538TIP3    H123029   6.513   0.726  13.298  0.3933  0.0959  0.6149
  538TIP3    H223030   6.555   0.787  13.166 -1.3415  0.2865  0.1344
  539TIP3   OH223031   2.688   6.490  15.650  0.4761  0.2651 -0.3467
  539TIP3    H123032   2.599   6.462  15.673  0.7324  0.8291  1.5042
  539TIP3    H223033   2.697   6.577  15.688  2.4497 -0.5666  1.2796
  540TIP3   OH223034   2.038   5.323  12.449 -1.0676 -0.1126  0.0614
  540TIP3    H123035   1.974   5.393  12.446 -1.1387 -0.1745  0.1331
  540TIP3    H223036   1.990   5.245  12.420 -0.9343 -0.0909 -0.2243
  541TIP3   OH223037   5.307   0.458  12.294  0.3227 -0.2849  0.2258
  541TIP3    H123038   5.361   0.460  12.214 -1.0046 -0.6275 -0.7041
  541TIP3    H223039   5.313   0.548  12.328  0.3251  0.0597 -0.6574
  542TIP3   OH223040   4.648   0.668   1.065 -0.6129 -0.7375  0.3964
  542TIP3    H123041   4.588   0.636   1.133 -0.9392  2.1071  1.5792
  542TIP3    H223042   4.591   0.708   0.999 -0.1458  0.4504  0.6830
  543TIP3   OH223043   1.045   4.904  13.423  0.5906 -0.2521 -0.0816
  543TIP3    H123044   1.048   4.908  13.519  0.8532 -0.2492 -0.0873
  543TIP3    H223045   1.068   4.813  13.403  0.5164 -0.2576 -0.1403
  544TIP3   OH223046   1.113   4.621  13.983  0.0178 -0.8958  0.0367
  544TIP3    H123047   1.121   4.577  13.898  0.1958  0.3516 -0.6140
  544TIP3    H223048   1.173   4.695  13.977 -1.4974  0.4094  0.4534
  545TIP3   OH223049   0.427   3.296   4.801 -0.0452  0.0469 -0.4352
  545TIP3    H123050   0.338   3.262   4.812 -0.8900  1.3421 -2.5993
  545TIP3    H223051   0.465   3.293   4.889 -2.2574 -0.4337  0.5743
  546TIP3   OH223052   0.415   5.121  15.149 -0.6405 -0.6259  0.2606
  546TIP3    H123053   0.466   5.202  15.146  0.5101 -1.1233  2.9781
  546TIP3    H223054   0.451   5.067  15.079  2.5837 -0.8851  1.9558
  547TIP3   OH223055   6.173   5.513   6.505  0.1037 -0.2322  0.6787
  547TIP3    H123056   6.178   5.501   6.600 -3.3250 -0.6634  0.9195
  547TIP3    H223057   6.187   5.607   6.493  0.6308 -0.1758  1.5757
  548TIP3   OH223058   5.200   6.426  14.831 -0.1896  0.4525  0.3059
  548TIP3    H123059   5.173   6.354  14.774  2.2219 -0.5009  0.2146
  548TIP3    H223060   5.193   6.504  14.776 -2.2987  0.2612  0.2269
  549TIP3   OH223061   5.243   1.631   0.942 -0.4945 -0.0266 -0.2854
  549TIP3    H123062   5.229   1.651   0.849  2.0461  1.3331 -0.4575
  549TIP3    H223063   5.239   1.716   0.986 -0.6060 -0.5318  0.7113
  550TIP3   OH223064   2.593   5.429   2.897 -0.5784  0.3887 -0.8503
  550TIP3    H123065   2.631   5.488   2.962 -2.6734  2.2574 -1.2232
  550TIP3    H223066   2.652   5.433   2.822  0.2220  0.6378 -0.2123
  551TIP3   OH223067   2.270   2.328  11.355  0.2955 -0.1978  0.2366
  551TIP3    H123068   2.289   2.388  11.427 -0.8089  0.1151  0.2930
  551TIP3    H223069   2.254   2.244  11.398  1.1138 -0.3690  0.2195
  552TIP3   OH223070   2.090   2.615  13.230  0.5244 -0.3734  0.4003
  552TIP3    H123071   2.009   2.606  13.280 -1.0414 -1.2433 -2.0749
  552TIP3    H223072   2.160   2.618  13.296 -1.3664 -1.4031  2.5694
  553TIP3   OH223073   6.181   4.225  15.642 -0.1591 -0.2725  0.4423
  553TIP3    H123074   6.119   4.181  15.584 -1.0813  0.4502  0.8542
  553TIP3    H223075   6.185   4.315  15.609  1.2777 -0.4827 -0.0539
  554TIP3   OH223076   4.137   2.457  11.670 -0.0249  0.4627 -0.9613
  554TIP3    H123077   4.114   2.374  11.629 -0.8813 -0.6859  1.6171
  554TIP3    H223078   4.231   2.466  11.653  0.7178 -2.4330  0.8107
  555TIP3   OH223079   2.117   6.007  16.152  0.3840  0.0803 -0.2847
  555TIP3    H123080   2.129   6.045  16.240 -1.3093 -0.6601  0.3066
  555TIP3    H223081   2.115   5.913  16.167  1.6048 -0.1340 -1.3511
  556TIP3   OH223082   5.284   4.776  15.878  0.2092  0.4653 -0.7553
  556TIP3    H123083   5.253   4.800  15.791 -0.5030  1.7604 -0.1633
  556TIP3    H223084   5.287   4.858  15.927  0.9965 -0.1755  0.3350
  557TIP3   OH223085   4.607   1.959   5.755 -0.0679  0.0206  0.4660
  557TIP3    H123086   4.650   2.014   5.820  0.3271  0.5263 -0.2140
  557TIP3    H223087   4.601   1.873   5.796 -1.0170  0.6294  1.6948
  558TIP3   OH223088   0.436   6.632  16.250  0.3279 -0.8138  0.0965
  558TIP3    H123089   0.479   6.709  16.211  1.3072 -0.5076  1.7042
  558TIP3    H223090   0.387   6.594  16.177  0.0816  1.1347 -0.8385
  559TIP3   OH223091   1.239   6.146  16.286  0.2925  0.2720 -0.0718
  559TIP3    H123092   1.191   6.064  16.281  0.6597  0.0301  0.3340
  559TIP3    H223093   1.235   6.182  16.197 -0.8695  0.3881  0.0097
  560TIP3   OH223094   1.566   5.634  15.315  0.5276  0.1435 -0.8384
  560TIP3    H123095   1.648   5.599  15.351  0.1844 -0.1012 -0.2828
  560TIP3    H223096   1.544   5.707  15.374  0.0886 -0.1079 -0.6894
  561TIP3   OH223097   0.952   6.692  14.961 -0.0470  0.1766 -0.0178
  561TIP3    H123098   0.880   6.752  14.981  0.6514  0.9598  0.2094
  561TIP3    H223099   1.029   6.748  14.955  0.4605 -0.5787 -0.7989
  562TIP3   OH223100   4.874   5.395   5.854 -0.2457 -0.5737  0.6078
  562TIP3    H123101   4.935   5.420   5.923 -0.5683  0.4349  0.5520
  562TIP3    H223102   4.789   5.389   5.897 -0.5887  0.8403  0.1808
  563TIP3   OH223103   3.812   0.056  10.953  0.1404  0.1500  0.1703
  563TIP3    H123104   3.863  -0.020  10.925  1.2623  0.8265  0.2940
  563TIP3    H223105   3.751   0.021  11.018 -0.7771 -0.9883 -1.2468
  564TIP3   OH223106   4.907   4.202  17.064 -0.3462  0.3686  0.1830
  564TIP3    H123107   4.994   4.204  17.104 -1.1955 -0.1185  2.1972
  564TIP3    H223108   4.891   4.109  17.046 -0.4497  0.4617 -0.2271
  565TIP3   OH223109   4.615   1.100   1.540 -0.2495 -0.0930 -0.1339
  565TIP3    H123110   4.619   1.155   1.461  1.5784  0.8674  0.5716
  565TIP3    H223111   4.705   1.100   1.573 -0.6444 -1.8546  1.0417
  566TIP3   OH223112   4.377   0.749   5.734 -0.1196  0.0410 -0.3937
  566TIP3    H123113   4.423   0.817   5.684 -1.3819 -0.1499 -1.8784
  566TIP3    H223114   4.310   0.797   5.782  0.4942  0.1052  0.4251
  567TIP3   OH223115   0.932   2.688  14.430  0.4146  0.3912  0.1644
  567TIP3    H123116   0.922   2.777  14.394  0.0680  0.1606 -0.3245
  567TIP3    H223117   0.877   2.634  14.374  0.3322 -0.0755  0.6958
  568TIP3   OH223118   6.606   4.683   3.201  0.2342  0.3319 -0.0667
  568TIP3    H123119   6.675   4.737   3.241 -0.3739  1.4105 -0.4393
  568TIP3    H223120   6.640   4.664   3.113 -0.3183  1.6604 -0.5988
  569TIP3   OH223121   1.629   0.931  13.376 -0.5507 -0.1542 -0.4176
  569TIP3    H123122   1.667   0.851  13.341  0.9173  1.0327 -1.6724
  569TIP3    H223123   1.537   0.927  13.349 -0.3452 -1.1052 -1.0389
  570TIP3   OH223124   6.076   4.668  11.778  0.0965 -0.0796 -0.0051
  570TIP3    H123125   6.160   4.702  11.748  1.4168 -2.4991  0.6539
  570TIP3    H223126   6.097   4.623  11.860 -2.1245  0.4373  0.9114
  571TIP3   OH223127   2.908   2.116  13.415 -0.4011  0.1467 -0.2781
  571TIP3    H123128   2.967   2.182  13.451 -1.8576  0.9859  0.6678
  571TIP3    H223129   2.884   2.062  13.490 -0.5120 -0.4405 -0.7301
  572TIP3   OH223130   6.495   3.559   1.896 -0.9722  0.1175  0.2561
  572TIP3    H123131   6.527   3.471   1.877 -0.1544 -0.0259  2.0711
  572TIP3    H223132   6.564   3.617   1.865 -0.2712 -0.0473  1.4333
  573TIP3   OH223133   0.243   4.598   5.633  0.0123 -0.3716  0.6324
  573TIP3    H123134   0.251   4.584   5.538  1.4480 -1.5494  0.8946
  573TIP3    H223135   0.188   4.525   5.663  0.2955 -0.5085  0.8214
  574TIP3   OH223136   4.876   3.119  11.601  0.1578 -0.3888  0.4972
  574TIP3    H123137   4.807   3.066  11.640  0.0636 -0.1073  0.7135
  574TIP3    H223138   4.842   3.143  11.515 -1.3546  2.2808  1.7085
  575TIP3   OH223139   0.286   5.152   2.289 -0.1100  0.0843  0.2435
  575TIP3    H123140   0.194   5.157   2.262 -0.2238 -0.8342  0.4115
  575TIP3    H223141   0.293   5.213   2.362 -0.4079  0.7028 -0.2400
  576TIP3   OH223142   4.775   3.000  10.732  0.4712  0.0604 -0.1865
  576TIP3    H123143   4.852   2.943  10.735  0.5632  0.1115 -1.1888
  576TIP3    H223144   4.806   3.081  10.691 -0.2126 -0.0895 -1.0256
  577TIP3   OH223145   5.678   2.050   4.982 -0.5029  0.0655 -0.0777
  577TIP3    H123146   5.750   2.018   4.928  0.3780 -1.2706  1.7921
  577TIP3    H223147   5.707   2.135   5.014  0.3403 -0.5362  0.7891
  578TIP3   OH223148   4.769   3.081  15.793 -0.7252  0.4284  0.0948
  578TIP3    H123149   4.850   3.120  15.825 -1.6203  1.1812  1.5062
  578TIP3    H223150   4.738   3.142  15.726  1.2008 -1.2018 -2.4883
  579TIP3   OH223151   1.263   0.648   4.573  0.2500  0.2382  0.1167
  579TIP3    H123152   1.237   0.565   4.533 -1.1499 -0.1323  1.6471
  579TIP3    H223153   1.190   0.708   4.554 -0.6253 -0.0433  2.2419
  580TIP3   OH223154   1.812   3.272   5.654  0.3733 -0.2592  0.4744
  580TIP3    H123155   1.872   3.201   5.631 -1.6463 -1.7095 -0.6313
  580TIP3    H223156   1.829   3.289   5.747  1.7303 -1.3646  0.4609
  581TIP3   OH223157   4.835   3.442   3.196 -0.8593 -0.4336  0.0554
  581TIP3    H123158   4.745   3.411   3.189 -0.5350 -1.5490  0.6475
  581TIP3    H223159   4.861   3.421   3.286 -0.2461  0.5535  0.1242
  582TIP3   OH223160   3.369   4.507   0.791 -0.6906 -0.5787 -0.0934
  582TIP3    H123161   3.410   4.431   0.832  0.7767  0.5923  0.6950
  582TIP3    H223162   3.375   4.489   0.697  0.3648 -1.0912  0.0527
  583TIP3   OH223163   5.206   1.979  11.071 -0.0434 -0.4311 -0.2384
  583TIP3    H123164   5.151   2.043  11.026  2.5199  1.2893 -1.1999
  583TIP3    H223165   5.199   1.900  11.018  0.4017  0.5808 -1.8972
  584TIP3   OH223166   1.597   1.595   3.537  0.3973  0.3451  0.0712
  584TIP3    H123167   1.527   1.658   3.517 -0.8454 -0.9532  0.1456
  584TIP3    H223168   1.677   1.648   3.539 -0.6560  2.0080  0.6642
  585TIP3   OH223169   5.539   2.801   3.091 -0.1927 -0.3214 -0.2278
  585TIP3    H123170   5.617   2.830   3.043 -0.7190  1.1168 -0.2663
  585TIP3    H223171   5.476   2.872   3.080 -1.1387 -0.9803  0.7005
  586TIP3   OH223172   0.826   0.429   0.589  0.0506 -0.7602  0.0213
  586TIP3    H123173   0.850   0.504   0.535 -3.4988 -1.1828 -2.5154
  586TIP3    H223174   0.865   0.354   0.545  0.4434 -0.7587  0.3621
  587TIP3   OH223175   2.906   1.780   1.953  0.6084  0.6863  0.6303
  587TIP3    H123176   2.877   1.750   1.867  1.8405 -0.2091  0.5035
  587TIP3    H223177   2.993   1.816   1.938  1.1767 -0.2281  1.6272
  588TIP3   OH223178   0.292   6.718   2.221  0.6258 -0.2009 -0.3512
  588TIP3    H123179   0.306   6.738   2.128 -0.2124  1.0085 -0.2470
  588TIP3    H223180   0.254   6.799   2.257  0.5349 -0.8001  0.9503
  589TIP3   OH223181   4.120   3.190  12.401  0.4658 -0.1813  0.3593
  589TIP3    H123182   4.081   3.103  12.392  0.6165 -0.0412 -2.1976
  589TIP3    H223183   4.048   3.246  12.430  0.0741 -0.9069  0.8209
  590TIP3   OH223184   0.628   3.155   2.633  0.1855  0.0048  0.5586
  590TIP3    H123185   0.635   3.248   2.654  0.3915  0.5508 -1.6744
  590TIP3    H223186   0.703   3.115   2.676  0.4812  0.9829  0.9849
  591TIP3   OH223187   5.484   5.945  11.495  0.3069 -0.7739 -0.0863
  591TIP3    H123188   5.568   5.900  11.486  0.7134  0.3034 -2.9166
  591TIP3    H223189   5.506   6.028  11.538  0.4660 -0.9910  0.2595
  592TIP3   OH223190   0.704   3.673   0.009  0.3955 -0.7395 -0.1794
  592TIP3    H123191   0.691   3.598  -0.049 -0.7338 -0.0216 -0.8727
  592TIP3    H223192   0.619   3.688   0.049  0.6281  0.1386  0.0047
  593TIP3   OH223193   6.323   0.474  15.209  0.3314  0.8413  0.3752
  593TIP3    H123194   6.412   0.469  15.243 -0.6921  1.6527  3.3974
  593TIP3    H223195   6.296   0.564  15.225 -1.4239  0.3103  0.5460
  594TIP3   OH223196   2.941   4.967   5.247 -0.3254  0.0271 -0.6469
  594TIP3    H123197   2.975   5.055   5.263  0.6029 -0.3932 -0.1845
  594TIP3    H223198   3.017   4.909   5.262 -1.1817 -0.9380  0.1471
  595TIP3   OH223199   4.657   5.279   1.017 -0.5597  0.4725 -0.1164
  595TIP3    H123200   4.570   5.316   1.028 -1.6305 -1.5833 -1.1564
  595TIP3    H223201   4.661   5.254   0.925  1.7497  1.8897 -0.4980
  596TIP3   OH223202   3.162   1.052  13.760 -0.3405  0.4875  0.1722
  596TIP3    H123203   3.191   1.129  13.711 -1.8059  1.2992  0.5232
  596TIP3    H223204   3.192   1.068  13.849  0.2709  0.1337  0.0369
  597TIP3   OH223205   4.530   4.648   4.577  0.0160  0.2027 -0.2997
  597TIP3    H123206   4.493   4.599   4.650  0.6377  0.2943  0.0892
  597TIP3    H223207   4.474   4.725   4.568 -1.0154 -0.6075 -0.9668
  598TIP3   OH223208   6.518   5.986  16.593 -0.2398  0.6674  0.5916
  598TIP3    H123209   6.582   6.000  16.663  0.0689  1.6605  0.1245
  598TIP3    H223210   6.512   6.070  16.548 -1.1550  0.3135  0.0167
  599TIP3   OH223211   3.952   3.526  12.122 -0.5291 -0.4677  0.1340
  599TIP3    H123212   4.037   3.481  12.124 -0.1988  0.1355 -0.0858
  599TIP3    H223213   3.961   3.590  12.052 -1.0108 -0.0881  0.4156
  600TIP3   OH223214   5.846   6.631  13.417  0.2101 -0.4359 -0.3452
  600TIP3    H123215   5.923   6.598  13.370  1.6039  1.5672  0.4088
  600TIP3    H223216   5.869   6.721  13.439 -2.0751 -0.0408  0.5881
  601TIP3   OH223217   4.186   4.331   5.711 -0.2940  0.0798  0.0724
  601TIP3    H123218   4.230   4.248   5.697 -1.0544 -0.4136  0.5185
  601TIP3    H223219   4.203   4.382   5.632  3.5968  1.0992  1.3650
  602TIP3   OH223220   1.967   2.274  13.072  0.9451  0.0069  0.6511
  602TIP3    H123221   1.985   2.188  13.035  1.1738 -0.3414  1.5379
  602TIP3    H223222   1.886   2.302  13.029 -0.4824 -1.7058  2.0073
  603TIP3   OH223223   1.810   6.509   5.778  0.4799  0.5262  0.7438
  603TIP3    H123224   1.750   6.522   5.852  0.8035  2.6227  0.7099
  603TIP3    H223225   1.753   6.501   5.702  0.1980  0.2462  0.9803
  604TIP3   OH223226   5.520   3.084  13.832 -0.0047  0.5226  0.2607
  604TIP3    H123227   5.615   3.087  13.841  0.2361 -1.3534 -1.1262
  604TIP3    H223228   5.487   3.081  13.922  1.3569 -0.7007  0.7534
  605TIP3   OH223229   4.488   2.918  12.075 -0.1631  0.1967  0.2924
  605TIP3    H123230   4.543   2.855  12.121 -1.1514 -1.1010 -0.2485
  605TIP3    H223231   4.408   2.870  12.054 -0.4970  1.2883 -1.1375
  606TIP3   OH223232   5.289   5.624  15.773  0.0950 -0.6123 -0.1255
  606TIP3    H123233   5.355   5.584  15.716  0.3118 -3.0641  1.7057
  606TIP3    H223234   5.224   5.660  15.712  1.7569 -0.4733 -1.9307
  607TIP3   OH223235   1.131   6.696   2.479  0.2245 -0.1716 -0.2441
  607TIP3    H123236   1.126   6.644   2.399  1.0109  2.1174 -1.9048
  607TIP3    H223237   1.052   6.750   2.478  0.4225  0.1389  0.3264
  608TIP3   OH223238   0.210   2.165   2.168  0.2815 -0.2711  0.2411
  608TIP3    H123239   0.230   2.159   2.074  0.4751  0.3913  0.2343
  608TIP3    H223240   0.293   2.189   2.208  0.2985 -0.9654  0.6409
  609TIP3   OH223241   3.627   3.286   4.004  0.2442  0.4593 -0.1336
  609TIP3    H123242   3.690   3.219   4.030  0.1662  0.3672 -0.1821
  609TIP3    H223243   3.563   3.287   4.076 -0.2061 -0.0914 -0.5179
  610TIP3   OH223244   1.843   5.679   3.356  0.3405 -0.0502 -0.3263
  610TIP3    H123245   1.763   5.711   3.397 -0.5907 -0.7703 -1.5170
  610TIP3    H223246   1.833   5.702   3.264  1.0774 -0.9749 -0.6534
  611TIP3   OH223247   6.604   0.849  17.040 -0.1903  0.3395  0.3915
  611TIP3    H123248   6.541   0.824  16.973  0.7697  0.3960 -0.5516
  611TIP3    H223249   6.572   0.806  17.120 -1.7424  0.8774  0.0864
  612TIP3   OH223250   4.637   1.079   2.665  0.0142  0.0779 -0.4619
  612TIP3    H123251   4.569   1.030   2.619  1.4851 -2.7079  0.1477
  612TIP3    H223252   4.591   1.124   2.736 -1.5345  0.3926 -1.6139
  613TIP3   OH223253   5.974   2.126   2.998  0.0139  0.2901 -0.6121
  613TIP3    H123254   5.982   2.045   3.048 -0.3701  0.8918  0.4685
  613TIP3    H223255   5.996   2.195   3.061  2.4886  0.9385 -2.0736
  614TIP3   OH223256   0.246   1.351   4.204  0.2793  0.0287  0.2550
  614TIP3    H123257   0.169   1.371   4.258  0.3611 -1.2942  0.8862
  614TIP3    H223258   0.272   1.436   4.168 -1.1825  0.5777  0.4148
  615TIP3   OH223259   3.091   0.366  14.584 -0.1443  0.0420 -0.3440
  615TIP3    H123260   3.156   0.402  14.523 -0.4084  1.8098  0.3740
  615TIP3    H223261   3.007   0.398  14.550 -0.4233 -0.1997  0.1181
  616TIP3   OH223262   4.133   6.261  11.723  1.4189 -0.0252  0.2720
  616TIP3    H123263   4.208   6.276  11.666  1.1042 -2.0385 -0.7728
  616TIP3    H223264   4.119   6.166  11.720 -1.4081  0.3018  0.0606
  617TIP3   OH223265   6.564   6.702  12.361  0.5965 -0.0067  0.1118
  617TIP3    H123266   6.532   6.658  12.282  1.4185 -1.3063  0.4718
  617TIP3    H223267   6.636   6.757  12.330 -0.2394  0.8937 -0.2934
  618TIP3   OH223268   3.780   0.452  13.163 -0.6362 -0.1840  0.6393
  618TIP3    H123269   3.812   0.542  13.172  0.0683 -0.5778  2.4289
  618TIP3    H223270   3.719   0.455  13.089 -0.6114  1.7570  0.6626
  619TIP3   OH223271   0.461   4.839   1.517 -0.9601 -0.5829 -0.5163
  619TIP3    H123272   0.425   4.789   1.591 -0.1015  1.4371  1.3595
  619TIP3    H223273   0.384   4.873   1.472 -1.4977 -0.1955  0.6493
  620TIP3   OH223274   6.385   4.945  13.939 -0.2023 -0.0819  0.0729
  620TIP3    H123275   6.387   4.920  14.031  0.5324 -0.8267 -0.1334
  620TIP3    H223276   6.373   5.040  13.940  2.1019  0.2548  1.0099
  621TIP3   OH223277   3.915   6.507   5.261 -0.2983 -0.1381  0.0212
  621TIP3    H123278   3.875   6.553   5.335  0.8289 -0.2950  0.7433
  621TIP3    H223279   4.009   6.523   5.271 -0.1736  0.5222 -1.8454
  622TIP3   OH223280   3.674   5.225  16.306 -0.3706 -0.2381  0.0510
  622TIP3    H123281   3.733   5.244  16.379 -1.5788 -1.6748  1.4481
  622TIP3    H223282   3.725   5.249  16.228  2.0249 -1.3047  1.1891
  623TIP3   OH223283   1.498   1.175  10.899 -0.1796  0.3204 -0.2704
  623TIP3    H123284   1.458   1.137  10.821 -1.1762  2.7424 -1.0150
  623TIP3    H223285   1.518   1.099  10.954 -1.1282 -1.3335 -2.0592
  624TIP3   OH223286   2.725   3.788   0.435 -0.5590  0.4010 -0.6242
  624TIP3    H123287   2.657   3.734   0.395  0.9425 -0.7486 -1.7625
  624TIP3    H223288   2.789   3.801   0.365 -1.0913  4.1935 -0.5746
  625TIP3   OH223289   6.722   3.337  12.666 -0.1790 -0.2613 -1.0898
  625TIP3    H123290   6.725   3.263  12.727  0.5129 -0.3259 -1.2006
  625TIP3    H223291   6.813   3.354  12.643 -0.2512  1.1041 -0.4905
  626TIP3   OH223292   0.572   0.340   5.695  0.3910  0.2086 -0.0682
  626TIP3    H123293   0.609   0.416   5.650  1.7719 -0.0575  0.5499
  626TIP3    H223294   0.494   0.374   5.739  1.0585  1.3087  0.3039
  627TIP3   OH223295   5.850   6.293   0.645  0.4373  0.3108  0.1807
  627TIP3    H123296   5.876   6.381   0.673  2.3357 -0.8440  2.3152
  627TIP3    H223297   5.851   6.298   0.549 -0.0375  2.7351  0.2386
  628TIP3   OH223298   6.697   4.555   4.584  0.0720  0.0470 -0.0754
  628TIP3    H123299   6.606   4.539   4.561 -0.3805 -0.7100  2.0831
  628TIP3    H223300   6.695   4.637   4.634  0.4518 -0.3822  0.6522
  629TIP3   OH223301   4.308   4.770  12.116 -0.5198 -0.3249  0.4804
  629TIP3    H123302   4.310   4.696  12.055  0.2312 -0.3059  0.4728
  629TIP3    H223303   4.248   4.741  12.185  0.3801 -1.2878  0.8899
  630TIP3   OH223304   6.454   2.487   0.496  0.0589 -0.2610 -0.3873
  630TIP3    H123305   6.426   2.578   0.489 -0.1956 -0.4077 -1.4088
  630TIP3    H223306   6.532   2.490   0.551 -0.6911  0.4135  0.6842
  631TIP3   OH223307   1.610   0.018  15.126  0.2163 -0.1514  0.4348
  631TIP3    H123308   1.626   0.107  15.095  0.5994 -0.5862 -0.6995
  631TIP3    H223309   1.697  -0.016  15.146 -0.0122  0.0430  1.8140
  632TIP3   OH223310   0.691   6.682   3.243  0.1352 -1.1521 -0.2487
  632TIP3    H123311   0.619   6.739   3.270  1.2430  0.1928 -0.0101
  632TIP3    H223312   0.735   6.730   3.173  1.4704 -1.4105  0.3836
  633TIP3   OH223313   4.730   4.439  16.123 -0.2022 -0.3213  1.0353
  633TIP3    H123314   4.813   4.457  16.078 -0.5528  0.6706  0.7520
  633TIP3    H223315   4.733   4.346  16.143  0.2760 -0.6444 -0.4304
  634TIP3   OH223316   1.440   0.124   1.943 -0.0016 -0.5244  0.4555
  634TIP3    H123317   1.358   0.171   1.937 -0.9232 -2.0740  0.3534
  634TIP3    H223318   1.497   0.166   1.879  0.1322  2.0979  2.1678
  635TIP3   OH223319   4.042   0.841   3.195 -0.1966 -0.1806  0.3492
  635TIP3    H123320   4.006   0.771   3.141  0.2971 -1.0538  1.1238
  635TIP3    H223321   3.981   0.914   3.184 -0.4885 -0.5796 -0.8012
  636TIP3   OH223322   3.663   1.003   5.515  0.0654  0.0366 -0.4640
  636TIP3    H123323   3.625   1.034   5.432  0.7200  0.3202 -0.6693
  636TIP3    H223324   3.723   0.933   5.488 -0.3875 -0.4819 -0.1342
  637TIP3   OH223325   1.218   3.920   5.320  0.8443  0.3576  0.4737
  637TIP3    H123326   1.227   3.922   5.225 -1.0668 -0.4722  0.2284
  637TIP3    H223327   1.169   3.999   5.342  1.8102  0.8599  0.8460
  638TIP3   OH223328   2.613   2.309  11.972 -0.2027 -0.4466 -0.2837
  638TIP3    H123329   2.662   2.263  12.041 -0.5677 -2.0151 -1.0134
  638TIP3    H223330   2.533   2.339  12.015 -0.1591 -0.8969  0.1288
  639TIP3   OH223331   1.509   2.250  13.403  0.2950 -0.7714  0.7420
  639TIP3    H123332   1.526   2.163  13.439  2.1705 -0.5812  0.3895
  639TIP3    H223333   1.506   2.308  13.479 -1.9076 -1.2204  1.0732
  640TIP3   OH223334   6.522   4.591   0.663  0.0839 -0.1232  0.0262
  640TIP3    H123335   6.553   4.542   0.739 -0.2272 -0.3810 -0.0107
  640TIP3    H223336   6.583   4.664   0.655  0.7644 -0.6917 -0.1107
  641TIP3   OH223337   1.710   5.449  13.074  0.7489  0.4133  0.8349
  641TIP3    H123338   1.639   5.395  13.042  1.2017  0.7199 -0.7613
  641TIP3    H223339   1.670   5.505  13.142 -1.4983  3.1757 -2.4279
  642TIP3   OH223340   4.943   5.638   4.087 -0.3680  0.1359  0.3001
  642TIP3    H123341   4.990   5.672   4.163  0.6040  0.1222 -0.2740
  642TIP3    H223342   4.999   5.567   4.055 -0.2760  0.7644 -0.9867
  643TIP3   OH223343   3.677   3.102  12.808 -0.4562 -0.0836  0.3392
  643TIP3    H123344   3.598   3.119  12.757 -1.9356  0.7287  2.7093
  643TIP3    H223345   3.662   3.014  12.844 -0.6723  0.3766  1.4026
  644TIP3   OH223346   1.581   1.380  13.249  0.0711  0.1878  0.2614
  644TIP3    H123347   1.671   1.355  13.228  0.1016  1.1885 -0.8934
  644TIP3    H223348   1.531   1.360  13.170 -0.3703  1.3213  0.2403
  645TIP3   OH223349   3.205   3.852  11.224  1.0268  0.3502  0.4700
  645TIP3    H123350   3.276   3.796  11.195  2.9025  2.4126  0.8439
  645TIP3    H223351   3.209   3.850  11.319  1.2252  1.2306  0.4861
  646TIP3   OH223352   1.013   3.283   4.491 -0.1376  0.6408  0.5146
  646TIP3    H123353   0.953   3.310   4.421 -0.9446  2.1600  1.7234
  646TIP3    H223354   0.996   3.190   4.502 -0.4925  0.5245 -0.8253
  647TIP3   OH223355   3.739   3.507  15.209  0.0159  0.6991 -0.0590
  647TIP3    H123356   3.706   3.454  15.283  0.8017  2.3474  1.5576
  647TIP3    H223357   3.790   3.445  15.157  0.7069 -0.2377  1.6224
  648TIP3   OH223358   2.603   1.445   4.621 -0.1159  0.6155 -0.0788
  648TIP3    H123359   2.615   1.373   4.683  0.0092  1.2778  0.6763
  648TIP3    H223360   2.686   1.491   4.622 -0.4222  1.1707 -0.0512
  649TIP3   OH223361   0.799   6.754  17.112 -0.2104 -0.1461  0.5248
  649TIP3    H123362   0.758   6.669  17.095 -1.6487  0.3592  1.3199
  649TIP3    H223363   0.774   6.775  17.201  0.9284  0.7002  0.6622
  650TIP3   OH223364   4.242   2.384  11.209 -0.3045  0.2091  0.6028
  650TIP3    H123365   4.175   2.324  11.177 -0.4521 -0.2088  1.6248
  650TIP3    H223366   4.311   2.326  11.243  0.1189  0.6312  0.4792
  651TIP3   OH223367   6.158   1.081  12.113  0.2964  0.5176 -0.2255
  651TIP3    H123368   6.136   0.995  12.078 -2.4650 -0.4118  3.2733
  651TIP3    H223369   6.130   1.142  12.044 -0.7523 -1.2815 -1.4742
  652TIP3   OH223370   4.807   3.938   5.851  0.3191  0.9259  0.1386
  652TIP3    H123371   4.733   3.945   5.790  0.8849  1.6599 -0.5009
  652TIP3    H223372   4.804   4.020   5.901  0.8901  1.1239 -0.1361
  653TIP3   OH223373   0.463   2.863  15.159 -0.3489 -0.2749  0.5717
  653TIP3    H123374   0.461   2.941  15.214  1.2927  2.1850 -2.4960
  653TIP3    H223375   0.372   2.849  15.133 -0.5931  1.0463  0.6676
  654TIP3   OH223376   3.011   3.019   4.464 -0.5442 -0.0478  0.0956
  654TIP3    H123377   3.060   3.101   4.454  1.6791 -1.4944 -2.4503
  654TIP3    H223378   2.926   3.045   4.499  0.1452  3.2985 -0.4033
  655TIP3   OH223379   2.623   5.451   4.558 -0.1135 -0.2365  0.3906
  655TIP3    H123380   2.550   5.504   4.525 -0.5548 -0.7049  0.6013
  655TIP3    H223381   2.581   5.381   4.608  0.5234  0.3888  1.8718
  656TIP3   OH223382   0.091   2.295  10.876  0.1644  0.3330 -0.5832
  656TIP3    H123383   0.158   2.233  10.848  0.9254  0.1880  1.4145
  656TIP3    H223384   0.128   2.381  10.856 -0.1811  0.2245 -1.8065
  657TIP3   OH223385   5.647   1.619   0.019  0.3446  0.5286 -0.2292
  657TIP3    H123386   5.581   1.649  -0.044  1.0689 -0.8286 -1.6993
  657TIP3    H223387   5.607   1.634   0.104 -1.9861 -0.4538 -1.0641
  658TIP3   OH223388   4.168   5.295   0.819 -0.5677  0.2145 -0.5460
  658TIP3    H123389   4.098   5.317   0.881  0.8348  1.8723  0.5372
  658TIP3    H223390   4.184   5.375   0.770  1.2479  0.2035 -0.0417
  659TIP3   OH223391   4.256   4.377  12.410  1.0477  0.2300  0.0623
  659TIP3    H123392   4.193   4.374  12.339  0.9381  2.4281 -0.0079
  659TIP3    H223393   4.341   4.362  12.368  0.7554 -0.9377 -0.1248
  660TIP3   OH223394   5.346   1.712   5.871 -0.6321 -0.8791 -0.1011
  660TIP3    H123395   5.329   1.804   5.853  1.0935 -0.3890  0.6195
  660TIP3    H223396   5.372   1.709   5.963  0.6672 -1.8746 -0.4670
  661TIP3   OH223397   6.527   6.585  13.573 -0.2026 -0.1704  0.0997
  661TIP3    H123398   6.498   6.670  13.606 -0.3620 -0.2539  0.1716
  661TIP3    H223399   6.598   6.607  13.512 -1.8146  0.2029 -1.7366
  662TIP3   OH223400   4.223   5.564  14.237  0.0510  0.3620  0.4634
  662TIP3    H123401   4.184   5.556  14.325  1.9301 -2.3551  1.1922
  662TIP3    H223402   4.152   5.540  14.178 -1.3233  2.4644  1.1413
  663TIP3   OH223403   6.175   4.252  11.834 -0.1685 -0.0172 -0.1180
  663TIP3    H123404   6.202   4.172  11.879 -0.2452 -1.1348 -1.9671
  663TIP3    H223405   6.083   4.262  11.856  0.2578  0.5698  1.5272
  664TIP3   OH223406   5.105   5.934  17.149 -0.4231 -0.9677 -0.4882
  664TIP3    H123407   5.163   5.911  17.222  2.0547  0.4237 -1.9213
  664TIP3    H223408   5.156   5.916  17.070 -2.1975 -0.3305 -1.8587
  665TIP3   OH223409   1.063   5.655  15.544  0.6872  0.4657  0.0929
  665TIP3    H123410   1.071   5.724  15.478  0.0707  0.8506  0.4152
  665TIP3    H223411   0.974   5.664  15.577  0.7082 -0.2810  0.3683
  666TIP3   OH223412   3.034   5.064   3.570 -0.0786  0.5070 -0.1012
  666TIP3    H123413   3.116   5.028   3.536 -0.8095 -0.1103 -1.3247
  666TIP3    H223414   2.969   5.042   3.502 -1.2221  1.1002  0.7652
  667TIP3   OH223415   1.062   5.585  11.069  0.4056 -0.6896 -0.0135
  667TIP3    H123416   1.074   5.668  11.023 -0.5843 -0.3950  0.2516
  667TIP3    H223417   1.125   5.589  11.141  1.0544 -0.6046 -0.5675
  668TIP3   OH223418   0.008   0.599  10.766 -0.1324  0.2370 -0.0838
  668TIP3    H123419  -0.047   0.674  10.744  0.1644 -0.0562 -1.9508
  668TIP3    H223420   0.095   0.622  10.733 -0.1326 -1.0791 -1.0841
  669TIP3   OH223421   5.704   5.607  15.412 -0.0882 -0.2595 -0.0344
  669TIP3    H123422   5.630   5.650  15.368  1.0070  0.7772 -0.9647
  669TIP3    H223423   5.733   5.540  15.350 -0.1535 -0.5472  0.2485
  670TIP3   OH223424   3.210   0.394  16.863 -0.0068 -0.3240 -0.3815
  670TIP3    H123425   3.200   0.305  16.829  2.4214 -0.4802 -0.9134
  670TIP3    H223426   3.289   0.390  16.917  0.8571  1.7477 -1.3715
  671TIP3   OH223427   0.461   5.665   2.205  0.9009  0.2601 -0.4086
  671TIP3    H123428   0.534   5.632   2.152  0.6802 -0.8078 -0.0628
  671TIP3    H223429   0.499   5.739   2.253  0.7642  2.1950 -3.0212
  672TIP3   OH223430   1.857   0.176   2.663 -0.0294  0.0846 -0.0695
  672TIP3    H123431   1.880   0.263   2.697 -0.6001 -0.2816  1.3242
  672TIP3    H223432   1.852   0.188   2.568 -0.9683  1.7965  0.1625
  673TIP3   OH223433   2.440   4.815  13.949 -0.1028  0.2998 -0.1090
  673TIP3    H123434   2.468   4.754  14.017  0.0831  1.0828  0.5286
  673TIP3    H223435   2.486   4.786  13.871  3.0430  1.8916  1.0041
  674TIP3   OH223436   2.201   3.903  15.400  0.3707  0.0415 -0.1370
  674TIP3    H123437   2.254   3.823  15.396 -2.6623 -2.3659  2.2941
  674TIP3    H223438   2.123   3.882  15.350 -0.7527  1.2184  1.0479
  675TIP3   OH223439   2.190   1.214  14.736 -0.2718 -0.2743 -0.1102
  675TIP3    H123440   2.285   1.217  14.731 -0.3107  2.6306 -1.8624
  675TIP3    H223441   2.166   1.294  14.785 -1.8276 -0.7993  0.0575
  676TIP3   OH223442   3.982   0.541   5.016  0.4464 -0.2012 -0.4348
  676TIP3    H123443   3.929   0.486   4.957  1.4714  0.2677 -1.8531
  676TIP3    H223444   3.999   0.485   5.092  1.6333 -1.9860 -1.9147
  677TIP3   OH223445   0.354   5.453   5.913 -0.5728  0.8458 -0.2738
  677TIP3    H123446   0.407   5.384   5.873 -0.5550  1.5340 -1.4930
  677TIP3    H223447   0.352   5.431   6.006  1.3147  0.4396 -0.2906
  678TIP3   OH223448   2.272   1.925   2.211  0.2043  0.6290  0.2131
  678TIP3    H123449   2.367   1.931   2.205  0.2648  0.9114  1.3071
  678TIP3    H223450   2.252   1.834   2.186  1.0582 -0.4008  2.9520
  679TIP3   OH223451   3.358   5.514  16.181 -0.1435  0.0889  0.5247
  679TIP3    H123452   3.370   5.428  16.223 -3.2230 -0.6972  0.0303
  679TIP3    H223453   3.313   5.567  16.247 -1.8020 -0.0072 -0.4719
  680TIP3   OH223454   0.112   3.634   5.767  0.0153  0.1384  0.3803
  680TIP3    H123455   0.109   3.712   5.711 -0.1470  0.9732  1.5250
  680TIP3    H223456   0.205   3.615   5.778  0.0440 -0.6275 -0.9457
  681TIP3   OH223457   5.221   0.936   4.625 -0.2990 -0.4697  0.7894
  681TIP3    H123458   5.217   0.846   4.657 -2.8555 -0.7898 -0.2205
  681TIP3    H223459   5.302   0.940   4.574  0.3109 -1.8876  1.5792
  682TIP3   OH223460   2.830   5.640   5.014 -0.4848  0.1341  0.3106
  682TIP3    H123461   2.832   5.708   5.080 -2.6729  0.7868 -0.2098
  682TIP3    H223462   2.921   5.610   5.007 -0.2197 -0.4007  3.9872
  683TIP3   OH223463   4.774   0.229   6.489  0.5423 -0.1198 -0.2117
  683TIP3    H123464   4.767   0.240   6.584  0.4562  0.0088 -0.2336
  683TIP3    H223465   4.715   0.157   6.468  0.7970 -0.3560 -0.1250
  684TIP3   OH223466   3.521   5.409  14.136 -0.3510 -0.4710 -0.5648
  684TIP3    H123467   3.505   5.503  14.144 -3.0326 -0.9221  0.8179
  684TIP3    H223468   3.462   5.380  14.066 -0.0219 -1.2177 -0.5471
  685TIP3   OH223469   1.314   1.060   1.049  0.0103 -0.0029  0.5059
  685TIP3    H123470   1.220   1.075   1.059 -0.0898 -0.5275  0.4075
  685TIP3    H223471   1.329   0.975   1.092  0.4744  0.1813  0.7121
  686TIP3   OH223472   4.383   1.211  12.510 -0.1106  0.1254 -0.2296
  686TIP3    H123473   4.407   1.301  12.490  0.3229  0.0855  0.0886
  686TIP3    H223474   4.303   1.195  12.461 -1.2212  1.2647  1.1411
  687TIP3   OH223475   5.507   4.022   3.742  0.1440  0.7394 -0.7789
  687TIP3    H123476   5.589   4.048   3.783 -0.7212 -0.0061  1.5830
  687TIP3    H223477   5.440   4.072   3.789 -0.9026 -0.0387 -1.4135
  688TIP3   OH223478   0.197   6.297  13.694 -0.2985 -0.1095  0.1129
  688TIP3    H123479   0.126   6.338  13.745 -0.1651  0.3909 -0.0972
  688TIP3    H223480   0.194   6.341  13.609  0.3614  0.0239  0.1523
  689TIP3   OH223481   1.858   3.151  16.202  0.2204  0.6435 -0.0288
  689TIP3    H123482   1.811   3.214  16.148  0.7203  0.8787 -0.1953
  689TIP3    H223483   1.829   3.170  16.291  0.6232  1.3480 -0.0365
  690TIP3   OH223484   4.836   1.281   2.603 -1.0999  0.0835 -0.0298
  690TIP3    H123485   4.825   1.196   2.560 -2.3102  0.0659  0.2678
  690TIP3    H223486   4.825   1.345   2.532  0.2203 -0.0058 -0.3275
  691TIP3   OH223487   5.786   5.150  15.030 -0.3743 -0.5029 -0.2394
  691TIP3    H123488   5.823   5.238  15.035 -0.8716 -0.3276  0.4877
  691TIP3    H223489   5.847   5.095  15.078 -0.3023 -0.4788 -0.3020
  692TIP3   OH223490   5.869   2.786  15.160 -0.0136  0.0614 -0.6773
  692TIP3    H123491   5.947   2.841  15.171  0.0183 -0.0733 -0.2144
  692TIP3    H223492   5.903   2.697  15.159 -0.1630  0.0012 -0.4617
  693TIP3   OH223493   4.983   2.324   1.825  0.2339  0.0897  0.5997
  693TIP3    H123494   4.898   2.349   1.790  0.4825 -0.3127 -0.3025
  693TIP3    H223495   4.962   2.262   1.895 -0.2224  0.1112  0.4868
  694TIP3   OH223496   1.318   5.173   6.693 -0.0368 -0.1800  0.2654
  694TIP3    H123497   1.367   5.194   6.772  0.8537 -1.0701 -0.0376
  694TIP3    H223498   1.380   5.126   6.637 -1.0079 -0.6544 -0.4469
  695TIP3   OH223499   4.232   0.509  14.242  0.1507  0.3530 -0.1239
  695TIP3    H123500   4.196   0.534  14.327  1.3788  1.7195  0.0335
  695TIP3    H223501   4.297   0.577  14.222  0.6425 -0.5129 -1.6639
  696TIP3   OH223502   3.540   0.421   4.251  0.4339  0.1640  0.3040
  696TIP3    H123503   3.485   0.484   4.204  0.6873 -0.0914 -0.3579
  696TIP3    H223504   3.479   0.357   4.287  0.1675  0.8375  1.0647
  697TIP3   OH223505   1.006   1.245  16.750  0.2552 -0.0077 -0.0796
  697TIP3    H123506   0.996   1.151  16.767 -1.0424 -0.2927 -2.1000
  697TIP3    H223507   1.084   1.270  16.800  2.5679 -2.8204 -1.9073
  698TIP3   OH223508   1.229   5.565  16.233  0.3560  0.1524 -0.3924
  698TIP3    H123509   1.136   5.547  16.244  0.5738 -0.7675 -0.0244
  698TIP3    H223510   1.273   5.491  16.274  1.2959  1.7129  1.5888
  699TIP3   OH223511   5.899   1.709   0.078  0.1803  0.1731 -0.2275
  699TIP3    H123512   5.814   1.700   0.036 -0.3218  1.8685  0.3283
  699TIP3    H223513   5.922   1.620   0.105 -0.9496 -0.4568 -1.2545
  700TIP3   OH223514   2.306   3.675   1.518 -0.2685  0.2028 -0.1464
  700TIP3    H123515   2.307   3.768   1.538 -1.0016 -0.2254  2.1198
  700TIP3    H223516   2.331   3.670   1.426  1.3263  2.5096  0.0970
  701TIP3   OH223517   6.222   4.630   1.125 -0.1562  0.1873  0.4445
  701TIP3    H123518   6.250   4.620   1.034 -1.0369  0.5946  0.1184
  701TIP3    H223519   6.168   4.553   1.142  0.0482  0.0857  0.6498
  702TIP3   OH223520   3.069   1.937   1.577 -0.1098 -0.7851  0.0854
  702TIP3    H123521   3.102   1.958   1.665 -1.4917 -0.8805  0.6659
  702TIP3    H223522   3.030   2.019   1.547 -3.9501 -1.8261  1.6233
  703TIP3   OH223523   2.871   0.857   0.351 -0.4764 -0.0284 -0.0668
  703TIP3    H123524   2.895   0.938   0.396  2.2569 -1.8688  2.1258
  703TIP3    H223525   2.815   0.886   0.278 -0.6953  3.6429  1.3247
  704TIP3   OH223526   2.564   0.693   0.734  0.1806  0.5229  0.8697
  704TIP3    H123527   2.543   0.754   0.805  0.0947  2.7763 -0.9862
  704TIP3    H223528   2.660   0.688   0.734  0.1771  0.4460  1.1885
  705TIP3   OH223529   4.396   2.791   4.741  0.1290 -0.1858  0.0363
  705TIP3    H123530   4.407   2.699   4.765  1.8650 -0.0485 -0.0727
  705TIP3    H223531   4.413   2.793   4.647  1.4648  0.3970  0.2571
  706TIP3   OH223532   4.868   5.129   1.846 -0.4404  0.3521 -0.1754
  706TIP3    H123533   4.788   5.078   1.834 -0.5790  0.6043 -0.3282
  706TIP3    H223534   4.927   5.071   1.895 -1.0851  0.5418  0.8419
  707TIP3   OH223535   2.722   0.045  16.976 -0.0338  0.6304 -0.1820
  707TIP3    H123536   2.773  -0.035  16.963 -0.0511 -0.0572  3.0060
  707TIP3    H223537   2.775   0.115  16.938  1.6379 -0.4841  0.0033
  708TIP3   OH223538   2.521   4.184   0.831  1.0435 -0.6342 -0.1880
  708TIP3    H123539   2.509   4.185   0.736  1.5281 -0.5048 -0.2525
  708TIP3    H223540   2.484   4.100   0.859  0.5301 -0.4950 -0.4357
  709TIP3   OH223541   6.517   3.003  13.289 -0.4663  0.1106 -0.1234
  709TIP3    H123542   6.527   3.032  13.199 -2.0177 -1.5217 -0.8737
  709TIP3    H223543   6.430   3.033  13.315  0.4696  1.7595  1.3636
  710TIP3   OH223544   5.888   5.706  16.109  0.3622  0.3913  0.3416
  710TIP3    H123545   5.899   5.766  16.036  0.0967 -1.6099 -1.4205
  710TIP3    H223546   5.956   5.639  16.096 -0.0307 -0.2931  1.6299
  711TIP3   OH223547   1.432   5.852  16.475  0.3329 -0.2132 -0.2917
  711TIP3    H123548   1.350   5.901  16.473  0.6964  0.3790 -1.2992
  711TIP3    H223549   1.470   5.872  16.561 -1.1824 -1.5626  0.7674
  712TIP3   OH223550   2.926   2.252   0.219  0.0655  0.1103  0.1822
  712TIP3    H123551   2.832   2.266   0.219  0.0191 -0.0402  1.8367
  712TIP3    H223552   2.939   2.172   0.270  1.0135 -0.6369 -1.1479
  713TIP3   OH223553   5.530   2.846   5.844 -0.1735 -0.0135 -0.0102
  713TIP3    H123554   5.575   2.768   5.811 -0.5294 -0.0103 -0.5210
  713TIP3    H223555   5.469   2.869   5.774 -0.6384  0.2523  0.4780
  714TIP3   OH223556   0.965   0.334   6.062 -0.7020  0.2331 -0.3813
  714TIP3    H123557   1.011   0.417   6.076 -1.0288  0.4152 -0.3676
  714TIP3    H223558   1.002   0.275   6.127  0.6841 -0.1145 -1.4361
  715TIP3   OH223559   3.141   3.015  11.018 -0.4464  0.2568  0.2393
  715TIP3    H123560   3.186   3.043  10.938  0.0735 -0.6076  0.2137
  715TIP3    H223561   3.201   2.952  11.058 -0.6882  0.6897  1.3258
  716TIP3   OH223562   5.041   2.027  11.658  0.0880  0.3319  0.5505
  716TIP3    H123563   5.009   1.937  11.670 -0.5599  0.6887  1.6640
  716TIP3    H223564   5.136   2.021  11.673  0.3855 -0.5075 -1.4626
  717TIP3   OH223565   5.740   5.492  12.594  0.2456  0.0930  0.1343
  717TIP3    H123566   5.727   5.417  12.536  0.3724 -0.0121  0.2419
  717TIP3    H223567   5.765   5.564  12.536 -2.4914  0.7899 -0.3353
  718TIP3   OH223568   4.115   6.402   2.377 -0.3318 -0.1007 -0.8329
  718TIP3    H123569   4.143   6.487   2.344 -0.5370 -0.6030 -2.3638
  718TIP3    H223570   4.186   6.343   2.353 -0.2918 -0.4193  0.0259
  719TIP3   OH223571   6.784   5.542   5.209  0.0069  0.1176  0.3996
  719TIP3    H123572   6.703   5.500   5.180 -1.1893  2.1139  0.6332
  719TIP3    H223573   6.756   5.628   5.239  2.1706  0.6572  1.0171
  720TIP3   OH223574   6.575   1.894  14.858  0.1042 -0.0055  0.7219
  720TIP3    H123575   6.647   1.952  14.883  1.0343  0.0472 -1.7958
  720TIP3    H223576   6.563   1.910  14.765 -2.7323 -0.5567  0.9195
  721TIP3   OH223577   0.078   5.584  15.023  0.0809  0.5023 -0.7733
  721TIP3    H123578   0.141   5.512  15.016 -1.6785 -0.9693 -2.1371
  721TIP3    H223579   0.130   5.657  15.059  2.3133 -0.9133 -0.9282
  722TIP3   OH223580   0.435   4.336  11.347 -0.2169  0.8572  0.3128
  722TIP3    H123581   0.489   4.401  11.393 -1.1404  2.0474 -0.2379
  722TIP3    H223582   0.489   4.257  11.345  0.8295  1.5200  1.2359
  723TIP3   OH223583   3.042   1.861  11.704  0.0061  0.0295  0.3371
  723TIP3    H123584   3.101   1.917  11.653  1.2117 -1.9949 -0.6062
  723TIP3    H223585   3.071   1.871  11.795  1.5316 -0.5640 -0.0589
  724TIP3   OH223586   6.495   4.745   0.947 -0.0307 -0.4912  0.6250
  724TIP3    H123587   6.542   4.727   1.028 -1.8622 -0.7048  1.7138
  724TIP3    H223588   6.453   4.662   0.924  1.0081 -0.6248 -0.9605
  725TIP3   OH223589   5.445   5.618  13.876 -0.0401 -0.5910  0.5588
  725TIP3    H123590   5.459   5.633  13.783 -1.2239  0.4401  0.5270
  725TIP3    H223591   5.497   5.539  13.896  0.0661 -0.9367 -0.9949
  726TIP3   OH223592   0.912   5.966   2.523 -0.1120  0.0574 -0.5863
  726TIP3    H123593   0.941   6.052   2.554 -0.6092  0.2507 -0.6481
  726TIP3    H223594   0.877   5.924   2.602 -2.4826  1.0020 -1.0269
  727TIP3   OH223595   0.990   6.466   6.279 -0.6986  0.5926 -0.8024
  727TIP3    H123596   1.070   6.422   6.248  1.1858  3.4834 -0.4341
  727TIP3    H223597   0.952   6.404   6.341  3.9682  0.7475  2.8195
  728TIP3   OH223598   5.990   1.504   1.917 -0.5956  0.5046 -0.4626
  728TIP3    H123599   5.919   1.455   1.876  0.5984 -1.9532  0.2105
  728TIP3    H223600   5.949   1.549   1.991 -1.3877 -1.4736  0.3657
  729TIP3   OH223601   1.303   4.323   3.789 -0.7645  0.6235 -0.5667
  729TIP3    H123602   1.316   4.229   3.778 -0.0826  0.4575  1.3286
  729TIP3    H223603   1.249   4.331   3.868 -0.6255  1.8253 -0.5686
  730TIP3   OH223604   3.325   3.887  11.485  0.1574  0.5489 -0.0255
  730TIP3    H123605   3.370   3.972  11.474 -0.0222  0.6678  0.1658
  730TIP3    H223606   3.250   3.906  11.541  2.0377 -0.3739  3.0148
  731TIP3   OH223607   1.772   1.752   1.211 -0.1196  0.0609  0.4130
  731TIP3    H123608   1.817   1.714   1.287  0.3442  0.0479  0.1367
  731TIP3    H223609   1.718   1.680   1.178 -1.5009  0.4978  1.6130
  732TIP3   OH223610   3.254   3.708   4.401  0.2137  0.3398  0.2523
  732TIP3    H123611   3.261   3.627   4.451 -0.5094  0.2823  0.2608
  732TIP3    H223612   3.253   3.777   4.467 -1.3793  0.2326  0.3793
  733TIP3   OH223613   5.470   5.906  17.087  0.1367  0.2642 -0.5921
  733TIP3    H123614   5.447   5.872  17.000 -0.2192 -1.0253 -0.0213
  733TIP3    H223615   5.562   5.930  17.080  0.5542 -1.3187 -0.9080
  734TIP3   OH223616   6.050   3.283  12.065  0.3668  0.1140 -0.6998
  734TIP3    H123617   5.975   3.228  12.091  0.9494 -0.0744  0.6874
  734TIP3    H223618   6.061   3.266  11.972 -1.3087  0.1317 -0.9322
  735TIP3   OH223619   1.548   4.826  13.845 -0.1608 -0.3183  0.7690
  735TIP3    H123620   1.598   4.751  13.812  0.7275 -0.8216  3.0398
  735TIP3    H223621   1.468   4.787  13.880 -1.2241  0.2386 -0.9255
  736TIP3   OH223622   6.159   4.345   2.602 -0.1563 -0.6653 -0.1870
  736TIP3    H123623   6.203   4.267   2.569 -0.3695 -0.3535 -1.2862
  736TIP3    H223624   6.228   4.411   2.606  0.6392 -1.5223  3.3035
  737TIP3   OH223625   1.007   1.170   0.683  0.0346 -0.1272 -0.6212
  737TIP3    H123626   0.968   1.224   0.752  0.2611  0.8162 -1.2090
  737TIP3    H223627   1.081   1.127   0.725 -1.5740 -1.9517  0.5186
  738TIP3   OH223628   6.357   1.352  16.850  0.5206 -0.3676  0.1451
  738TIP3    H123629   6.358   1.402  16.769  3.3565  0.0763  0.3545
  738TIP3    H223630   6.366   1.261  16.823 -0.6865 -0.4213 -0.0951
  739TIP3   OH223631   0.202   1.937   6.123  0.9136 -0.2823 -0.2669
  739TIP3    H123632   0.258   1.860   6.136  1.2596  0.1287  0.7978
  739TIP3    H223633   0.146   1.938   6.200  0.4928  0.1910 -0.5801
  740TIP3   OH223634   0.166   5.062  11.463 -0.0630  0.2837 -0.2281
  740TIP3    H123635   0.128   4.979  11.434  1.7034 -0.4740 -0.5747
  740TIP3    H223636   0.149   5.123  11.391  1.9974 -0.8834 -1.8368
  741TIP3   OH223637   3.590   1.238  10.325 -0.9734 -0.4010 -0.5189
  741TIP3    H123638   3.512   1.242  10.379 -1.8202  0.8430 -1.7566
  741TIP3    H223639   3.658   1.280  10.377 -1.7278  0.6205 -0.3294
  742TIP3   OH223640   4.560   1.649   5.059 -0.1552 -0.8084 -0.7368
  742TIP3    H123641   4.621   1.695   5.001  1.6085 -1.6092  0.4050
  742TIP3    H223642   4.489   1.712   5.074  1.6801  1.1980 -0.0362
  743TIP3   OH223643   4.901   1.801  15.823  0.1452  0.1344 -0.5479
  743TIP3    H123644   4.865   1.886  15.849  1.1703 -0.2134  2.5439
  743TIP3    H223645   4.996   1.810  15.835  0.2937 -1.3738 -0.2953
  744TIP3   OH223646   2.761   2.840  16.601  0.8084 -0.0703  0.0536
  744TIP3    H123647   2.699   2.891  16.550 -0.4594 -1.3975  0.1974
  744TIP3    H223648   2.828   2.814  16.538  1.1190  1.1890 -0.1525
  745TIP3   OH223649   0.744   4.311  10.930  0.4020  0.1948 -0.0348
  745TIP3    H123650   0.802   4.386  10.913  1.3144 -0.2159  1.1608
  745TIP3    H223651   0.771   4.245  10.866  1.3371 -0.0367  0.5933
  746TIP3   OH223652   3.810   1.000   3.782 -0.3803 -0.3139 -0.0605
  746TIP3    H123653   3.846   0.935   3.721  1.0632  0.0624  0.3777
  746TIP3    H223654   3.861   0.990   3.862  0.4725  1.9412 -0.2719
  747TIP3   OH223655   0.046   2.678  15.539 -0.4899  0.1920 -0.0892
  747TIP3    H123656   0.073   2.597  15.582 -0.2506  0.8883  1.1447
  747TIP3    H223657  -0.050   2.676  15.544 -0.6511 -1.2481 -2.4980
  748TIP3   OH223658   3.691   5.604   1.895 -0.2596 -0.6014  0.4400
  748TIP3    H123659   3.606   5.567   1.871  0.5983 -1.8660 -0.8577
  748TIP3    H223660   3.688   5.694   1.864 -1.2527 -0.5160  0.7517
  749TIP3   OH223661   5.591   6.157  13.248 -0.2385 -0.6972 -0.1034
  749TIP3    H123662   5.568   6.248  13.228 -0.5839 -0.6458  0.4798
  749TIP3    H223663   5.507   6.115  13.266 -0.2297 -1.5224 -1.8350
  750TIP3   OH223664   0.919   6.485  16.262  0.4385  0.1341  0.0535
  750TIP3    H123665   0.932   6.399  16.222  0.2172 -0.2273  0.7427
  750TIP3    H223666   0.825   6.490  16.279 -0.3394  2.2468 -3.7989
  751TIP3   OH223667   6.720   6.056  16.788  0.2941  0.1108 -0.0251
  751TIP3    H123668   6.775   6.134  16.802  0.5920 -0.3939  2.0294
  751TIP3    H223669   6.782   5.983  16.791 -0.2680 -0.3537  0.6316
  752TIP3   OH223670   6.458   6.780  15.763 -0.1941  0.0914 -0.1274
  752TIP3    H123671   6.511   6.782  15.843 -0.9282 -0.2193  0.3848
  752TIP3    H223672   6.451   6.871  15.736 -1.7012  0.4832  1.3809
  753TIP3   OH223673   4.393   0.175   0.460  0.3745  0.2446 -0.6163
  753TIP3    H123674   4.357   0.239   0.398 -1.5069 -0.5423 -0.3934
  753TIP3    H223675   4.446   0.117   0.406 -0.5338  0.0925 -1.3739
  754TIP3   OH223676   2.440   5.329   0.922  0.2238 -0.2725 -0.1910
  754TIP3    H123677   2.508   5.391   0.945  1.1693 -0.5547 -2.0463
  754TIP3    H223678   2.383   5.376   0.861 -1.0303 -0.1706  1.0216
  755TIP3   OH223679   0.544   4.403  12.071 -0.2217 -0.5043 -0.2313
  755TIP3    H123680   0.612   4.468  12.054  0.7698 -0.9765  1.6808
  755TIP3    H223681   0.578   4.321  12.036 -0.2645 -0.5467 -0.1743
  756TIP3   OH223682   6.095   1.019   6.567 -0.2104  0.2251  0.2358
  756TIP3    H123683   6.008   0.995   6.534 -0.8819 -2.8633  3.6548
  756TIP3    H223684   6.149   0.941   6.554  0.2894 -0.0916  3.2951
  757TIP3   OH223685   2.568   1.231  14.102  0.5885 -0.5660  0.7886
  757TIP3    H123686   2.627   1.249  14.175  0.7517 -2.0082  1.0376
  757TIP3    H223687   2.480   1.243  14.138  0.6921 -0.2766  0.9442
  758TIP3   OH223688   5.663   2.361  12.623  0.0255  0.4728 -0.3224
  758TIP3    H123689   5.639   2.418  12.550  0.0083  0.5752 -0.2369
  758TIP3    H223690   5.591   2.298  12.628 -0.2878  0.8524  0.0092
  759TIP3   OH223691   1.551   5.790  12.198  0.0093 -0.6610  0.2588
  759TIP3    H123692   1.476   5.731  12.206 -1.7136  1.2152 -0.9455
  759TIP3    H223693   1.612   5.745  12.141 -2.2824 -0.4522 -2.5841
  760TIP3   OH223694   4.106   0.900  14.023 -0.3648 -0.3537 -0.5434
  760TIP3    H123695   4.178   0.950  13.986 -0.4128 -0.4520 -0.7733
  760TIP3    H223696   4.127   0.808  14.004 -1.2153 -0.3063 -1.8422
  761TIP3   OH223697   4.548   5.777  14.353 -0.2182  0.8004  0.1734
  761TIP3    H123698   4.537   5.738  14.440 -1.6794  0.1462 -0.2854
  761TIP3    H223699   4.630   5.739  14.320 -1.1822 -1.2742  0.0750
  762TIP3   OH223700   6.562   3.093  11.901 -0.0065 -0.8077 -0.1676
  762TIP3    H123701   6.637   3.092  11.960  0.2381  4.2615  0.0716
  762TIP3    H223702   6.593   3.138  11.822 -2.7318  2.2213  0.2515
  763TIP3   OH223703   4.547   0.396   4.499  0.7116 -0.5521  0.1732
  763TIP3    H123704   4.506   0.420   4.582 -0.4714 -0.6553 -0.3520
  763TIP3    H223705   4.473   0.373   4.442  1.5058 -0.6208 -0.8611
  764TIP3   OH223706   3.972   3.276  15.773  0.3466  0.6303 -0.4964
  764TIP3    H123707   3.883   3.261  15.806  0.8300 -0.6736  0.2618
  764TIP3    H223708   3.976   3.228  15.691  0.1648  1.2040 -0.8457
  765TIP3   OH223709   6.555   3.393  13.059 -0.0611 -0.5196  0.0295
  765TIP3    H123710   6.555   3.376  13.153 -0.3264 -3.0196 -0.3498
  765TIP3    H223711   6.505   3.474  13.049  0.0343 -0.1627  2.0374
  766TIP3   OH223712   2.539   4.789   0.743  0.6920 -0.5917  0.3188
  766TIP3    H123713   2.520   4.858   0.679  0.7614 -0.8959 -0.0352
  766TIP3    H223714   2.633   4.794   0.755  0.9495 -1.7292 -1.0024
  767TIP3   OH223715   2.442   2.142   3.732 -0.1560  0.1593  0.3881
  767TIP3    H123716   2.484   2.074   3.784 -0.0624 -0.2980 -0.2774
  767TIP3    H223717   2.509   2.211   3.724  0.4166 -0.4809 -0.5023
  768TIP3   OH223718   2.029   0.275  13.982 -0.7067 -0.3274  0.8768
  768TIP3    H123719   1.933   0.282  13.976 -0.5591  0.7463 -0.8275
  768TIP3    H223720   2.062   0.331  13.911  1.1053 -3.3585 -0.9244
  769TIP3   OH223721   0.905   6.026  12.970  0.1457 -0.0058 -0.5386
  769TIP3    H123722   0.996   6.008  12.996 -0.2312 -0.8655  0.2223
  769TIP3    H223723   0.860   6.046  13.052 -0.0249  2.0476 -1.0812
  770TIP3   OH223724   5.205   3.230   5.796 -0.0077  0.2905  0.8051
  770TIP3    H123725   5.189   3.193   5.709 -1.9397  0.2034  1.1547
  770TIP3    H223726   5.300   3.238   5.801  0.1595  0.4071 -1.3577
  771TIP3   OH223727   0.294   4.653  16.699 -0.3382 -0.4128 -0.0425
  771TIP3    H123728   0.217   4.598  16.707  0.7913 -1.8616  1.8920
  771TIP3    H223729   0.355   4.602  16.646  0.1901 -0.4053  0.5425
  772TIP3   OH223730   1.193   3.630   5.338 -0.1704  0.0412  0.0426
  772TIP3    H123731   1.152   3.715   5.333 -2.6182 -1.0620  0.1130
  772TIP3    H223732   1.126   3.568   5.309  0.3285 -2.1802  3.1096
  773TIP3   OH223733   2.454   0.937   1.620  0.2186  0.2792  0.4465
  773TIP3    H123734   2.398   1.013   1.637 -0.3720  0.4757 -2.0380
  773TIP3    H223735   2.399   0.861   1.639 -0.0621  0.4754  0.4217
  774TIP3   OH223736   0.398   3.633   1.224 -0.0617  0.1951  0.6293
  774TIP3    H123737   0.465   3.580   1.180 -1.3300 -1.3042  0.4252
  774TIP3    H223738   0.437   3.653   1.309  0.9680  0.0327  0.2142
  775TIP3   OH223739   6.386   2.175   5.931 -0.0484  0.1310  0.3710
  775TIP3    H123740   6.446   2.129   5.989  0.3026  0.6314  0.4176
  775TIP3    H223741   6.410   2.147   5.843 -1.3038 -1.4791  0.5009
  776TIP3   OH223742   2.272   6.298  14.870  0.1776 -0.3245  0.5686
  776TIP3    H123743   2.208   6.359  14.905  0.4172 -0.3584  1.0831
  776TIP3    H223744   2.349   6.351  14.852 -0.7070  0.1371 -2.1841
  777TIP3   OH223745   6.393   4.793   3.319 -0.2724  0.5005 -0.9383
  777TIP3    H123746   6.441   4.869   3.352  0.3332 -0.2536 -0.0269
  777TIP3    H223747   6.460   4.738   3.278 -0.9352  1.1727 -3.0664
  778TIP3   OH223748   4.837   0.091  13.931 -0.9659 -0.4215 -0.1602
  778TIP3    H123749   4.864   0.124  13.845  0.7551 -0.4783  0.3284
  778TIP3    H223750   4.918   0.087  13.982 -1.9744 -0.2810  1.5158
  779TIP3   OH223751   1.959   6.242   3.073 -0.5807 -0.1443  0.2085
  779TIP3    H123752   1.990   6.324   3.036  0.3833  0.7693  2.7779
  779TIP3    H223753   1.963   6.180   3.001 -1.1222  1.9785 -1.7622
  780TIP3   OH223754   1.185   4.871   0.988  0.1471 -0.1212 -0.1650
  780TIP3    H123755   1.241   4.862   1.065  1.3575  1.9456 -0.7305
  780TIP3    H223756   1.124   4.941   1.011  0.4578  0.4496 -1.0316
  781TIP3   OH223757   1.871   2.059   4.347  0.4546 -0.1327 -0.0012
  781TIP3    H123758   1.779   2.046   4.327  0.6343 -0.8181 -0.4034
  781TIP3    H223759   1.918   2.023   4.271  1.0945 -1.4931  0.9876
  782TIP3   OH223760   5.588   2.369   5.849 -0.0380 -0.3643  0.0165
  782TIP3    H123761   5.497   2.396   5.862 -0.4408 -1.5466 -0.2404
  782TIP3    H223762   5.613   2.327   5.931  0.3794  0.1894  0.1824
  783TIP3   OH223763   6.144   1.803  17.168  0.4261  0.2693 -0.2191
  783TIP3    H123764   6.184   1.721  17.139  2.9273  1.0671  0.6624
  783TIP3    H223765   6.056   1.779  17.197  0.7948 -1.9222 -0.7975
  784TIP3   OH223766   3.314   2.885  12.041 -0.3479  0.0918  0.4899
  784TIP3    H123767   3.252   2.820  12.075  0.7136 -0.6737  1.0092
  784TIP3    H223768   3.398   2.839  12.039  1.0498  2.1871  3.5002
  785TIP3   OH223769   4.461   2.024   6.056 -0.5316  0.2375 -0.2867
  785TIP3    H123770   4.390   1.994   6.113 -0.0832  0.5730  0.4589
  785TIP3    H223771   4.541   2.000   6.103 -0.0943 -1.3298 -1.7089
  786TIP3   OH223772   1.636   5.646  16.742  0.3089 -0.0643 -0.7252
  786TIP3    H123773   1.620   5.665  16.649 -0.0603 -1.2785 -0.9261
  786TIP3    H223774   1.723   5.682  16.759  0.4940 -0.0687 -1.6193
  787TIP3   OH223775   5.238   2.056   4.802 -0.3894  0.1162 -0.2027
  787TIP3    H123776   5.154   2.051   4.756 -0.6815 -2.0738  0.4635
  787TIP3    H223777   5.287   1.980   4.771  0.6541  0.3609  0.7726
  788TIP3   OH223778   6.345   1.541   3.867  0.2448  0.0323 -0.2049
  788TIP3    H123779   6.381   1.482   3.802  1.4332 -0.1958  0.6332
  788TIP3    H223780   6.415   1.552   3.932 -1.4828 -1.2700  2.0506
  789TIP3   OH223781   3.269   2.859   1.862 -0.2266 -0.4036 -0.5063
  789TIP3    H123782   3.288   2.822   1.949  1.4113 -0.9878 -1.0799
  789TIP3    H223783   3.186   2.818   1.837  0.3415 -1.8772 -0.0937
  790TIP3   OH223784   6.148   3.621  14.465 -0.2620 -0.0933 -0.3617
  790TIP3    H123785   6.122   3.709  14.492 -2.1232 -0.2128 -1.5469
  790TIP3    H223786   6.194   3.585  14.541  1.7353  2.3360 -0.3137
  791TIP3   OH223787   0.043   0.117   2.337 -0.4975 -0.2022  0.4232
  791TIP3    H123788   0.046   0.212   2.329 -0.3951 -0.1640  0.8707
  791TIP3    H223789   0.035   0.101   2.431 -2.4212 -0.5910  0.2241
  792TIP3   OH223790   6.532   2.848   5.273  0.3497  0.3140  0.3819
  792TIP3    H123791   6.624   2.826   5.288 -0.2083 -1.2775  1.8669
  792TIP3    H223792   6.505   2.790   5.202  0.8000  1.7060 -0.9516
  793TIP3   OH223793   5.830   5.777  15.157 -0.2685 -0.1006 -0.0372
  793TIP3    H123794   5.739   5.755  15.177 -0.3870  0.5417  0.1733
  793TIP3    H223795   5.880   5.699  15.179 -0.7184 -0.3046  0.2752
  794TIP3   OH223796   5.919   4.226  14.430  0.3721 -0.5445 -0.1232
  794TIP3    H123797   6.006   4.187  14.426  1.0024  0.5253  1.8058
  794TIP3    H223798   5.890   4.210  14.520  0.3356  2.5714  0.5381
  795TIP3   OH223799   0.775   4.014   5.227  0.4339  0.1181 -0.2633
  795TIP3    H123800   0.852   4.003   5.282 -0.4226 -0.1934  0.9251
  795TIP3    H223801   0.739   3.925   5.218 -1.3309  0.5694  1.5863
  796TIP3   OH223802   5.348   6.220  15.558  0.4400 -0.1662 -0.2081
  796TIP3    H123803   5.317   6.267  15.635  0.6150  1.2243 -0.9614
  796TIP3    H223804   5.275   6.161  15.536  0.0738 -0.0069  0.5330
  797TIP3   OH223805   3.037   4.119   1.049 -0.2786  0.4804  0.1667
  797TIP3    H123806   2.946   4.113   1.076  0.3109 -1.0783  2.0179
  797TIP3    H223807   3.087   4.118   1.130  1.4340  0.5134 -0.8318
  798TIP3   OH223808   1.541   4.111   3.086  0.0359  0.6542 -0.0775
  798TIP3    H123809   1.603   4.051   3.129 -1.7751 -0.2036  1.4709
  798TIP3    H223810   1.471   4.054   3.054  0.1197  1.5849 -2.0536
  799TIP3   OH223811   6.319   1.187   3.259  0.1267  0.4333 -0.1570
  799TIP3    H123812   6.286   1.153   3.342 -0.7939 -0.2806 -0.7899
  799TIP3    H223813   6.267   1.267   3.244 -1.1447 -0.5140 -0.9933
  800TIP3   OH223814   0.202   1.347   2.035 -0.6520  0.0515 -0.1840
  800TIP3    H123815   0.184   1.399   2.113  3.3250  0.2329  0.8321
  800TIP3    H223816   0.222   1.259   2.068  0.2093 -0.1098 -1.0759
  801TIP3   OH223817   1.188   0.157  13.104 -0.2527 -0.0711  0.4666
  801TIP3    H123818   1.257   0.131  13.044  0.5989  1.3410  0.7978
  801TIP3    H223819   1.149   0.074  13.133  0.4781 -0.8332 -0.6524
  802TIP3   OH223820   2.060   2.816   5.197 -0.2621 -0.8162 -0.1964
  802TIP3    H123821   2.112   2.881   5.243  0.9558 -1.7157 -0.2434
  802TIP3    H223822   2.101   2.732   5.219 -1.1140 -1.4742 -1.0097
  803TIP3   OH223823   1.771   3.225   3.570 -0.4005  0.1350  0.4694
  803TIP3    H123824   1.738   3.173   3.644 -0.0069  0.0640  0.5953
  803TIP3    H223825   1.819   3.297   3.610  1.9304 -1.2319  0.3136
  804TIP3   OH223826   3.741   5.058  16.603 -0.3869 -0.1658 -0.0612
  804TIP3    H123827   3.752   4.977  16.653 -0.1966 -0.5588 -0.7285
  804TIP3    H223828   3.706   5.029  16.519 -1.5979  0.5789  0.1726
  805TIP3   OH223829   6.021   5.225  16.590  0.1274 -0.3663 -0.2354
  805TIP3    H123830   6.080   5.177  16.648  0.2661 -2.1888 -1.7933
  805TIP3    H223831   6.063   5.221  16.504 -0.6971  1.1476 -0.7565
  806TIP3   OH223832   0.315   4.795  16.100  0.1098 -0.4502  0.3172
  806TIP3    H123833   0.243   4.773  16.040  0.0369 -0.7643  0.5199
  806TIP3    H223834   0.290   4.755  16.183  0.3574 -0.2711  0.4800
  807TIP3   OH223835   3.287   3.036   4.592  0.2239  0.2040  0.5992
  807TIP3    H123836   3.207   2.990   4.616 -0.1627 -1.4362 -3.0708
  807TIP3    H223837   3.256   3.108   4.536  1.2405  0.2856  0.1258
  808TIP3   OH223838   2.101   3.578   3.347  0.2803  0.3482 -0.3440
  808TIP3    H123839   2.053   3.543   3.272  0.6126  0.9654 -0.8558
  808TIP3    H223840   2.049   3.552   3.423 -0.4889  0.3988 -0.8412
  809TIP3   OH223841   3.074   1.190  11.074 -0.2931 -0.4274 -0.1593
  809TIP3    H123842   3.046   1.102  11.050  0.7368 -0.4946 -1.1924
  809TIP3    H223843   3.015   1.248  11.025 -0.4329 -0.5473 -0.1340
  810TIP3   OH223844   3.338   1.995   0.569  0.1815 -0.5573  0.1663
  810TIP3    H123845   3.274   2.035   0.509 -0.0230 -1.1615 -0.0220
  810TIP3    H223846   3.317   1.902   0.568  0.1440 -0.5748  1.2278
  811TIP3   OH223847   0.514   0.311   3.387 -0.4570 -0.6372 -0.3929
  811TIP3    H123848   0.598   0.306   3.341  0.0601  0.2654  0.4040
  811TIP3    H223849   0.457   0.360   3.328 -0.6986 -1.9356 -1.2902
  812TIP3   OH223850   2.924   0.276  14.166 -0.0196  0.1445 -0.2728
  812TIP3    H123851   2.896   0.202  14.112 -0.0294 -0.6191  0.7391
  812TIP3    H223852   2.870   0.270  14.245  0.3164  0.9518  0.0346
  813TIP3   OH223853   3.263   5.753   1.205 -0.1083  0.0897 -0.0845
  813TIP3    H123854   3.266   5.830   1.262  1.0344 -0.4055  0.5665
  813TIP3    H223855   3.354   5.722   1.202 -0.4911 -1.0417 -0.5948
  814TIP3   OH223856   3.226   0.041   4.396 -0.3580  0.3575 -0.2371
  814TIP3    H123857   3.155   0.071   4.452 -0.4312  1.3872 -0.8457
  814TIP3    H223858   3.212  -0.053   4.386 -0.6332  0.2508  1.0400
  815TIP3   OH223859   2.792   0.837  10.870 -0.2490 -0.1280 -0.0102
  815TIP3    H123860   2.736   0.760  10.881 -0.1710 -0.0765  0.8646
  815TIP3    H223861   2.836   0.824  10.786 -1.0354 -0.5164 -0.3690
  816TIP3   OH223862   2.709   5.088  16.005  0.6900 -0.0803  0.3122
  816TIP3    H123863   2.718   5.032  15.927  0.8534 -1.6410  1.4126
  816TIP3    H223864   2.677   5.171  15.970 -0.0479 -0.9948 -1.3503
  817TIP3   OH223865   0.682   3.361   0.321 -0.2631  0.0546 -0.7101
  817TIP3    H123866   0.763   3.408   0.300  0.3990 -0.7654 -0.0219
  817TIP3    H223867   0.692   3.275   0.279  0.3396 -0.9845  1.4507
  818TIP3   OH223868   5.561   0.458   6.293 -0.0651 -0.5078  0.3554
  818TIP3    H123869   5.586   0.549   6.278 -2.2719  0.3079  1.2898
  818TIP3    H223870   5.577   0.414   6.209 -0.7461  1.1609 -0.6957
  819TIP3   OH223871   0.603   4.191   1.560 -0.0927  0.1291  0.4615
  819TIP3    H123872   0.686   4.230   1.588  1.4328 -1.9316 -0.9068
  819TIP3    H223873   0.601   4.205   1.465 -0.8644 -0.6380  0.3550
  820TIP3   OH223874   3.152   4.828   3.900 -0.5895  0.3237 -0.0447
  820TIP3    H123875   3.233   4.808   3.854 -0.1920  0.0630  0.7534
  820TIP3    H223876   3.131   4.748   3.948 -1.0601  0.5510  0.1301
  821TIP3   OH223877   1.761   1.024   3.026 -0.0029  0.4701  0.8126
  821TIP3    H123878   1.723   1.001   3.110 -0.0230 -1.6671  0.2758
  821TIP3    H223879   1.701   1.089   2.989 -1.4208 -0.5193  1.3197
  822TIP3   OH223880   4.952   1.605   1.797  0.6347  0.0390 -0.1835
  822TIP3    H123881   4.992   1.568   1.875 -2.0433 -2.2130  0.2776
  822TIP3    H223882   5.016   1.588   1.727  1.1169 -2.2260  0.7208
  823TIP3   OH223883   1.737   1.507  10.471  0.0404 -0.0419 -0.3496
  823TIP3    H123884   1.667   1.534  10.530  0.9458  0.0937  0.7000
  823TIP3    H223885   1.693   1.460  10.400 -1.2650  1.4613 -0.5883
  824TIP3   OH223886   5.941   3.977  12.564  0.0517 -0.2741  0.2175
  824TIP3    H123887   5.893   3.916  12.508  0.6581 -1.3138  0.8049
  824TIP3    H223888   6.001   4.022  12.504 -1.0031  0.4047 -0.3686
  825TIP3   OH223889   5.236   0.460   4.957 -0.1649  0.2955 -0.2171
  825TIP3    H123890   5.276   0.396   5.015  3.3720  2.2959 -0.1660
  825TIP3    H223891   5.226   0.414   4.873  0.0926 -0.9452  0.4113
  826TIP3   OH223892   0.285   2.065   6.445 -0.1677  0.6264  0.0904
  826TIP3    H123893   0.322   2.091   6.360 -0.1611 -1.6163 -0.6531
  826TIP3    H223894   0.190   2.063   6.430 -0.2490  1.2487  0.4688
  827TIP3   OH223895   5.727   0.788   3.201 -0.1827  0.6695  0.1311
  827TIP3    H123896   5.779   0.727   3.147 -0.5225 -0.0431  0.5926
  827TIP3    H223897   5.636   0.769   3.176 -0.2668  1.3785 -0.1176
  828TIP3   OH223898   5.554   0.013  14.468 -0.3677  0.5610 -0.0589
  828TIP3    H123899   5.628   0.016  14.407 -0.8345 -1.1884 -0.7886
  828TIP3    H223900   5.539   0.104  14.492  2.8434  0.9057  1.1541
  829TIP3   OH223901   6.633   2.223  14.824 -0.3868 -0.4682 -0.1912
  829TIP3    H123902   6.697   2.267  14.880 -0.4769  1.0793 -1.2455
  829TIP3    H223903   6.685   2.195  14.748 -0.6598 -0.6484 -0.3107
  830TIP3   OH223904   5.025   6.168   5.013 -0.0180  0.0128 -0.1997
  830TIP3    H123905   5.013   6.222   4.935  0.7209  0.3859 -0.0685
  830TIP3    H223906   5.040   6.232   5.083  0.9121 -0.3665 -0.0480
  831TIP3   OH223907   5.056   3.364  11.215 -0.4919 -0.3792 -0.1488
  831TIP3    H123908   5.123   3.420  11.175 -0.5204 -0.3702 -0.1839
  831TIP3    H223909   5.058   3.283  11.164  0.5962 -0.9990  0.8227
  832TIP3   OH223910   6.348   0.462   0.844 -0.0653 -0.4599  0.0767
  832TIP3    H123911   6.329   0.556   0.839  1.1114 -0.2546 -1.2070
  832TIP3    H223912   6.267   0.420   0.815 -0.2685  0.2033 -0.3387
  833TIP3   OH223913   2.621   3.209   0.944  0.2583  0.0543  0.2597
  833TIP3    H123914   2.557   3.157   0.993  0.9067 -0.1530  0.9040
  833TIP3    H223915   2.701   3.202   0.995  0.6538  0.7598 -0.2516
  834TIP3   OH223916   5.765   0.527   3.742 -0.2449 -0.3375 -0.1715
  834TIP3    H123917   5.731   0.493   3.659 -0.2753 -1.1120  0.1434
  834TIP3    H223918   5.737   0.463   3.807  1.2439 -0.6548  0.2027
  835TIP3   OH223919   0.022   3.928  11.570 -0.0803  0.3274  0.3675
  835TIP3    H123920   0.097   3.982  11.594 -0.4342  1.0208 -0.0536
  835TIP3    H223921   0.017   3.861  11.639  0.2606  0.9333  0.9869
  836TIP3   OH223922   6.562   1.191  15.920  0.0540  0.1865  1.2122
  836TIP3    H123923   6.588   1.277  15.951 -1.3037  0.3067  2.1160
  836TIP3    H223924   6.479   1.173  15.965 -1.7834  0.1267 -1.9142
  837TIP3   OH223925   2.568   0.686  13.090 -0.4884 -0.0280 -0.8340
  837TIP3    H123926   2.622   0.609  13.106  0.2416  0.6604  0.1078
  837TIP3    H223927   2.612   0.757  13.137 -2.2409  0.5464  0.0407
  838TIP3   OH223928   1.469   0.304  16.225  0.3306 -0.5022 -0.1746
  838TIP3    H123929   1.395   0.255  16.191 -0.8896 -0.2778  2.0045
  838TIP3    H223930   1.430   0.376  16.275  1.9170 -1.2713  2.3655
  839TIP3   OH223931   2.198   0.419  13.524  0.6376  0.1896  0.5378
  839TIP3    H123932   2.258   0.474  13.475  0.2798 -0.4098 -0.6221
  839TIP3    H223933   2.253   0.348  13.558  0.6770 -0.1045 -0.1234
  840TIP3   OH223934   5.918   2.579  16.045  0.1572  0.2649 -0.2815
  840TIP3    H123935   5.909   2.486  16.025  1.6485  0.2296 -0.9764
  840TIP3    H223936   5.926   2.582  16.141  1.5301 -0.5106 -0.3359
  841TIP3   OH223937   6.016   5.581  11.813 -0.1035 -0.4733 -0.4651
  841TIP3    H123938   6.055   5.615  11.733  1.7673 -0.6182  0.3333
  841TIP3    H223939   6.043   5.489  11.815 -0.2152 -0.4915  0.2649
  842TIP3   OH223940   5.764   5.380   0.647 -0.3906 -0.2419  0.3803
  842TIP3    H123941   5.730   5.355   0.733  0.3082 -2.2122  0.1250
  842TIP3    H223942   5.840   5.434   0.667 -1.7841  1.6496  0.9449
  843TIP3   OH223943   3.957   0.039  16.973 -0.3951  0.1104  0.5504
  843TIP3    H123944   4.028   0.037  16.909  0.3401  0.6369  1.3362
  843TIP3    H223945   3.969  -0.041  17.024  0.5607  0.9228  1.6459
  844TIP3   OH223946   2.183   0.215   2.634 -0.5564  0.4046  0.0193
  844TIP3    H123947   2.126   0.195   2.708 -0.9587  1.4145 -0.0113
  844TIP3    H223948   2.241   0.139   2.628 -1.7034 -0.5177  0.2287
  845TIP3   OH223949   1.414   4.343   4.863  0.0731 -0.0189 -0.3271
  845TIP3    H123950   1.384   4.390   4.785 -1.2910 -0.0981  0.1248
  845TIP3    H223951   1.446   4.412   4.921 -0.0223  0.1601 -0.4825
  846TIP3   OH223952   3.875   3.762  15.161 -0.2089  0.1039  0.4136
  846TIP3    H123953   3.963   3.746  15.127  0.7114  1.3195  2.1354
  846TIP3    H223954   3.849   3.678  15.201 -0.2921 -0.5675 -0.9830
  847TIP3   OH223955   5.108   1.436  14.797 -0.0825  0.0821 -0.8239
  847TIP3    H123956   5.062   1.361  14.760 -1.2938  0.8463 -0.9091
  847TIP3    H223957   5.069   1.449  14.883 -1.8523  2.2458 -1.8545
  848TIP3   OH223958   1.022   4.265   3.366 -0.1555  0.4568 -0.2574
  848TIP3    H123959   1.071   4.188   3.338 -1.5160 -0.4094 -0.3033
  848TIP3    H223960   1.090   4.328   3.390  0.9954 -0.8585  0.1026
  849TIP3   OH223961   0.705   0.929   4.920  0.4405 -0.0250  0.1610
  849TIP3    H123962   0.750   1.002   4.878  0.4832 -0.2491 -0.1787
  849TIP3    H223963   0.703   0.860   4.854 -0.5942  0.0563  0.0920
  850TIP3   OH223964   3.653   5.887   0.467 -0.4701 -0.0449 -0.7772
  850TIP3    H123965   3.678   5.945   0.395 -0.1636  0.7401 -0.0584
  850TIP3    H223966   3.720   5.818   0.467  0.6610  1.0167 -0.0437
  851TIP3   OH223967   4.184   5.623   1.501 -0.3124 -0.2731 -0.7986
  851TIP3    H123968   4.198   5.624   1.595 -0.4451  1.0687 -0.7706
  851TIP3    H223969   4.131   5.545   1.485 -0.6304 -0.2965  0.2867
  852TIP3   OH223970   1.692   1.198   0.720 -0.1497 -0.3302  0.0621
  852TIP3    H123971   1.683   1.209   0.626 -1.1040 -0.0073  0.1819
  852TIP3    H223972   1.609   1.228   0.756  0.6622  0.7368  1.1102
  853TIP3   OH223973   0.828   6.684  13.507 -0.0033  0.1635  0.3617
  853TIP3    H123974   0.844   6.763  13.455 -1.3441 -1.2786 -2.4750
  853TIP3    H223975   0.735   6.688  13.530 -0.2682 -0.8566 -0.4258
  854TIP3   OH223976   5.812   1.344  13.778  0.2037  0.4771 -0.1601
  854TIP3    H123977   5.760   1.360  13.699 -0.8636 -0.6856  0.2759
  854TIP3    H223978   5.768   1.396  13.846  0.5365  0.6977 -0.1096
  855TIP3   OH223979   4.728   4.329  16.796  0.4559  0.3355 -0.0004
  855TIP3    H123980   4.818   4.315  16.766  0.2577  2.6080 -2.0237
  855TIP3    H223981   4.729   4.417  16.834 -0.9969  0.6279 -0.5717
  856TIP3   OH223982   6.481   5.971   3.083  0.3243  0.1238  0.2590
  856TIP3    H123983   6.440   5.896   3.127 -0.5382  0.8397  0.7158
  856TIP3    H223984   6.572   5.970   3.112 -0.1696  0.4465  1.9188
  857TIP3   OH223985   0.663   3.332   4.665  0.0289  0.6091  0.0265
  857TIP3    H123986   0.574   3.316   4.697 -0.0580 -0.5785 -0.7217
  857TIP3    H223987   0.694   3.407   4.716 -1.0111  0.3788  1.0501
  858TIP3   OH223988   1.624   0.503  10.717 -0.0483  0.2235 -0.2235
  858TIP3    H123989   1.560   0.484  10.785 -0.0718 -0.6555 -0.4699
  858TIP3    H223990   1.602   0.442  10.646  0.9940 -0.0307 -0.3484
  859TIP3   OH223991   3.939   5.801   3.008 -0.2342 -0.0589  0.3532
  859TIP3    H123992   3.929   5.711   3.039  0.9072 -0.1413  0.5102
  859TIP3    H223993   3.850   5.837   3.011 -0.4725 -0.7014  1.7364
  860TIP3   OH223994   4.483   0.363   3.835 -0.1801  0.5614  0.1521
  860TIP3    H123995   4.465   0.445   3.880  0.7910  1.1126 -0.4372
  860TIP3    H223996   4.576   0.347   3.850  0.1307  0.6521 -1.4559
  861TIP3   OH223997   6.155   5.315   0.181 -0.0737 -0.5647 -0.4318
  861TIP3    H123998   6.161   5.333   0.275 -0.0448 -1.5500 -0.2299
  861TIP3    H223999   6.104   5.234   0.175  0.2912 -0.7490 -1.2425
  862TIP3   OH224000   0.651   5.796  13.548 -0.0090  0.0343  0.1886
  862TIP3    H124001   0.716   5.744  13.500  1.6261  0.7611  1.5086
  862TIP3    H224002   0.610   5.851  13.480  1.0217 -0.1719 -0.6329
  863TIP3   OH224003   5.379   2.919  13.385  0.4703 -0.0150 -0.3771
  863TIP3    H124004   5.360   2.831  13.419  0.9065  0.0155 -0.0387
  863TIP3    H224005   5.331   2.978  13.443 -0.7466 -0.0789 -1.2958
  864TIP3   OH224006   4.721   0.878   4.153  0.3078  0.1672  0.1171
  864TIP3    H124007   4.778   0.930   4.097  2.1764 -1.9110 -0.0260
  864TIP3    H224008   4.760   0.885   4.240 -0.4087  0.3386  0.4352
  865TIP3   OH224009   4.112   6.717  12.234 -0.1900  0.7132 -0.0332
  865TIP3    H124010   4.104   6.726  12.139  0.0585  0.0459 -0.1248
  865TIP3    H224011   4.022   6.713  12.266 -0.3642 -2.2740 -0.5840
  866TIP3   OH224012   5.374   6.140   0.012 -0.0648 -0.0772 -0.1411
  866TIP3    H124013   5.418   6.206  -0.043 -0.2280 -0.2722 -0.5114
  866TIP3    H224014   5.407   6.057  -0.021 -0.0364 -0.1921  0.1748
  867TIP3   OH224015   3.245   2.507  13.273 -0.1356 -0.1927  0.0592
  867TIP3    H124016   3.177   2.460  13.224  1.4226 -0.0183 -2.4320
  867TIP3    H224017   3.222   2.493  13.365 -1.6050 -2.9825 -0.6213
  868TIP3   OH224018   3.024   0.777   1.218 -0.2023 -0.1342  0.0231
  868TIP3    H124019   3.107   0.744   1.250 -0.6890 -2.1295 -0.6090
  868TIP3    H224020   3.047   0.841   1.151  0.7924  0.6016  1.0408
  869TIP3   OH224021   3.614   3.512  14.012  0.3730 -0.2317 -0.2145
  869TIP3    H124022   3.622   3.607  14.013  1.0863 -0.2495 -1.8094
  869TIP3    H224023   3.640   3.485  14.101 -0.2514  1.0681  0.3833
  870TIP3   OH224024   2.771   1.087  16.162 -0.0613 -0.1471 -0.1431
  870TIP3    H124025   2.865   1.068  16.162 -0.1071 -0.5062 -1.7656
  870TIP3    H224026   2.763   1.167  16.110 -0.5461  0.6446  1.1045
  871TIP3   OH224027   0.977   6.447  13.455 -0.4411 -0.1847  0.3441
  871TIP3    H124028   0.934   6.529  13.479 -0.7027 -0.1353 -0.2681
  871TIP3    H224029   1.006   6.410  13.538 -1.4925 -0.1189  0.7655
  872TIP3   OH224030   4.279   0.338   0.267  0.8754 -0.3302  0.0939
  872TIP3    H124031   4.277   0.287   0.186  3.0387 -0.8687  0.3275
  872TIP3    H224032   4.217   0.410   0.251  0.2880 -1.1412 -1.5291
  873TIP3   OH224033   5.457   0.289  13.190  0.4073 -0.0060 -0.0171
  873TIP3    H124034   5.514   0.328  13.256  0.7264  0.6112 -0.6420
  873TIP3    H224035   5.485   0.198  13.185  0.1724 -0.1365  0.9085
  874TIP3   OH224036   2.821   6.623  15.234  0.1241 -0.4366 -0.3941
  874TIP3    H124037   2.826   6.605  15.141  0.0812  1.1660 -0.7407
  874TIP3    H224038   2.884   6.562  15.274  0.1799 -1.0954 -1.4666
  875TIP3   OH224039   5.730   6.536  13.667 -0.5803 -0.0010  0.4821
  875TIP3    H124040   5.730   6.441  13.660  0.5045 -0.1301  1.8548
  875TIP3    H224041   5.766   6.565  13.583 -0.4225 -0.8247  0.2530
  876TIP3   OH224042   1.020   2.024   5.728  0.0027  0.1418  0.1970
  876TIP3    H124043   1.060   2.083   5.791  1.1443  0.7516 -1.0442
  876TIP3    H224044   1.044   1.937   5.759 -1.7078  0.2772  2.0509
  877TIP3   OH224045   1.846   0.979  16.846  0.0356  0.5532  0.5614
  877TIP3    H124046   1.751   0.985  16.850  0.0933  0.8794  2.2345
  877TIP3    H224047   1.865   0.949  16.757 -1.5304  1.9943 -0.3067
  878TIP3   OH224048   6.101   4.841  11.356  0.4237 -0.1617 -0.2431
  878TIP3    H124049   6.011   4.869  11.376  0.8842  0.3227  1.2426
  878TIP3    H224050   6.128   4.900  11.284 -0.5419 -0.5378 -0.9378
  879TIP3   OH224051   0.209   4.534   0.161  0.3443 -0.7090  0.1431
  879TIP3    H124052   0.275   4.502   0.100  0.6961 -2.6140  1.4189
  879TIP3    H224053   0.170   4.455   0.198  0.3028  0.3040  2.4954
  880TIP3   OH224054   6.061   1.989   0.367  0.3583 -0.2070 -0.3484
  880TIP3    H124055   6.076   1.921   0.434 -0.7403 -1.1255 -1.0043
  880TIP3    H224056   5.972   2.020   0.384  0.9420  1.3087  0.1127
  881TIP3   OH224057   3.189   3.754   4.789  0.0085  0.3680 -0.2382
  881TIP3    H124058   3.238   3.676   4.814  0.9948  1.3028  0.8774
  881TIP3    H224059   3.123   3.763   4.857  0.0046  0.5898 -0.2708
  882TIP3   OH224060   5.033   5.221  16.436  0.8434  0.4931 -0.2928
  882TIP3    H124061   5.116   5.265  16.420  0.4499  0.9744 -1.0850
  882TIP3    H224062   4.973   5.291  16.463  0.7767  0.0962  0.6395
  883TIP3   OH224063   5.634   6.680   1.605  0.2618 -0.3683 -0.0523
  883TIP3    H124064   5.589   6.602   1.572 -1.7951  0.5403  0.4328
  883TIP3    H224065   5.664   6.655   1.692  0.0432 -0.7795 -0.0912
  884TIP3   OH224066   2.284   4.627  14.233 -0.4738  0.5987 -0.3976
  884TIP3    H124067   2.292   4.688  14.307  2.5538 -1.3640  1.1127
  884TIP3    H224068   2.359   4.648  14.177 -1.4070  0.5210 -1.6989
  885TIP3   OH224069   5.261   2.845  14.513  0.0563  0.6498 -0.2384
  885TIP3    H124070   5.237   2.932  14.545  1.1485  1.1584 -0.7581
  885TIP3    H224071   5.294   2.861  14.425 -1.3419 -0.5202 -1.0159
  886TIP3   OH224072   3.463   5.082   5.988  0.2355 -0.3236  0.0522
  886TIP3    H124073   3.505   5.047   6.066 -1.1839 -0.0781  0.9635
  886TIP3    H224074   3.514   5.046   5.915  2.5741  0.7216  1.0908
  887TIP3   OH224075   1.241   0.672   3.887  0.1388 -0.1530 -0.8281
  887TIP3    H124076   1.327   0.700   3.856  0.4914  0.9208  0.9274
  887TIP3    H224077   1.258   0.597   3.943  0.0949  0.6703  0.3304
  888TIP3   OH224078   6.322   3.898  14.500  0.3581 -0.4205  0.0949
  888TIP3    H124079   6.232   3.895  14.533 -0.2999 -0.1079 -1.5902
  888TIP3    H224080   6.321   3.964  14.432  2.4956  1.4774  1.7338
  889TIP3   OH224081   2.063   3.095  13.884 -0.1244  0.3366 -0.4395
  889TIP3    H124082   1.993   3.039  13.917  0.4106 -0.9195 -1.3450
  889TIP3    H224083   2.108   3.040  13.819  0.2299  1.9195 -1.5832
  890TIP3   OH224084   2.553   3.147   0.519  0.2574 -0.6886  0.1000
  890TIP3    H124085   2.613   3.214   0.551  2.2536 -1.3997 -1.9042
  890TIP3    H224086   2.557   3.154   0.423 -2.3664 -1.2621 -0.1443
  891TIP3   OH224087   1.665   2.009   3.976 -0.6282 -0.4381 -0.2592
  891TIP3    H124088   1.677   1.914   3.962 -0.2188 -0.2294 -1.5227
  891TIP3    H224089   1.683   2.047   3.890  1.1879  0.9668  0.6904
  892TIP3   OH224090   2.408   3.178  16.142 -0.4145 -0.1172 -0.0403
  892TIP3    H124091   2.459   3.259  16.141 -0.3857 -0.1282  0.6372
  892TIP3    H224092   2.317   3.206  16.151 -0.3092 -0.1995  1.4305
  893TIP3   OH224093   1.907   5.642   0.014  0.1894  0.4392 -0.1501
  893TIP3    H124094   1.879   5.563  -0.033 -0.6818  0.3821  0.4334
  893TIP3    H224095   1.965   5.687  -0.047  2.3257 -1.6127  0.2008
  894TIP3   OH224096   4.537   5.331  15.598  0.4973  0.4569 -0.2259
  894TIP3    H124097   4.544   5.408  15.654 -2.5421  0.6231  0.0871
  894TIP3    H224098   4.557   5.257  15.656 -3.0721  0.5809  1.4215
  895TIP3   OH224099   2.131   0.260  14.241  0.6694 -0.2501 -0.1704
  895TIP3    H124100   2.059   0.298  14.292 -0.2026 -0.8288 -0.9424
  895TIP3    H224101   2.101   0.265  14.150  1.7640 -0.1764 -0.5392
  896TIP3   OH224102   4.236   5.963  14.476 -0.5738 -0.0801 -0.0881
  896TIP3    H124103   4.243   5.871  14.503 -1.6452 -0.0374  0.3839
  896TIP3    H224104   4.326   5.990  14.460 -0.1918 -1.0508  0.3300
  897TIP3   OH224105   1.368   3.380   0.084 -0.0121 -0.0941 -0.1233
  897TIP3    H124106   1.404   3.310   0.138 -0.5044  0.4117  0.8887
  897TIP3    H224107   1.373   3.346  -0.006 -0.1027 -1.3627  0.3258
  898TIP3   OH224108   6.643   6.673   1.251  0.3333  0.5006 -0.2026
  898TIP3    H124109   6.569   6.733   1.262  1.5606  1.5600  4.0947
  898TIP3    H224110   6.709   6.725   1.205  0.5324  1.7511  1.4102
  899TIP3   OH224111   4.765   0.955  16.613 -0.1317 -0.2349  0.3533
  899TIP3    H124112   4.852   0.964  16.574 -0.1621 -0.4064  0.2422
  899TIP3    H224113   4.709   1.009  16.557  0.5018  3.0423  2.5771
  900TIP3   OH224114   1.054   4.285  12.018  0.0169 -0.4508  0.1388
  900TIP3    H124115   1.014   4.220  11.960  0.0472 -2.1987  1.9922
  900TIP3    H224116   1.120   4.237  12.067  1.3156  1.4117  0.3186
  901TIP3   OH224117   6.064   1.125   1.794  0.3444  0.1243  0.0255
  901TIP3    H124118   5.986   1.088   1.834  0.0822  0.7633  0.1098
  901TIP3    H224119   6.124   1.140   1.868  0.2527  0.3550  0.0513
  902TIP3   OH224120   5.098   2.242  12.330 -0.1157 -0.4138  0.4653
  902TIP3    H124121   5.076   2.164  12.279 -1.0470 -0.8538  1.5172
  902TIP3    H224122   5.031   2.306  12.306 -1.0170 -0.8740  1.6772
  903TIP3   OH224123   6.201   1.402  10.851  0.6225 -0.3333  0.3549
  903TIP3    H124124   6.143   1.328  10.837  0.6379 -0.6580  1.7951
  903TIP3    H224125   6.144   1.479  10.848  0.5143 -0.4427 -0.5760
  904TIP3   OH224126   4.065   0.099  12.931  1.1050 -0.1961 -0.0323
  904TIP3    H124127   3.972   0.100  12.911  1.3501 -0.2759 -1.3151
  904TIP3    H224128   4.105   0.054  12.856  2.3519  1.4715 -0.4466
  905TIP3   OH224129   0.433   4.691   2.773  0.1662  0.2489  0.6978
  905TIP3    H124130   0.521   4.726   2.755  0.3810 -1.1063 -1.1879
  905TIP3    H224131   0.445   4.596   2.773 -1.2204  0.0627  0.9791
  906TIP3   OH224132   5.491   4.530   1.324 -0.0738  0.0262  0.1795
  906TIP3    H124133   5.540   4.602   1.285  1.0880 -0.9901 -0.2963
  906TIP3    H224134   5.558   4.471   1.359 -0.8282 -2.0587 -1.6567
  907TIP3   OH224135   1.414   3.256   2.837 -0.1289  0.5459  0.2447
  907TIP3    H124136   1.480   3.188   2.846  2.3880  2.9717  1.1700
  907TIP3    H224137   1.384   3.273   2.926  0.5296  1.8093  0.2366
  908TIP3   OH224138   3.207   0.327  13.989  0.0413  0.5407  0.1330
  908TIP3    H124139   3.279   0.285  13.941 -0.1265  0.0902  0.2693
  908TIP3    H224140   3.129   0.310  13.934 -0.1666 -0.0516  0.6006
  909TIP3   OH224141   2.810   0.122  10.580  0.4106 -0.0373  0.1798
  909TIP3    H124142   2.745   0.181  10.618  0.3618 -1.5895  2.7307
  909TIP3    H224143   2.872   0.105  10.651  1.6654 -1.3164 -1.1499
  910TIP3   OH224144   5.439   1.027   4.485 -0.3695 -0.8201 -0.1380
  910TIP3    H124145   5.508   1.094   4.491  0.4758 -1.5935 -0.9179
  910TIP3    H224146   5.454   0.985   4.400 -0.5503 -2.3579  0.5652
  911TIP3   OH224147   0.231   3.145   4.112 -0.2215  0.2435  0.6722
  911TIP3    H124148   0.314   3.152   4.064  1.3227 -2.9235  2.5424
  911TIP3    H224149   0.236   3.214   4.178 -0.1153  1.4885 -0.6047
  912TIP3   OH224150   6.660   5.479  13.773  0.0627 -0.5098  0.3610
  912TIP3    H124151   6.725   5.490  13.703 -0.9246  0.1039 -0.4878
  912TIP3    H224152   6.704   5.510  13.852  1.1710 -1.1295  0.0206
  913TIP3   OH224153   5.350   0.908   4.076  0.5413 -0.3985  0.2501
  913TIP3    H124154   5.424   0.883   4.021  1.4548  2.5461 -0.0830
  913TIP3    H224155   5.382   0.896   4.166 -0.3631 -3.6176  0.2472
  914TIP3   OH224156   1.216   2.822  14.894 -0.2123  0.1093 -0.4671
  914TIP3    H124157   1.169   2.740  14.912 -2.1822  1.2988  0.2054
  914TIP3    H224158   1.284   2.826  14.961  0.0370 -1.0536 -0.6284
  915TIP3   OH224159   5.966   3.614   0.538 -0.4720 -0.2636  0.9711
  915TIP3    H124160   5.921   3.577   0.462 -0.2940  0.6846  0.3808
  915TIP3    H224161   5.952   3.551   0.608 -1.6930 -0.5642  0.4782
  916TIP3   OH224162   6.767   0.025   0.413 -0.6546  0.0440 -0.5446
  916TIP3    H124163   6.763  -0.001   0.321 -2.7994  1.6728 -1.0139
  916TIP3    H224164   6.740   0.117   0.413  1.6839  0.8550  1.4852
  917TIP3   OH224165   1.372   4.983  16.378 -0.0160 -0.2257 -0.1359
  917TIP3    H124166   1.319   4.958  16.453 -1.1984  0.2714 -0.7748
  917TIP3    H224167   1.347   4.921  16.309  1.3050 -0.8929 -0.0362
  918TIP3   OH224168   2.396   0.538   1.232 -0.3064 -0.1419  0.3175
  918TIP3    H124169   2.386   0.586   1.150 -0.3801  1.6273  1.2920
  918TIP3    H224170   2.323   0.568   1.286  0.7761  0.1788  1.6634
  919TIP3   OH224171   4.839   5.704   4.860 -0.0054  0.1979  1.0332
  919TIP3    H124172   4.874   5.789   4.887  1.4881 -0.7411  2.2414
  919TIP3    H224173   4.800   5.668   4.941 -0.3307 -0.4128  0.6131
  920TIP3   OH224174   0.527   4.108  17.169 -0.0464 -0.1323  0.5281
  920TIP3    H124175   0.587   4.168  17.124  0.9255 -1.6234 -0.2544
  920TIP3    H224176   0.448   4.108  17.114  0.1520  0.0255  0.2423
  921TIP3   OH224177   4.491   2.359   0.451 -0.7142  0.0865  0.0966
  921TIP3    H124178   4.437   2.425   0.407  0.1575  0.3651 -0.5895
  921TIP3    H224179   4.502   2.393   0.540 -0.8440  0.5192 -0.0489
  922TIP3   OH224180   3.666   6.460   3.261 -0.3861 -0.7447 -0.2637
  922TIP3    H124181   3.603   6.394   3.292 -1.6943 -0.2669 -1.7397
  922TIP3    H224182   3.626   6.544   3.286  0.5473 -0.4700  0.3240
  923TIP3   OH224183   4.598   2.553   1.459  0.2611 -0.0756  0.1051
  923TIP3    H124184   4.614   2.643   1.487 -2.9581  0.3243  1.0721
  923TIP3    H224185   4.603   2.502   1.540 -0.6558 -0.2840  0.0439
  924TIP3   OH224186   1.757   1.294  14.387  0.3021 -0.0802 -0.0128
  924TIP3    H124187   1.727   1.291  14.477  1.2917  3.1001  0.5541
  924TIP3    H224188   1.845   1.254  14.390  2.2162  3.7713  1.4956
  925TIP3   OH224189   6.777   0.608  13.535 -0.1946 -0.6683 -0.1984
  925TIP3    H124190   6.761   0.598  13.441 -2.9639  0.7578  0.0046
  925TIP3    H224191   6.780   0.519  13.569 -0.5911 -1.1827 -1.4488
  926TIP3   OH224192   5.498   4.171   6.147 -0.3900 -0.2553 -0.8023
  926TIP3    H124193   5.553   4.242   6.179 -0.6519 -1.1565  1.8698
  926TIP3    H224194   5.556   4.117   6.093  0.1228  1.2179 -1.7842
  927TIP3   OH224195   3.229   1.834  15.345  0.0887  0.0572  0.3947
  927TIP3    H124196   3.263   1.829  15.434  0.7882 -2.6343  0.0613
  927TIP3    H224197   3.196   1.746  15.327 -3.2707  1.4215 -0.8201
  928TIP3   OH224198   2.269   4.392   1.285  0.3126 -0.2173 -0.1909
  928TIP3    H124199   2.311   4.345   1.213  0.5775  0.2918 -0.3741
  928TIP3    H224200   2.327   4.378   1.360  1.2869  1.1681 -0.6386
  929TIP3   OH224201   0.972   1.649   0.526  0.1415  0.2749 -0.0322
  929TIP3    H124202   1.038   1.715   0.546  0.4022 -0.5216  1.8898
  929TIP3    H224203   0.962   1.599   0.606 -2.9749  0.5028 -0.1264
  930TIP3   OH224204   5.040   4.200   5.144 -0.1252 -0.2993  0.6666
  930TIP3    H124205   4.947   4.200   5.168 -0.8425 -0.8251 -1.8646
  930TIP3    H224206   5.074   4.283   5.177 -1.1335 -0.6549  2.7676
  931TIP3   OH224207   2.865   0.868   2.131 -0.0603  0.0055 -0.4883
  931TIP3    H124208   2.956   0.855   2.159 -0.2355 -1.7997 -0.6338
  931TIP3    H224209   2.850   0.962   2.140  1.5854  0.2267  0.2533
  932TIP3   OH224210   6.088   0.214   3.838 -0.1387 -0.2462 -0.2590
  932TIP3    H124211   6.112   0.188   3.927  2.5447 -0.0168 -0.8417
  932TIP3    H224212   6.156   0.176   3.782 -0.2341  1.8310 -1.9182
  933TIP3   OH224213   2.494   3.869   1.217  0.2147 -0.1908 -0.1856
  933TIP3    H124214   2.537   3.921   1.285  0.0732  0.0802 -0.3004
  933TIP3    H224215   2.489   3.927   1.142  1.4671 -0.8913 -0.8327
  934TIP3   OH224216   5.569   4.343   6.688 -0.8980 -0.1970  0.7468
  934TIP3    H124217   5.631   4.396   6.638 -1.4144 -0.8475 -0.6404
  934TIP3    H224218   5.621   4.270   6.721 -0.8271 -0.5195 -0.0600
  935TIP3   OH224219   6.117   2.782   6.384 -0.3370  0.4418 -0.3062
  935TIP3    H124220   6.125   2.723   6.309  0.1995  0.2601 -0.1144
  935TIP3    H224221   6.059   2.736   6.445 -1.1760  0.8152 -0.8197
  936TIP3   OH224222   3.211   3.245   1.044  0.0330 -0.5806  0.0643
  936TIP3    H124223   3.153   3.296   0.988 -0.2364  0.2998  1.1013
  936TIP3    H224224   3.157   3.172   1.074 -1.2846  1.2158  2.5286
  937TIP3   OH224225   0.317   5.635   3.487 -0.9624  0.2099 -0.3528
  937TIP3    H124226   0.401   5.661   3.451  0.1849 -2.5586  0.0739
  937TIP3    H224227   0.256   5.703   3.458  1.6625  3.3100  0.8412
  938TIP3   OH224228   4.994   6.375   5.160 -0.5917 -0.1065  0.6084
  938TIP3    H124229   5.067   6.438   5.166  0.8313 -1.6058 -0.2288
  938TIP3    H224230   4.939   6.395   5.236  1.1386  0.5282  1.7512
  939TIP3   OH224231   1.121   4.587   1.228 -0.6903 -0.0202 -0.2554
  939TIP3    H124232   1.117   4.625   1.140 -0.9598  0.0648 -0.2082
  939TIP3    H224233   1.053   4.519   1.229 -0.8458  0.1345 -0.0421
  940TIP3   OH224234   4.841   5.296   6.214 -0.0398 -0.7220 -0.0516
  940TIP3    H124235   4.851   5.338   6.300  1.3500  0.0703 -0.5697
  940TIP3    H224236   4.884   5.211   6.224  0.8292 -0.3054 -0.1750
  941TIP3   OH224237   4.231   2.253  16.592 -0.1358 -0.0773 -0.3700
  941TIP3    H124238   4.221   2.278  16.500  0.2708  2.2438  0.1541
  941TIP3    H224239   4.142   2.255  16.627 -0.0872  1.0778 -0.2679
  942TIP3   OH224240   2.278   6.258  13.512  0.0649  0.3112  0.5193
  942TIP3    H124241   2.282   6.351  13.490  1.7501  0.1580  0.0342
  942TIP3    H224242   2.338   6.248  13.586  1.3344 -0.6370 -0.5658
  943TIP3   OH224243   0.603   0.080   1.929  0.1149  0.0369 -0.2727
  943TIP3    H124244   0.607   0.135   2.007  1.4973 -0.9010  0.3445
  943TIP3    H224245   0.593   0.142   1.857 -0.8249  0.9414  0.5843
  944TIP3   OH224246   4.145   2.346   3.330  0.0460  0.0077 -0.2525
  944TIP3    H124247   4.120   2.276   3.390  0.3628 -0.5200 -0.7299
  944TIP3    H224248   4.229   2.378   3.363  2.4964 -3.1829 -2.7585
  945TIP3   OH224249   3.286   1.303  16.274 -0.2979 -0.2982 -0.2648
  945TIP3    H124250   3.329   1.380  16.237 -0.4993  0.5855  1.2774
  945TIP3    H224251   3.209   1.290  16.219 -1.2393  1.7140  0.4724
  946TIP3   OH224252   4.048   1.472  10.776 -0.3995  0.3302  0.0812
  946TIP3    H124253   4.067   1.384  10.744  0.6097  0.6542 -0.2500
  946TIP3    H224254   3.955   1.485  10.758 -0.4734 -0.5373 -0.1851
  947TIP3   OH224255   1.594   4.678   4.358 -0.9585 -0.7497 -0.3538
  947TIP3    H124256   1.567   4.737   4.428 -0.4998 -1.6408  0.5899
  947TIP3    H224257   1.517   4.625   4.340 -0.6165 -1.5884  0.5888
  948TIP3   OH224258   0.259   3.914  15.298 -0.0491 -0.1857  0.3539
  948TIP3    H124259   0.209   3.873  15.369 -0.8797 -1.3433 -0.8491
  948TIP3    H224260   0.243   4.007  15.308 -0.0287 -0.3191  1.7687
  949TIP3   OH224261   6.143   6.679  13.071 -0.7436 -0.1143  0.3422
  949TIP3    H124262   6.228   6.646  13.101 -1.0711 -1.0058  0.3201
  949TIP3    H224263   6.162   6.721  12.988 -0.3986 -0.7642  0.0852
  950TIP3   OH224264   3.193   6.493  14.411  0.3144 -0.1713 -0.1839
  950TIP3    H124265   3.165   6.554  14.342 -1.5062 -1.1271 -0.3637
  950TIP3    H224266   3.222   6.550  14.482  2.6451  0.8408 -1.8330
  951TIP3   OH224267   1.410   5.048  12.776  0.2869 -0.0242 -0.0481
  951TIP3    H124268   1.316   5.028  12.778  0.5366 -1.1681  0.3598
  951TIP3    H224269   1.451   4.970  12.740  1.2792 -0.2770  1.5493
  952TIP3   OH224270   3.795   1.586  14.484 -0.0809  0.1078  0.2058
  952TIP3    H124271   3.838   1.596  14.399  0.4725  0.6205  0.5406
  952TIP3    H224272   3.794   1.491  14.499  2.8609  0.1066  1.1193
  953TIP3   OH224273   4.171   2.485  16.992  0.5622 -0.1000  0.2043
  953TIP3    H124274   4.228   2.491  16.915  0.8518  2.2505  0.5205
  953TIP3    H224275   4.107   2.555  16.980 -0.2703 -0.6153  1.4227
  954TIP3   OH224276   4.454   3.484   5.007  0.1330 -0.3013 -0.3180
  954TIP3    H124277   4.452   3.395   4.972  1.4295 -0.6185  0.3613
  954TIP3    H224278   4.428   3.475   5.099 -1.4288  0.2784 -0.6680
  955TIP3   OH224279   0.432   3.413  12.321 -0.1173  0.1472 -0.7236
  955TIP3    H124280   0.441   3.367  12.238 -0.3449 -0.0217 -0.6595
  955TIP3    H224281   0.352   3.465  12.311 -0.7261 -0.6617 -0.2606
  956TIP3   OH224282   4.646   0.083  16.990 -0.4450  0.4846 -0.4127
  956TIP3    H124283   4.711   0.063  16.923 -0.6576 -1.3428 -0.1113
  956TIP3    H224284   4.661   0.175  17.011  1.4232  0.3519 -1.0071
  957TIP3   OH224285   3.801   4.560  15.167 -0.1003 -0.1748 -0.6134
  957TIP3    H124286   3.834   4.605  15.245 -1.3138 -2.0779  1.0872
  957TIP3    H224287   3.858   4.589  15.096  2.0033  0.4603  1.2518
  958TIP3   OH224288   0.707   0.287  14.828 -0.1164  0.4485 -0.6945
  958TIP3    H124289   0.688   0.207  14.877  0.1491  0.2442 -0.9269
  958TIP3    H224290   0.642   0.289  14.758 -2.6635  2.3887  1.4957
  959TIP3   OH224291   0.136   1.656  13.763 -0.4247  0.2906 -0.0063
  959TIP3    H124292   0.148   1.566  13.735 -0.7080  0.5177 -0.9181
  959TIP3    H224293   0.216   1.701  13.735 -0.2515  0.3080  0.5122
  960TIP3   OH224294   6.553   3.407  11.324  0.1526 -0.2083  0.1409
  960TIP3    H124295   6.566   3.499  11.346 -0.8300  0.1157 -0.5810
  960TIP3    H224296   6.476   3.381  11.375  0.6363 -0.7399  0.6178
  961TIP3   OH224297   1.334   3.741  14.568 -0.1714  0.1440  0.0126
  961TIP3    H124298   1.261   3.682  14.548 -0.2298 -0.1237  0.9766
  961TIP3    H224299   1.307   3.787  14.647 -0.2335  1.6667 -0.8504
  962TIP3   OH224300   3.274   1.731   3.932  0.3651  0.6483 -0.4605
  962TIP3    H124301   3.249   1.761   4.019 -0.1647  1.0654 -0.7432
  962TIP3    H224302   3.190   1.724   3.885  0.6910  0.9990 -1.1067
  963TIP3   OH224303   1.466   3.425  11.739  0.6656 -0.6932 -0.3187
  963TIP3    H124304   1.559   3.419  11.763  0.3002 -0.6983  1.1592
  963TIP3    H224305   1.429   3.487  11.802 -0.0660  0.4486 -1.7905
  964TIP3   OH224306   5.634   0.151  14.984  0.1879 -0.3721  0.3568
  964TIP3    H124307   5.654   0.149  14.890 -0.5649 -0.4030  0.1881
  964TIP3    H224308   5.619   0.060  15.007 -0.9715 -0.2328  0.1948
  965TIP3   OH224309   1.054   3.181   1.376  0.2228 -0.8306  0.0617
  965TIP3    H124310   1.038   3.091   1.404 -1.3549 -0.2353  1.2700
  965TIP3    H224311   0.969   3.211   1.343  0.1782  0.8092  1.5141
  966TIP3   OH224312   3.495   0.763  14.126  0.0777  0.2319  0.4096
  966TIP3    H124313   3.457   0.705  14.191  0.8621  0.9544  1.5544
  966TIP3    H224314   3.483   0.718  14.043 -2.7535  0.1780  0.7568
  967TIP3   OH224315   2.369   0.667   0.969  0.1450  0.0992  0.5351
  967TIP3    H124316   2.305   0.714   0.916 -2.0332 -0.6990  2.3226
  967TIP3    H224317   2.446   0.725   0.969 -1.0048  1.7344 -0.5954
  968TIP3   OH224318   3.814   2.196   2.199  0.1424  0.5062 -0.0470
  968TIP3    H124319   3.740   2.229   2.250 -1.1378  0.3342 -1.7087
  968TIP3    H224320   3.856   2.275   2.163  0.0465  0.5513 -0.0596
  969TIP3   OH224321   4.433   0.374  11.558 -0.4250 -0.2952 -0.0588
  969TIP3    H124322   4.369   0.339  11.619 -0.4610  1.0810  0.7482
  969TIP3    H224323   4.512   0.322  11.573  0.6683  1.9969  3.6481
  970TIP3   OH224324   3.546   0.671   4.456 -0.7977 -0.4779 -1.0078
  970TIP3    H124325   3.576   0.585   4.426 -0.5601 -0.8114  0.1290
  970TIP3    H224326   3.567   0.672   4.550 -1.5836  0.4763 -0.8258
  971TIP3   OH224327   2.087   2.269   6.080 -0.1078  0.0656  0.3379
  971TIP3    H124328   2.055   2.228   5.999 -0.2694  2.2525 -0.7646
  971TIP3    H224329   2.173   2.303   6.057 -0.0305  0.4529  1.1894
  972TIP3   OH224330   5.470   4.253  15.425 -0.0528  0.0441 -0.0061
  972TIP3    H124331   5.399   4.273  15.364 -2.0882  1.7378  2.6770
  972TIP3    H224332   5.488   4.160  15.411 -0.0715  0.4256 -3.3721
  973TIP3   OH224333   2.258   5.522  15.114 -0.1950 -0.3470  0.5104
  973TIP3    H124334   2.216   5.448  15.156  0.2266 -0.6908  0.3303
  973TIP3    H224335   2.265   5.497  15.022 -2.2994  0.9165 -0.0694
  974TIP3   OH224336   4.005   3.879  14.021  0.0949 -0.6712  0.2599
  974TIP3    H124337   4.076   3.943  14.013  0.6228 -1.3479 -0.7630
  974TIP3    H224338   4.007   3.851  14.112  0.2362  0.3326  0.5737
  975TIP3   OH224339   5.208   4.864   0.662  0.6986 -0.5138  0.1278
  975TIP3    H124340   5.135   4.803   0.677  1.4997 -0.9022  3.1728
  975TIP3    H224341   5.171   4.932   0.606 -0.5595 -3.1427 -2.4793
  976TIP3   OH224342   5.620   2.255  14.998  0.2108  0.1929  0.1034
  976TIP3    H124343   5.625   2.192  15.070 -2.6324  0.9330  1.0788
  976TIP3    H224344   5.549   2.224  14.943  0.9904  0.7762 -1.2951
  977TIP3   OH224345   0.836   2.725   6.014 -0.1187  0.4413 -0.2117
  977TIP3    H124346   0.772   2.795   6.028  2.4366  3.0336 -0.5958
  977TIP3    H224347   0.821   2.697   5.924 -1.3645  0.2231  0.0390
  978TIP3   OH224348   2.027   3.599  11.295 -0.5467  0.1203 -0.2517
  978TIP3    H124349   1.938   3.631  11.276 -1.7948 -1.7574  1.8298
  978TIP3    H224350   2.023   3.506  11.274  0.4176 -0.3135  1.3522
  979TIP3   OH224351   3.785   5.829  11.434 -0.4721  0.0687 -0.4705
  979TIP3    H124352   3.794   5.735  11.419 -0.9483  0.1674 -1.4435
  979TIP3    H224353   3.810   5.841  11.525  1.9539 -0.6645 -0.9655
  980TIP3   OH224354   4.755   2.560  15.882 -0.0974 -0.4182 -0.2759
  980TIP3    H124355   4.834   2.506  15.890 -0.0250 -0.3078 -0.2353
  980TIP3    H224356   4.724   2.544  15.793 -0.8183 -1.5319  0.1558
  981TIP3   OH224357   5.918   3.584  14.823 -0.3384  0.3884 -0.7275
  981TIP3    H124358   5.848   3.634  14.782 -1.3773  0.3349  0.8973
  981TIP3    H224359   5.914   3.498  14.781 -1.3244  0.3566 -0.5883
  982TIP3   OH224360   5.992   6.508  12.755 -0.3436 -0.8436  0.0133
  982TIP3    H124361   5.973   6.535  12.666  2.4169 -0.8117 -0.6710
  982TIP3    H224362   6.040   6.582  12.793 -0.2560 -1.4039  1.0476
  983TIP3   OH224363   6.684   2.979  14.451 -0.1344  0.1848  0.0835
  983TIP3    H124364   6.739   2.964  14.528  0.6777  2.8795  0.1256
  983TIP3    H224365   6.595   2.973  14.485  0.2033  0.8400  1.1375
  984TIP3   OH224366   4.779   4.652   4.135 -0.2951  0.5529  0.5292
  984TIP3    H124367   4.715   4.716   4.103 -1.3250 -0.1496  1.1152
  984TIP3    H224368   4.849   4.655   4.071 -2.5388 -1.2474 -2.2757
  985TIP3   OH224369   1.113   1.835   0.074  0.0956  0.4013 -0.3914
  985TIP3    H124370   1.053   1.881   0.131 -0.3426  1.3115 -1.5468
  985TIP3    H224371   1.126   1.893  -0.001  4.1302  1.2653  0.7133
  986TIP3   OH224372   6.548   3.088   5.091 -0.2510 -0.1857  0.0899
  986TIP3    H124373   6.487   3.100   5.163 -0.7780 -0.0415 -0.3738
  986TIP3    H224374   6.541   2.995   5.068  1.2357 -0.6523  1.3783
  987TIP3   OH224375   3.365   0.163  12.811 -0.2645 -0.1414  0.5172
  987TIP3    H124376   3.355   0.240  12.867  0.2308 -0.7310  1.4452
  987TIP3    H224377   3.375   0.090  12.872 -2.5681 -1.2304 -0.3010
  988TIP3   OH224378   2.344   0.410  16.996  0.3450 -0.1197  0.0964
  988TIP3    H124379   2.363   0.443  17.084 -0.3996  2.0676 -0.5061
  988TIP3    H224380   2.262   0.453  16.971  0.9416 -0.0663 -1.9761
  989TIP3   OH224381   1.096   1.741  11.817  0.4855 -0.4825  0.7520
  989TIP3    H124382   1.144   1.792  11.752 -0.9633  1.2790  0.9721
  989TIP3    H224383   1.043   1.680  11.766  0.5148 -0.1685  0.3418
  990TIP3   OH224384   4.610   2.474   5.041  0.0178  0.6131 -0.2876
  990TIP3    H124385   4.576   2.387   5.062 -0.7993  1.2202  1.0437
  990TIP3    H224386   4.701   2.458   5.014 -0.1517 -0.6543 -0.2023
  991TIP3   OH224387   3.363   3.470   0.030  0.3840 -0.5066  0.1256
  991TIP3    H124388   3.283   3.436  -0.010  0.0485  1.1757 -0.7200
  991TIP3    H224389   3.420   3.393   0.039 -0.3330 -1.3083 -1.6736
  992TIP3   OH224390   4.015   0.735  10.621 -0.3804  0.3296  0.2315
  992TIP3    H124391   3.928   0.741  10.584 -0.2041  3.1953  0.0598
  992TIP3    H224392   4.063   0.809  10.583  1.0654  0.9123  2.8898
  993TIP3   OH224393   1.463   4.914  11.627 -0.7179  0.2901 -0.3124
  993TIP3    H124394   1.465   5.006  11.651 -0.0655  1.0269 -2.8123
  993TIP3    H224395   1.498   4.912  11.538 -1.4300 -2.2936 -0.6286
  994TIP3   OH224396   6.175   3.868  16.182 -0.2681  0.7900  0.0151
  994TIP3    H124397   6.151   3.814  16.257 -0.0781  1.3587  0.4883
  994TIP3    H224398   6.265   3.896  16.200  1.0803 -1.7283 -1.9593
  995TIP3   OH224399   1.244   5.332   2.386 -0.4331  0.8562 -0.6766
  995TIP3    H124400   1.274   5.379   2.309  0.8349  0.0774 -0.6861
  995TIP3    H224401   1.157   5.301   2.362  1.2122 -2.3851 -3.2564
  996TIP3   OH224402   3.532   5.698   1.219 -0.4413  0.4349 -0.0934
  996TIP3    H124403   3.620   5.706   1.255 -0.0327 -0.7465 -0.7705
  996TIP3    H224404   3.516   5.781   1.175  0.7932  0.2718 -0.9024
  997TIP3   OH224405   0.445   3.320  13.118 -0.0399 -0.3864  0.3083
  997TIP3    H124406   0.456   3.380  13.045  0.8911 -0.0155  0.7416
  997TIP3    H224407   0.476   3.235  13.085  0.6062 -0.1667  0.3531
  998TIP3   OH224408   6.574   1.152   0.936 -0.2390  0.2526 -0.4372
  998TIP3    H124409   6.555   1.234   0.981  0.1093 -1.4717  3.1969
  998TIP3    H224410   6.537   1.084   0.993  1.7738 -2.2653 -1.9016
  999TIP3   OH224411   4.968   5.148   3.535 -0.3326  0.2873 -0.1346
  999TIP3    H124412   4.897   5.179   3.591  0.7573  2.1778  0.2957
  999TIP3    H224413   4.924   5.095   3.469 -1.7849 -1.1169  1.8267
 1000TIP3   OH224414   5.740   3.585  16.592  0.2299 -0.1745 -0.6085
 1000TIP3    H124415   5.709   3.520  16.654 -0.2218  1.1381  0.5838
 1000TIP3    H224416   5.753   3.536  16.511  3.7174 -2.6446  1.1777
 1001TIP3   OH224417   4.733   5.526   2.048 -0.1190  0.0875 -0.1009
 1001TIP3    H124418   4.771   5.467   2.113  0.1703  0.9767  0.5605
 1001TIP3    H224419   4.783   5.510   1.968  1.5389  1.0671  0.6878
 1002TIP3   OH224420   3.142   2.898  12.648  0.1322  0.4339 -0.3063
 1002TIP3    H124421   3.229   2.874  12.680  0.3424  1.9026  0.2893
 1002TIP3    H224422   3.093   2.922  12.726 -0.5745  0.3560 -0.7154
 1003TIP3   OH224423   4.723   3.579   4.210  0.2626 -0.4120 -0.0524
 1003TIP3    H124424   4.810   3.576   4.170 -0.4840  0.9488 -1.9477
 1003TIP3    H224425   4.736   3.628   4.291  1.5263 -1.6907  0.5694
 1004TIP3   OH224426   0.432   3.667   1.505  0.6781 -0.4407  0.0626
 1004TIP3    H124427   0.434   3.757   1.472  1.9480 -0.3231  0.4070
 1004TIP3    H224428   0.518   3.654   1.545  0.1718 -1.5024  0.8588
 1005TIP3   OH224429   0.736   6.121   3.381  0.2262 -0.4421  0.0398
 1005TIP3    H124430   0.814   6.175   3.388 -0.0437  0.3730 -2.4184
 1005TIP3    H224431   0.763   6.045   3.330 -0.5250 -0.2248 -0.7063
 1006TIP3   OH224432   5.008   0.944  14.252 -0.4545 -0.2479  0.1652
 1006TIP3    H124433   4.990   0.979  14.339  0.3832  0.2439  0.1572
 1006TIP3    H224434   4.967   1.008  14.193  1.1872  0.8511  0.1473
 1007TIP3   OH224435   2.458   3.569   3.444  0.4548  0.2248 -0.3865
 1007TIP3    H124436   2.376   3.610   3.415  1.5720  2.0072 -1.1778
 1007TIP3    H224437   2.450   3.478   3.416 -0.8682  0.5895 -1.3000
 1008TIP3   OH224438   4.291   3.286  12.746 -0.9167 -0.0962 -0.4561
 1008TIP3    H124439   4.318   3.204  12.706  1.5306  0.3960  0.0258
 1008TIP3    H224440   4.315   3.353  12.682  1.4470  0.5579  1.0058
 1009TIP3   OH224441   1.849   5.818  15.007 -0.2154  0.2978 -0.7865
 1009TIP3    H124442   1.824   5.726  15.005  1.7751 -0.3903  1.3871
 1009TIP3    H224443   1.914   5.824  15.078  0.2940  3.2253 -1.3652
 1010TIP3   OH224444   0.522   5.289   3.076 -0.1772 -0.7623  0.2723
 1010TIP3    H124445   0.536   5.241   3.158  0.3644 -0.5986  0.2832
 1010TIP3    H224446   0.595   5.351   3.072  0.8703 -2.0115 -1.2258
 1011TIP3   OH224447   3.730   5.016   3.413  0.0122 -0.1525  0.1235
 1011TIP3    H124448   3.710   5.092   3.468 -1.1362  1.7335 -2.7070
 1011TIP3    H224449   3.650   5.000   3.363  1.3715 -0.9326 -1.9226
 1012TIP3   OH224450   5.960   0.162   0.419  0.7317  0.5613 -0.1589
 1012TIP3    H124451   5.967   0.253   0.390  0.3415  0.0668 -1.9149
 1012TIP3    H224452   5.915   0.118   0.347  2.0888 -1.2856  0.0615
 1013TIP3   OH224453   4.855   1.878  12.505  0.0676 -0.1792 -0.1312
 1013TIP3    H124454   4.849   1.801  12.561 -1.0906  0.3184  0.4654
 1013TIP3    H224455   4.911   1.938  12.555 -1.0031  0.2824  0.5524
 1014TIP3   OH224456   1.618   2.655  13.339 -0.0372  0.4150  0.0227
 1014TIP3    H124457   1.542   2.629  13.287 -0.7373  1.1535  0.6505
 1014TIP3    H224458   1.682   2.684  13.273 -1.1090  1.8399 -0.4440
 1015TIP3   OH224459   3.350   0.313   1.920  0.0951 -0.4471  0.0200
 1015TIP3    H124460   3.332   0.396   1.963 -0.5460 -0.0863 -0.9159
 1015TIP3    H224461   3.291   0.250   1.961 -0.3347 -0.1575 -0.1544
 1016TIP3   OH224462   2.358   4.828  14.433 -0.4146 -0.4669  0.1550
 1016TIP3    H124463   2.307   4.799  14.509  1.2435 -1.2874  1.0204
 1016TIP3    H224464   2.311   4.905  14.401 -0.2321  1.0384  3.1389
 1017TIP3   OH224465   6.227   5.035  15.035 -0.4520  1.0172 -0.3888
 1017TIP3    H124466   6.172   5.072  14.966 -1.0786 -0.1297 -0.5210
 1017TIP3    H224467   6.306   5.007  14.990 -0.5448  0.9569 -0.5157
 1018TIP3   OH224468   6.052   3.353   3.142 -0.1923 -0.1622 -0.3045
 1018TIP3    H124469   6.045   3.449   3.143  1.4283 -0.0079 -0.6609
 1018TIP3    H224470   6.095   3.333   3.058  1.7051 -0.9899  0.8056
 1019TIP3   OH224471   3.153   6.632  16.644  0.1578  0.1407 -0.6256
 1019TIP3    H124472   3.097   6.704  16.674 -1.2171 -1.6381  1.4242
 1019TIP3    H224473   3.126   6.616  16.554 -0.3918  1.3429 -0.6954
 1020TIP3   OH224474   5.547   1.383  16.875  0.0229  0.0594  0.1430
 1020TIP3    H124475   5.467   1.349  16.913 -1.6028  2.7395 -0.5828
 1020TIP3    H224476   5.613   1.371  16.943 -0.7906 -2.7025  0.5618
 1021TIP3   OH224477   6.529   4.657   3.599  0.1840  0.1582  0.9212
 1021TIP3    H124478   6.507   4.749   3.588 -0.1487  0.0159  0.3818
 1021TIP3    H224479   6.485   4.631   3.679  0.0005  0.3830  0.8939
 1022TIP3   OH224480   6.282   3.353   4.002  0.0884  0.2142  0.6926
 1022TIP3    H124481   6.310   3.267   3.970  2.2801  0.8779  0.6599
 1022TIP3    H224482   6.304   3.353   4.095  0.1025  0.7386  0.6922
 1023TIP3   OH224483   5.466   3.596   5.564 -0.3427 -0.1814  0.0075
 1023TIP3    H124484   5.489   3.688   5.572  0.9609 -0.4975  0.1209
 1023TIP3    H224485   5.535   3.559   5.508 -1.0020 -1.0337 -0.2691
 1024TIP3   OH224486   6.235   4.226   5.328 -0.5767 -0.3399 -0.1138
 1024TIP3    H124487   6.317   4.230   5.277 -0.8736 -0.9909 -0.6612
 1024TIP3    H224488   6.220   4.132   5.341 -2.0802 -0.3332 -1.4332
 1025TIP3   OH224489   6.582   2.420  17.166 -0.7859  0.0785  0.2670
 1025TIP3    H124490   6.516   2.419  17.096 -2.0054 -0.7776  1.3808
 1025TIP3    H224491   6.659   2.378  17.128 -1.2891  0.0046 -0.6913
 1026TIP3   OH224492   4.807   2.779  15.152  0.3711  0.0193  0.2226
 1026TIP3    H124493   4.898   2.759  15.173  0.6063  0.2718 -0.4945
 1026TIP3    H224494   4.807   2.792  15.057 -0.6353 -1.1171  0.0485
 1027TIP3   OH224495   1.018   5.703  14.698  0.6947 -0.2409 -0.0934
 1027TIP3    H124496   0.935   5.750  14.701 -0.0737 -1.5665  0.4471
 1027TIP3    H224497   1.077   5.756  14.751  0.7437  1.6339 -1.8898
 1028TIP3   OH224498   4.965   1.768  11.672  0.3369 -0.1879  0.2985
 1028TIP3    H124499   4.910   1.781  11.595 -1.8946 -1.5747  1.5449
 1028TIP3    H224500   5.022   1.695  11.650 -0.0804 -0.3782 -0.1640
 1029TIP3   OH224501   2.631   2.646  10.194  0.1392 -0.1306 -0.2241
 1029TIP3    H124502   2.699   2.713  10.187  1.6290 -1.7062 -1.7770
 1029TIP3    H224503   2.676   2.569  10.227 -1.4777 -0.5292  1.1967
 1030TIP3   OH224504   3.823   0.539   0.975 -0.3251  0.6440 -0.1941
 1030TIP3    H124505   3.888   0.498   1.032  0.6566 -1.5278 -2.6258
 1030TIP3    H224506   3.785   0.609   1.027  1.7578 -0.0146  2.4207
 1031TIP3   OH224507   4.356   6.108   5.824  0.0144 -0.4963  0.3747
 1031TIP3    H124508   4.441   6.128   5.785  0.5126 -2.1916  0.5130
 1031TIP3    H224509   4.348   6.170   5.897  0.4891  0.5869 -0.4625
 1032TIP3   OH224510   5.851   3.906  16.899 -0.0353  0.0248 -0.2993
 1032TIP3    H124511   5.789   3.839  16.925  1.3865 -1.1950  0.1117
 1032TIP3    H224512   5.906   3.863  16.833 -0.8055  1.6771 -2.1015
 1033TIP3   OH224513   0.059   5.005  16.639 -0.4693  0.3345 -0.2793
 1033TIP3    H124514  -0.027   5.046  16.645 -1.1426 -1.1130  0.5998
 1033TIP3    H224515   0.068   4.982  16.547 -3.1480 -3.6136  0.1866
 1034TIP3   OH224516   3.901   5.764   3.321  0.5542 -0.0674  0.4907
 1034TIP3    H124517   3.831   5.806   3.372  0.1882 -1.0454  0.8277
 1034TIP3    H224518   3.981   5.784   3.369  0.3216 -0.1858  0.9348
 1035TIP3   OH224519   0.239   0.166   3.390 -0.1513  0.4525 -0.0452
 1035TIP3    H124520   0.187   0.114   3.451 -0.9221  2.1870  0.8427
 1035TIP3    H224521   0.269   0.241   3.442  1.7164  0.4494 -1.0317
 1036TIP3   OH224522   2.987   3.701   6.085  0.1569 -0.2350  0.8935
 1036TIP3    H124523   2.989   3.716   6.179 -0.0785  0.9965  0.7237
 1036TIP3    H224524   3.017   3.783   6.047  3.4321 -1.7364 -0.0828
 1037TIP3   OH224525   5.700   5.090   0.548 -0.4566 -0.5751  0.2793
 1037TIP3    H124526   5.729   5.169   0.594  1.3297 -2.5287  2.7384
 1037TIP3    H224527   5.630   5.054   0.603  1.1335 -2.5094  1.1233
 1038TIP3   OH224528   1.544   0.089   1.353  0.1746 -0.2327 -0.5197
 1038TIP3    H124529   1.564   0.007   1.308  1.5518 -1.3048  1.8386
 1038TIP3    H224530   1.530   0.064   1.445 -2.3176  1.8408 -0.2086
 1039TIP3   OH224531   6.472   1.013  15.085  0.2440 -0.3044 -0.0531
 1039TIP3    H124532   6.468   1.106  15.062  1.5465 -0.2785 -0.2997
 1039TIP3    H224533   6.419   1.006  15.164  0.0667  0.6391 -0.0694
 1040TIP3   OH224534   2.793   6.005  14.656  0.7570  0.1624 -0.0041
 1040TIP3    H124535   2.745   6.003  14.572 -0.3031 -2.9510  0.5498
 1040TIP3    H224536   2.885   6.003  14.631  0.4507 -1.1509 -1.1381
 1041TIP3   OH224537   2.739   0.929  14.095  0.3782  0.2315  0.0244
 1041TIP3    H124538   2.693   0.980  14.029  0.7472  0.3056 -0.1805
 1041TIP3    H224539   2.675   0.866  14.127  0.2740  0.0211 -0.5911
 1042TIP3   OH224540   5.758   1.294  14.622 -0.7879  0.2189  0.4243
 1042TIP3    H124541   5.838   1.242  14.622 -0.5516  0.5787  0.6088
 1042TIP3    H224542   5.769   1.357  14.551 -1.1108 -0.0338  0.1442
 1043TIP3   OH224543   3.443   0.351  17.013  0.4139  0.0404 -0.1121
 1043TIP3    H124544   3.485   0.277  17.058  1.5275  0.1727 -0.9017
 1043TIP3    H224545   3.515   0.407  16.987 -0.2281  0.1376 -1.7732
 1044TIP3   OH224546   3.525   3.454  16.605 -0.2542 -0.1105  0.7277
 1044TIP3    H124547   3.541   3.433  16.697  3.4477  0.5045  0.3944
 1044TIP3    H224548   3.564   3.381  16.557 -0.2858  0.5578 -0.3383
 1045TIP3   OH224549   5.935   3.552  13.428 -0.4494  0.0110 -0.3326
 1045TIP3    H124550   5.965   3.592  13.346  2.2543 -1.1676 -0.0131
 1045TIP3    H224551   5.928   3.625  13.489  0.4549  0.5346 -0.8263
 1046TIP3   OH224552   6.539   5.752  11.982 -0.2709  0.0614  0.2496
 1046TIP3    H124553   6.483   5.711  11.916 -0.3510  0.8904 -0.2014
 1046TIP3    H224554   6.606   5.685  12.001 -0.6389 -0.4341 -0.1696
 1047TIP3   OH224555   6.787   3.346   1.855  0.0932  0.5591 -0.4276
 1047TIP3    H124556   6.808   3.296   1.934  1.4458  0.3064 -0.9304
 1047TIP3    H224557   6.695   3.325   1.839 -0.1879  0.5498  1.0175
 1048TIP3   OH224558   6.221   6.507  17.204 -0.6461  0.2100 -0.8938
 1048TIP3    H124559   6.261   6.551  17.129  0.1127 -0.6324 -1.0047
 1048TIP3    H224560   6.167   6.574  17.245  0.9397  1.4274 -0.6919
 1049TIP3   OH224561   3.930   2.609   6.448 -0.1063  0.2283 -0.0514
 1049TIP3    H124562   4.001   2.567   6.496 -0.5231  0.7609  1.0759
 1049TIP3    H224563   3.929   2.566   6.363  1.6926  0.3660 -0.1620
 1050TIP3   OH224564   5.976   3.691  13.171  0.4177 -0.4681  0.2104
 1050TIP3    H124565   5.993   3.765  13.112 -0.5343 -0.6414 -0.2945
 1050TIP3    H224566   6.045   3.628  13.150  1.4772  0.3988  0.9120
 1051TIP3   OH224567   2.772   4.587   5.766 -0.0464 -0.2452  0.0253
 1051TIP3    H124568   2.685   4.561   5.796  0.3717  1.1675  2.8397
 1051TIP3    H224569   2.829   4.515   5.793  0.4339  1.2766  3.7770
 1052TIP3   OH224570   3.630   1.283  11.047  0.0262  0.2475  0.2406
 1052TIP3    H124571   3.637   1.324  10.960  0.8967 -1.4417 -0.5373
 1052TIP3    H224572   3.540   1.252  11.052  0.2831 -0.6848 -0.5841
 1053TIP3   OH224573   5.212   5.629  14.895  0.2676 -0.2053 -0.0042
 1053TIP3    H124574   5.224   5.540  14.862 -1.4713 -0.7881  0.8367
 1053TIP3    H224575   5.215   5.684  14.816 -1.8732 -1.3687 -0.9755
 1054TIP3   OH224576   3.579   5.789   2.271 -0.1857  0.1150 -0.1677
 1054TIP3    H124577   3.645   5.856   2.292  0.4215 -0.3491 -0.5908
 1054TIP3    H224578   3.628   5.718   2.231 -0.7398 -0.8425  0.7954
 1055TIP3   OH224579   5.792   1.304   6.259  0.1693  0.2944  0.1174
 1055TIP3    H124580   5.801   1.210   6.278  0.1376  0.1183 -0.6794
 1055TIP3    H224581   5.838   1.348   6.330 -0.9102 -0.2749  1.2025
 1056TIP3   OH224582   2.809   1.806   3.075 -0.0043 -0.4283  0.2586
 1056TIP3    H124583   2.721   1.841   3.064 -0.5038 -1.2427  1.4460
 1056TIP3    H224584   2.846   1.805   2.987 -0.7684  0.9566 -0.0937
 1057TIP3   OH224585   0.700   0.156  11.855  0.2536 -0.1527  0.2479
 1057TIP3    H124586   0.677   0.223  11.790  0.1943 -0.0005  0.4239
 1057TIP3    H224587   0.630   0.092  11.849  0.5308 -0.4162 -0.2191
 1058TIP3   OH224588   3.052   2.965  12.888  0.4328 -0.0258 -0.1963
 1058TIP3    H124589   2.960   2.938  12.890  0.7423 -1.2707 -1.4834
 1058TIP3    H224590   3.098   2.900  12.941  0.6568  0.2787 -0.0124
 1059TIP3   OH224591   6.016   1.806  16.892 -0.5212  0.6835  0.4006
 1059TIP3    H124592   5.948   1.815  16.959  0.7629 -0.2453  1.9238
 1059TIP3    H224593   6.098   1.825  16.939  0.3901  0.4831 -1.0403
 1060TIP3   OH224594   0.301   1.137  14.018 -0.3423 -0.1942 -0.0347
 1060TIP3    H124595   0.307   1.221  13.973  1.2816 -0.5451 -0.5272
 1060TIP3    H224596   0.272   1.075  13.951 -0.1702 -0.2868 -0.0242
 1061TIP3   OH224597   2.327   3.458  12.063 -0.0977  0.0153 -0.5921
 1061TIP3    H124598   2.344   3.417  11.978  2.8844 -1.6638  0.6730
 1061TIP3    H224599   2.267   3.398  12.108 -0.9417  0.4440 -1.1101
 1062TIP3   OH224600   1.149   4.123   2.977  0.3725 -0.2128  1.2364
 1062TIP3    H124601   1.138   4.120   2.882  2.9472 -2.5135  0.8976
 1062TIP3    H224602   1.060   4.118   3.011 -0.5655 -0.5038 -1.0540
 1063TIP3   OH224603   0.352   6.756   4.500  0.5340 -0.1468  0.0097
 1063TIP3    H124604   0.349   6.673   4.548  3.7827  0.6383  1.8457
 1063TIP3    H224605   0.262   6.788   4.502 -1.0015 -3.8302 -1.3701
 1064TIP3   OH224606   0.081   1.502  16.321  0.3796  0.3658  0.8051
 1064TIP3    H124607   0.064   1.591  16.352  0.0349  0.6955 -0.3131
 1064TIP3    H224608   0.174   1.488  16.340  0.7178  1.3795 -0.0165
 1065TIP3   OH224609   5.630   6.386  14.793  0.1430  0.0845  0.1222
 1065TIP3    H124610   5.717   6.385  14.834  0.2818  0.2188 -0.1563
 1065TIP3    H224611   5.612   6.479  14.780  0.2601  0.0332 -0.4390
 1066TIP3   OH224612   1.081   0.570  16.349  0.6411  0.4818  0.5851
 1066TIP3    H124613   1.127   0.543  16.269 -0.9049  0.0419 -0.1860
 1066TIP3    H224614   1.111   0.508  16.416 -0.0189 -0.8349 -0.2896
 1067TIP3   OH224615   1.671   3.688  12.256 -0.5206  0.6624 -0.4161
 1067TIP3    H124616   1.611   3.760  12.240  0.4192  1.9591  1.4998
 1067TIP3    H224617   1.714   3.711  12.338  0.2223 -1.8322 -0.0381
 1068TIP3   OH224618   5.221   2.466   1.795  0.0146  0.4002  0.1114
 1068TIP3    H124619   5.155   2.405   1.829  1.1952 -0.9157  0.1396
 1068TIP3    H224620   5.195   2.482   1.704  1.1080 -2.3374 -0.7920
 1069TIP3   OH224621   4.243   4.493  13.090 -0.5350  0.0903 -0.2448
 1069TIP3    H124622   4.217   4.401  13.090 -2.2387  0.5424  0.5067
 1069TIP3    H224623   4.164   4.541  13.113  0.4182  1.7319 -0.2093
 1070TIP3   OH224624   5.859   5.301  10.556 -0.0974  0.2562 -0.5454
 1070TIP3    H124625   5.844   5.219  10.603  1.0723  0.2549 -0.1489
 1070TIP3    H224626   5.942   5.334  10.591 -0.8919  1.9771 -0.1917
 1071TIP3   OH224627   6.565   0.968  15.453  0.0196  0.0403  0.4082
 1071TIP3    H124628   6.626   1.028  15.411 -2.0628  2.5101  0.6679
 1071TIP3    H224629   6.480   0.988  15.413 -0.8539 -2.5922  0.7224
 1072TIP3   OH224630   2.652   6.393   1.767  0.3220 -0.3575  0.1082
 1072TIP3    H124631   2.719   6.387   1.834 -0.8613  1.3258  1.5219
 1072TIP3    H224632   2.694   6.440   1.694  0.8343  0.2131  0.7638
 1073TIP3   OH224633   0.867   0.861   5.573 -0.3996 -0.0646  0.5075
 1073TIP3    H124634   0.819   0.791   5.617 -1.2846  0.1028 -0.1690
 1073TIP3    H224635   0.900   0.820   5.492  0.6618 -0.1940  0.9850
 1074TIP3   OH224636   5.338   5.849   5.747 -0.0897 -0.0664 -0.8762
 1074TIP3    H124637   5.284   5.774   5.775  0.8417 -0.9927 -1.4832
 1074TIP3    H224638   5.415   5.846   5.803  0.1798  0.1338 -1.2285
 1075TIP3   OH224639   6.548   0.752  13.648  0.1435  0.2684 -0.0998
 1075TIP3    H124640   6.468   0.706  13.622  0.2493  0.6373 -1.1257
 1075TIP3    H224641   6.619   0.698  13.613  0.2643  1.3708 -1.6703
 1076TIP3   OH224642   1.371   3.416   4.845 -0.0950  0.3393  0.2704
 1076TIP3    H124643   1.374   3.393   4.938  0.3937  2.0560  0.7217
 1076TIP3    H224644   1.278   3.433   4.827 -0.4589 -1.7760 -0.0660
 1077TIP3   OH224645   2.680   3.925  17.100  0.1769  0.4538 -0.2206
 1077TIP3    H124646   2.770   3.894  17.093  0.1583  0.6532 -1.6023
 1077TIP3    H224647   2.630   3.866  17.044 -0.6891 -0.1107  1.1066
 1078TIP3   OH224648   5.596   6.574   5.172  0.5650 -0.2093  0.0513
 1078TIP3    H124649   5.648   6.534   5.241  0.8446  0.5033  0.2623
 1078TIP3    H224650   5.560   6.500   5.123 -0.1579 -0.7186  1.3329
 1079TIP3   OH224651   6.344   2.315   5.265  0.3613 -0.8286  0.0185
 1079TIP3    H124652   6.271   2.289   5.322 -0.5201  0.0991 -0.6521
 1079TIP3    H224653   6.421   2.276   5.306 -0.0271  0.8730  2.6393
 1080TIP3   OH224654   1.316   0.771   0.754 -0.8229 -0.3005  0.0394
 1080TIP3    H124655   1.337   0.742   0.665 -1.3680  2.1578 -0.9528
 1080TIP3    H224656   1.348   0.699   0.809  0.6411 -1.3815 -2.0301
 1081TIP3   OH224657   1.706   4.495  11.827 -0.1282  0.3317  0.1480
 1081TIP3    H124658   1.616   4.482  11.797  0.1869  0.0487 -0.7050
 1081TIP3    H224659   1.719   4.589  11.824 -0.3297  0.3573  0.0727
 1082TIP3   OH224660   6.604   0.088  11.680 -0.0208  0.2675 -0.1359
 1082TIP3    H124661   6.611   0.007  11.730 -2.8816  0.2032  0.3379
 1082TIP3    H224662   6.664   0.077  11.607  0.8269 -1.5942  0.7841
 1083TIP3   OH224663   0.796   1.984  13.850  0.4042 -0.0486 -0.3649
 1083TIP3    H124664   0.782   1.987  13.756 -0.5642  0.7790 -0.2121
 1083TIP3    H224665   0.743   2.056  13.885  1.2648  0.0798  0.7504
 1084TIP3   OH224666   0.578   2.477   0.624 -0.0206 -0.2456  0.0232
 1084TIP3    H124667   0.608   2.509   0.709 -2.5740 -2.0153  1.7421
 1084TIP3    H224668   0.658   2.452   0.577  1.4218 -2.1315  3.1766
 1085TIP3   OH224669   4.688   1.202  14.458  0.0375 -0.0246 -0.0232
 1085TIP3    H124670   4.733   1.273  14.413  0.2691 -0.7695 -0.9998
 1085TIP3    H224671   4.602   1.196  14.415 -0.8216  1.0101  1.4458
 1086TIP3   OH224672   0.628   6.538   0.147 -0.6145  0.0120 -0.1710
 1086TIP3    H124673   0.622   6.524   0.241 -3.0366 -0.4947 -0.3253
 1086TIP3    H224674   0.593   6.458   0.108 -0.9648  0.7587 -1.4561
 1087TIP3   OH224675   6.784   5.185  13.779 -0.1582  0.2943  0.2243
 1087TIP3    H124676   6.752   5.095  13.768 -1.4669  0.5352  1.5931
 1087TIP3    H224677   6.711   5.239  13.748 -0.3527  0.8601  1.5902
 1088TIP3   OH224678   4.180   5.472  12.468 -0.1545 -0.1308 -0.3651
 1088TIP3    H124679   4.268   5.511  12.468  0.5229 -1.6029 -0.5964
 1088TIP3    H224680   4.127   5.533  12.518  1.0232  0.7452 -0.1365
 1089TIP3   OH224681   6.022   3.286   0.371 -0.4791 -0.0730 -0.2248
 1089TIP3    H124682   6.067   3.203   0.391 -1.3952 -0.6118 -0.3587
 1089TIP3    H224683   5.939   3.280   0.418 -0.1226  1.2250  0.6037
 1090TIP3   OH224684   1.361   5.575  14.973 -0.0001 -0.1529 -0.0577
 1090TIP3    H124685   1.337   5.665  14.994  0.4264 -0.2519  0.8854
 1090TIP3    H224686   1.456   5.572  14.985 -0.1739 -1.0874  1.3822
 1091TIP3   OH224687   6.492   1.382   0.727 -0.3449 -0.4404  0.4977
 1091TIP3    H124688   6.442   1.405   0.805 -1.4745 -1.9054  0.2588
 1091TIP3    H224689   6.568   1.440   0.728 -1.1081  0.5745  1.8738
 1092TIP3   OH224690   5.967   2.183  15.491 -0.4060 -0.4844  0.1750
 1092TIP3    H124691   5.992   2.237  15.565 -1.0491 -1.2003  0.9392
 1092TIP3    H224692   5.872   2.180  15.494 -0.4892  0.1022 -1.1490
 1093TIP3   OH224693   4.024   6.786   1.311 -0.1557 -0.0477  0.4106
 1093TIP3    H124694   3.995   6.874   1.288  1.4667  0.0117 -1.6805
 1093TIP3    H224695   4.117   6.795   1.331 -0.4091 -0.9956  2.2017
 1094TIP3   OH224696   1.954   3.609   3.892  0.1222 -0.2406  0.2072
 1094TIP3    H124697   1.868   3.601   3.933  0.1776 -1.3759  0.1348
 1094TIP3    H224698   2.009   3.651   3.958 -0.3576  0.0314  0.4342
 1095TIP3   OH224699   3.308   3.032   5.372  0.3444  0.4050 -0.4965
 1095TIP3    H124700   3.299   2.994   5.284  0.4775  0.8150 -0.6881
 1095TIP3    H224701   3.402   3.033   5.388  0.2396 -1.7648  0.5813
 1096TIP3   OH224702   1.521   5.553  10.643  0.3252  0.3632 -0.8282
 1096TIP3    H124703   1.572   5.513  10.573  0.9045  0.4587 -0.4620
 1096TIP3    H224704   1.466   5.482  10.677 -1.1231  0.6567 -2.4019
 1097TIP3   OH224705   5.006   1.370   4.524 -0.0736 -0.5951  0.7520
 1097TIP3    H124706   4.968   1.457   4.515 -2.2779 -1.6068 -0.9158
 1097TIP3    H224707   5.093   1.377   4.485 -1.4532  0.1998 -2.4844
 1098TIP3   OH224708   1.460   0.754   4.965  0.0483 -0.0444 -0.3255
 1098TIP3    H124709   1.519   0.718   4.898 -3.3854 -0.2716 -3.5794
 1098TIP3    H224710   1.430   0.677   5.013  2.1451  0.0657  1.3114
 1099TIP3   OH224711   4.839   6.486  16.139 -0.1138 -0.4189 -0.0307
 1099TIP3    H124712   4.763   6.512  16.087 -0.1751  0.2545  0.3854
 1099TIP3    H224713   4.881   6.417  16.087 -0.6123 -0.3045 -0.5956
 1100TIP3   OH224714   2.260   0.810   2.952 -0.1042  0.0602  0.3776
 1100TIP3    H124715   2.232   0.726   2.988  1.9586 -0.5493  0.7192
 1100TIP3    H224716   2.344   0.790   2.910 -1.1229  1.2819 -2.4815
 1101TIP3   OH224717   6.626   3.211  17.054 -0.2725  0.6661  0.0719
 1101TIP3    H124718   6.680   3.167  16.988  0.2751  1.3983  0.0172
 1101TIP3    H224719   6.551   3.244  17.005 -0.6960 -0.2007  0.1169
 1102TIP3   OH224720   1.201   3.334  12.901  0.3583 -0.0050 -0.1679
 1102TIP3    H124721   1.132   3.279  12.938 -0.9488  1.0520 -0.9398
 1102TIP3    H224722   1.264   3.345  12.972  0.6146 -2.3571  0.0501
 1103TIP3   OH224723   3.086   1.522  16.509 -0.5298  0.0047  0.0851
 1103TIP3    H124724   3.147   1.496  16.578 -0.1948  1.4335  0.3591
 1103TIP3    H224725   3.000   1.497  16.542 -0.2332 -0.6667  0.3579
 1104TIP3   OH224726   5.040   5.057   5.939 -0.2808  0.3614  0.1254
 1104TIP3    H124727   4.978   5.059   6.012 -0.5064  1.0292 -0.0809
 1104TIP3    H224728   5.021   4.975   5.894 -1.9338  1.1748 -0.7246
 1105TIP3   OH224729   5.901   3.049  15.934  0.1155 -0.8879 -0.0410
 1105TIP3    H124730   5.924   2.956  15.943 -1.3996 -1.3879 -0.9598
 1105TIP3    H224731   5.926   3.071  15.844  0.4723 -0.4002  0.1765
 1106TIP3   OH224732   3.999   1.702   1.605  0.1029  0.7171 -0.2300
 1106TIP3    H124733   4.047   1.779   1.576  0.4857  0.4929 -0.1946
 1106TIP3    H224734   4.047   1.671   1.682  1.4306 -0.9886 -1.6286
 1107TIP3   OH224735   4.740   6.783  13.166  0.3386 -0.3425 -0.6906
 1107TIP3    H124736   4.698   6.712  13.215  2.3191 -0.3968  1.0408
 1107TIP3    H224737   4.715   6.766  13.075 -0.7253 -2.2186 -0.1121
 1108TIP3   OH224738   1.020   4.402  13.815  0.5100  0.7615  0.3477
 1108TIP3    H124739   0.939   4.421  13.862  1.0804  1.3806  1.1109
 1108TIP3    H224740   1.029   4.307  13.821  0.9280  0.8726  2.1450
 1109TIP3   OH224741   3.198   1.404  11.216  0.1137 -0.1027  0.4276
 1109TIP3    H124742   3.162   1.342  11.153  0.9567  0.1264 -0.2824
 1109TIP3    H224743   3.143   1.392  11.294 -1.5924  0.3139 -0.6499
 1110TIP3   OH224744   6.379   1.465   0.959  0.1534 -0.1409 -0.0361
 1110TIP3    H124745   6.446   1.510   1.010  1.7179 -1.4614 -0.8203
 1110TIP3    H224746   6.297   1.506   0.985  0.9001 -0.4681  3.1992
 1111TIP3   OH224747   1.167   4.279  14.084  0.1297 -0.1166  0.5586
 1111TIP3    H124748   1.219   4.222  14.142 -0.6965 -0.7456  0.6974
 1111TIP3    H224749   1.189   4.368  14.112  0.9364 -0.3795  0.7889
 1112TIP3   OH224750   6.411   6.633   5.812  0.0847  0.2449  0.3127
 1112TIP3    H124751   6.399   6.649   5.905  1.2566  0.6303  0.4137
 1112TIP3    H224752   6.456   6.711   5.779 -0.2686  0.0950 -0.5693
 1113TIP3   OH224753   1.154   4.862   4.179 -0.2650 -0.3514  0.1907
 1113TIP3    H124754   1.233   4.880   4.128  0.3356  0.0983  1.2426
 1113TIP3    H224755   1.164   4.916   4.257 -2.1945  0.6293 -0.1929
 1114TIP3   OH224756   6.462   4.262   0.969 -0.5808 -0.4125 -0.3260
 1114TIP3    H124757   6.444   4.227   0.882 -1.8412  0.9933 -0.6788
 1114TIP3    H224758   6.376   4.283   1.005 -0.0887 -1.1507  1.3656
 1115TIP3   OH224759   5.521   0.516   0.223 -0.5861 -0.5081 -0.2155
 1115TIP3    H124760   5.616   0.522   0.208 -0.5504 -0.5551 -0.0133
 1115TIP3    H224761   5.501   0.591   0.280 -0.9242  0.3748 -1.4516
 1116TIP3   OH224762   6.631   2.505   6.733 -0.1444 -0.1281 -0.5370
 1116TIP3    H124763   6.626   2.418   6.694  2.2117 -0.2660 -0.6525
 1116TIP3    H224764   6.655   2.563   6.661 -2.5654  0.8328 -0.6554
 1117TIP3   OH224765   1.857   0.044  14.596 -0.2221 -0.3044 -0.5380
 1117TIP3    H124766   1.835   0.009  14.510  0.0312  0.4314 -0.9099
 1117TIP3    H224767   1.803   0.123  14.604 -0.3608 -0.4555  0.0462
 1118TIP3   OH224768   4.622   4.031  11.190  0.0784 -0.4634 -0.0809
 1118TIP3    H124769   4.682   4.101  11.165 -0.0681  0.1769  1.2663
 1118TIP3    H224770   4.536   4.063  11.163  0.0791 -0.3446  0.0504
 1119TIP3   OH224771   3.223   4.175   3.987 -0.2766 -0.3074 -0.2657
 1119TIP3    H124772   3.192   4.141   4.071  0.1076 -0.2422 -0.0952
 1119TIP3    H224773   3.158   4.146   3.924 -0.8486  0.0883  0.1355
 1120TIP3   OH224774   3.530   0.128  17.153 -0.3096 -0.2046  0.7068
 1120TIP3    H124775   3.580   0.101  17.230 -2.0255 -1.4484  1.4369
 1120TIP3    H224776   3.439   0.130  17.182 -0.7642  1.6079 -0.6940
 1121TIP3   OH224777   4.262   1.739  13.784 -0.1027  0.0160 -0.0669
 1121TIP3    H124778   4.229   1.808  13.727  0.1274 -0.1408 -0.3853
 1121TIP3    H224779   4.255   1.776  13.872  1.9109  1.2334 -0.3654
 1122TIP3   OH224780   4.362   6.684  12.352 -0.7289  0.1710 -0.0557
 1122TIP3    H124781   4.271   6.671  12.326 -0.9517 -0.8884  1.1485
 1122TIP3    H224782   4.409   6.692  12.269 -2.0994  2.4697 -0.7051
 1123TIP3   OH224783   2.447   0.648   6.158  0.0717  0.3984  0.2808
 1123TIP3    H124784   2.400   0.719   6.115 -0.7548 -0.2083  0.1651
 1123TIP3    H224785   2.409   0.568   6.121  0.9835 -0.1057  0.4125
 1124TIP3   OH224786   2.406   4.793   3.578 -0.3619 -0.0336 -0.1553
 1124TIP3    H124787   2.468   4.720   3.569 -0.0944  0.2160 -0.3772
 1124TIP3    H224788   2.327   4.763   3.533 -0.5954 -0.5635  0.5872
 1125TIP3   OH224789   6.561   6.399   2.294 -0.3519  0.0612  0.1080
 1125TIP3    H124790   6.530   6.351   2.371 -1.8040  1.2589  0.3106
 1125TIP3    H224791   6.609   6.474   2.331  1.5700 -0.9531 -0.2013
 1126TIP3   OH224792   0.955   3.153  11.198 -0.0556 -0.4094  0.3714
 1126TIP3    H124793   1.016   3.081  11.214 -1.1382 -1.7312 -1.1650
 1126TIP3    H224794   1.011   3.227  11.175  1.0171 -1.3244 -0.0491
 1127TIP3   OH224795   3.694   0.869  12.863 -0.5276 -0.1543 -0.0189
 1127TIP3    H124796   3.749   0.929  12.913 -2.6507  0.8318  1.2845
 1127TIP3    H224797   3.690   0.908  12.775  1.7067 -0.8876 -0.5179
 1128TIP3   OH224798   3.163   2.379  14.506 -0.0513 -0.3556  0.3863
 1128TIP3    H124799   3.194   2.456  14.458 -2.8167  1.8204  1.7561
 1128TIP3    H224800   3.212   2.382  14.588 -0.4118  0.2056  0.5893
 1129TIP3   OH224801   3.075   1.207   5.394 -0.3667  0.3985  0.2890
 1129TIP3    H124802   3.031   1.283   5.433 -0.1856  0.9125 -0.4844
 1129TIP3    H224803   3.004   1.145   5.377 -0.6043  0.6581  0.3262
 1130TIP3   OH224804   4.058   5.533  14.030  0.1507  0.2477 -0.1622
 1130TIP3    H124805   4.008   5.598  13.981  0.7492 -0.7741 -2.2411
 1130TIP3    H224806   4.148   5.543  13.999  0.2667 -1.4886 -0.4894
 1131TIP3   OH224807   1.193   2.033  15.490 -0.1301  0.1161 -0.0943
 1131TIP3    H124808   1.270   2.062  15.441  0.4470 -1.5603 -0.2122
 1131TIP3    H224809   1.156   1.962  15.438  0.8316 -2.1242  2.0924
 1132TIP3   OH224810   3.843   5.163  14.827  0.2232 -0.0903 -0.2058
 1132TIP3    H124811   3.829   5.195  14.738 -1.4606  2.7042  0.9400
 1132TIP3    H224812   3.757   5.130  14.854  1.4944 -4.5468 -0.7457
 1133TIP3   OH224813   4.081   1.212   4.924 -0.0969  0.0138  0.1964
 1133TIP3    H124814   4.134   1.140   4.889  1.7407  0.9428  0.9333
 1133TIP3    H224815   4.042   1.253   4.847  0.0362 -0.8458 -0.3500
 1134TIP3   OH224816   4.607   3.208   2.676  0.1738  0.2107 -0.0195
 1134TIP3    H124817   4.610   3.186   2.583 -0.7677  0.3460 -0.0907
 1134TIP3    H224818   4.656   3.139   2.719  0.5999  0.1389 -0.6166
 1135TIP3   OH224819   6.519   0.079   4.864  0.1934 -0.0399  0.4345
 1135TIP3    H124820   6.432   0.057   4.831  0.4498 -0.4983  0.0513
 1135TIP3    H224821   6.504   0.148   4.928 -0.4448 -0.0652  0.3142
 1136TIP3   OH224822   0.039   5.747   3.740 -0.9126 -0.4882  0.3540
 1136TIP3    H124823  -0.007   5.669   3.710 -1.4232  0.1897 -0.7041
 1136TIP3    H224824  -0.027   5.817   3.735  0.5474  0.8619 -2.8067
 1137TIP3   OH224825   1.015   0.417  15.688  0.1561  0.1154  0.0081
 1137TIP3    H124826   0.964   0.493  15.715 -0.8783 -0.5447 -0.0390
 1137TIP3    H224827   0.998   0.351  15.755 -2.9139 -1.7558 -2.3401
 1138TIP3   OH224828   1.954   4.375   5.076 -0.5899 -0.2539  0.1659
 1138TIP3    H124829   1.904   4.331   5.007  0.4667  0.7656 -1.3187
 1138TIP3    H224830   2.045   4.364   5.050 -0.0690 -0.9427  2.1142
 1139TIP3   OH224831   4.964   5.852  12.416  0.6054 -0.5428 -0.4677
 1139TIP3    H124832   5.010   5.897  12.486  0.2355  0.1957 -0.6916
 1139TIP3    H224833   4.981   5.905  12.338  0.0273 -0.6986 -0.7023
 1140TIP3   OH224834   0.082   3.057  16.698  0.7223 -0.0950  0.0775
 1140TIP3    H124835   0.169   3.023  16.718  0.0325 -3.1028 -1.5777
 1140TIP3    H224836   0.026   3.022  16.768  0.3770 -0.4660 -0.3850
 1141TIP3   OH224837   3.448   2.273   0.608 -0.3509 -0.4037 -0.1790
 1141TIP3    H124838   3.440   2.189   0.655 -0.4280 -0.7807 -0.8509
 1141TIP3    H224839   3.431   2.250   0.517  1.2962  0.0466 -0.6274
 1142TIP3   OH224840   2.187   2.345   3.786  0.9080  0.0591 -0.1256
 1142TIP3    H124841   2.165   2.304   3.870 -1.1877 -2.5260 -1.7751
 1142TIP3    H224842   2.270   2.304   3.760  2.0297  1.5120  0.9896
 1143TIP3   OH224843   5.728   5.584   0.463  0.3324  0.2879 -0.1985
 1143TIP3    H124844   5.779   5.545   0.393  0.5436  0.6489 -0.2487
 1143TIP3    H224845   5.729   5.520   0.534  1.3617  0.5461  0.0288
 1144TIP3   OH224846   0.283   0.738   4.808  0.0396 -0.1997 -0.0953
 1144TIP3    H124847   0.239   0.752   4.891  1.3091 -1.6548  0.8695
 1144TIP3    H224848   0.339   0.662   4.822  0.1352 -0.6358 -2.3477
 1145TIP3   OH224849   6.173   2.553  14.118 -0.1572 -0.0312  0.1603
 1145TIP3    H124850   6.170   2.538  14.024 -1.2421  0.0963  0.1555
 1145TIP3    H224851   6.087   2.591  14.139 -0.1807 -0.6527  1.2906
 1146TIP3   OH224852   2.516   5.525  15.579 -0.0349 -0.0936  0.5390
 1146TIP3    H124853   2.502   5.550  15.488  1.6656 -2.6820 -0.5453
 1146TIP3    H224854   2.536   5.608  15.624  0.3450  1.1030 -1.7030
 1147TIP3   OH224855   6.170   4.343   0.695  0.9280 -0.5712 -0.4373
 1147TIP3    H124856   6.102   4.285   0.660  2.0067 -1.5748 -0.9253
 1147TIP3    H224857   6.215   4.378   0.618  1.3525 -0.3831 -0.1124
 1148TIP3   OH224858   2.633   4.723  11.610  0.1837 -0.2956  0.3323
 1148TIP3    H124859   2.648   4.642  11.560  0.2966 -0.2874  0.3529
 1148TIP3    H224860   2.687   4.788  11.566  0.3468 -0.3070  0.5160
 1149TIP3   OH224861   4.933   4.032   2.627 -0.1192  0.0216  0.2378
 1149TIP3    H124862   4.985   3.996   2.555 -2.9192 -0.5794 -1.6091
 1149TIP3    H224863   4.877   3.960   2.654  1.2143  0.0450  3.5370
 1150TIP3   OH224864   6.387   1.838  16.762  0.5232 -0.1637 -1.0843
 1150TIP3    H124865   6.351   1.923  16.735  2.1092  0.4697 -1.3184
 1150TIP3    H224866   6.335   1.774  16.714  1.0834  0.8048 -3.1109
 1151TIP3   OH224867   0.349   4.180  14.653 -0.0976  0.4106  0.7491
 1151TIP3    H124868   0.329   4.267  14.620 -0.7151  0.0113  0.0609
 1151TIP3    H224869   0.339   4.187  14.748  1.0175  1.3860  0.8157
 1152TIP3   OH224870   1.867   5.882   4.142 -0.5854 -0.3220  0.6663
 1152TIP3    H124871   1.895   5.839   4.222 -1.5278 -2.2228  0.0445
 1152TIP3    H224872   1.779   5.916   4.162 -2.1710 -3.4379 -0.3040
 1153TIP3   OH224873   5.513   2.464  14.704  0.3695 -0.2637 -0.4055
 1153TIP3    H124874   5.466   2.546  14.718 -0.3651 -1.1505  3.2135
 1153TIP3    H224875   5.605   2.486  14.722  0.5466  0.2129 -1.7751
 1154TIP3   OH224876   5.953   3.915   5.914 -0.1519 -0.0617  0.0373
 1154TIP3    H124877   5.901   3.921   5.833  1.1286  0.8323 -0.7686
 1154TIP3    H224878   5.956   3.822   5.934 -0.4297 -0.3076 -0.9958
 1155TIP3   OH224879   5.375   1.203  13.230 -0.0104  0.0307 -0.3412
 1155TIP3    H124880   5.289   1.236  13.204 -1.2544 -2.2751  0.5388
 1155TIP3    H224881   5.421   1.189  13.148 -0.5404  1.0473 -0.8401
 1156TIP3   OH224882   6.124   5.453  14.603 -0.2316  0.3105  0.2318
 1156TIP3    H124883   6.060   5.519  14.631 -0.0961  0.4696  0.1683
 1156TIP3    H224884   6.118   5.452  14.508 -2.4071 -1.9306  0.2987
 1157TIP3   OH224885   0.215   4.574  15.752  0.5214 -0.1840 -0.6248
 1157TIP3    H124886   0.293   4.520  15.735  0.7363 -1.6074  3.6603
 1157TIP3    H224887   0.153   4.513  15.791 -1.9605  1.4122 -1.8428
 1158TIP3   OH224888   4.193   2.249   5.701  0.3329  0.5149  0.0747
 1158TIP3    H124889   4.259   2.291   5.756 -1.8653  1.9034  1.8218
 1158TIP3    H224890   4.152   2.184   5.758 -0.7323  0.6474 -0.5107
 1159TIP3   OH224891   4.167   2.784   6.611 -0.2752 -0.1906 -0.5739
 1159TIP3    H124892   4.203   2.773   6.523  1.6766  0.9303  0.0498
 1159TIP3    H224893   4.163   2.878   6.625 -0.5983 -0.3514  0.5517
 1160TIP3   OH224894   2.744   2.603  16.089  0.6148 -0.2284 -0.0962
 1160TIP3    H124895   2.802   2.587  16.164  2.7678  0.0927 -1.6129
 1160TIP3    H224896   2.760   2.531  16.029 -0.3081  0.0567 -0.7137
 1161TIP3   OH224897   3.398   0.425   5.433 -0.2965  0.2156 -0.0178
 1161TIP3    H124898   3.303   0.431   5.445 -0.4108 -1.3040  0.1318
 1161TIP3    H224899   3.411   0.431   5.338 -0.5365  0.4406 -0.0384
 1162TIP3   OH224900   6.203   6.043   1.807  0.8849  0.5571  0.4800
 1162TIP3    H124901   6.173   5.952   1.805  1.3019  0.4136  0.5177
 1162TIP3    H224902   6.299   6.036   1.812  0.9373  0.9988  0.1746
 1163TIP3   OH224903   0.027   5.578   2.613  0.1444  0.3804 -0.4082
 1163TIP3    H124904   0.118   5.554   2.631 -0.5134 -1.6974  0.4267
 1163TIP3    H224905   0.007   5.536   2.529  0.0127  1.0153 -0.6994
 1164TIP3   OH224906   1.041   0.859  10.819  0.1684  0.0542  0.0511
 1164TIP3    H124907   0.974   0.868  10.751  0.9744 -1.2700 -0.9714
 1164TIP3    H224908   1.123   0.849  10.771  0.9169  0.1649  1.2547
 1165TIP3   OH224909   4.803   5.951   5.510  0.2740  0.0471  0.2890
 1165TIP3    H124910   4.886   5.975   5.550  0.0139 -0.8907  1.4322
 1165TIP3    H224911   4.824   5.935   5.418  1.2228  0.4992  0.4229
 1166TIP3   OH224912   2.053   4.896   3.870 -0.2965 -0.7981  0.3324
 1166TIP3    H124913   2.139   4.875   3.906  1.2843  3.2885 -0.4800
 1166TIP3    H224914   1.997   4.909   3.946  0.5799 -0.8763  1.0001
 1167TIP3   OH224915   1.238   0.818   5.463  0.0577 -0.2074 -0.3004
 1167TIP3    H124916   1.299   0.832   5.391  0.3189  0.8490  0.0984
 1167TIP3    H224917   1.153   0.806   5.421  0.1245  0.8716 -0.7851
 1168TIP3   OH224918   4.310   6.477   3.421 -0.7900  0.2178 -0.4403
 1168TIP3    H124919   4.375   6.547   3.411 -1.4957  0.9665  0.0922
 1168TIP3    H224920   4.349   6.419   3.487  0.9210 -1.2734 -2.6141
 1169TIP3   OH224921   1.857   6.556  13.102 -0.3275 -0.2794  0.5176
 1169TIP3    H124922   1.831   6.557  13.194  0.6516 -1.6837  0.8299
 1169TIP3    H224923   1.828   6.471  13.069 -1.4804  0.5477 -0.7492
 1170TIP3   OH224924   0.103   1.729   5.490 -0.8320  0.1838  0.2058
 1170TIP3    H124925   0.058   1.697   5.569  1.4634  1.0218  1.9447
 1170TIP3    H224926   0.162   1.657   5.466 -1.1371  0.1472 -0.4413
 1171TIP3   OH224927   1.488   3.757  14.133  0.1576 -0.4132 -0.1616
 1171TIP3    H124928   1.544   3.735  14.059 -0.0553  0.6237 -0.6445
 1171TIP3    H224929   1.538   3.729  14.210  1.6864  1.0966 -0.5306
 1172TIP3   OH224930   3.529   1.995  15.917 -0.0006  0.1147 -0.4278
 1172TIP3    H124931   3.562   1.914  15.877 -2.4652 -0.6596 -1.0684
 1172TIP3    H224932   3.515   1.973  16.009 -2.7319 -1.0001 -1.0096
 1173TIP3   OH224933   0.703   0.986  12.166 -1.0365 -0.5017  0.2410
 1173TIP3    H124934   0.721   1.036  12.085 -0.6406 -0.3027  0.4455
 1173TIP3    H224935   0.704   1.053  12.235  0.8075 -0.9443  0.6969
 1174TIP3   OH224936   0.977   4.163  11.230 -0.8820 -0.0495 -0.2251
 1174TIP3    H124937   0.904   4.158  11.168 -0.0937  1.5923 -1.3630
 1174TIP3    H224938   1.046   4.110  11.190 -0.1269  1.5751 -1.1872
 1175TIP3   OH224939   2.273   1.174  15.243  0.7652 -0.1524  0.0558
 1175TIP3    H124940   2.226   1.112  15.188  0.1644  2.0585 -2.0915
 1175TIP3    H224941   2.205   1.221  15.291  0.8887  1.1342 -0.9510
 1176TIP3   OH224942   2.462   5.066  15.379  0.3785 -0.3422  0.1040
 1176TIP3    H124943   2.498   5.090  15.464  0.7730 -0.8623  0.0928
 1176TIP3    H224944   2.375   5.032  15.398  0.3380 -0.1401  0.2667
 1177TIP3   OH224945   4.810   6.789   6.215  0.2375  0.2073 -0.3156
 1177TIP3    H124946   4.849   6.826   6.136 -1.2937 -1.3735 -1.9101
 1177TIP3    H224947   4.866   6.716   6.238 -0.3417 -0.5173 -1.1252
 1178TIP3   OH224948   0.701   0.230   5.122  0.1884  0.1644 -0.1901
 1178TIP3    H124949   0.612   0.265   5.115  0.1717 -0.0215 -1.1417
 1178TIP3    H224950   0.716   0.220   5.216 -1.0237 -0.3663 -0.0310
 1179TIP3   OH224951   2.703   0.943  10.193 -0.3033 -0.5524 -0.1085
 1179TIP3    H124952   2.698   0.885  10.268 -0.4259  0.1770  0.4629
 1179TIP3    H224953   2.732   0.887  10.121 -1.6398 -1.5881  0.1218
 1180TIP3   OH224954   3.293   0.303   0.740  0.3313  0.0972  0.3171
 1180TIP3    H124955   3.290   0.221   0.790  0.5873 -0.0480  0.0945
 1180TIP3    H224956   3.329   0.367   0.801  1.6883 -0.3224 -0.0122
 1181TIP3   OH224957   5.584   1.176  10.247  0.0308  0.1611 -0.6258
 1181TIP3    H124958   5.501   1.210  10.214  0.0460  1.0770  0.2189
 1181TIP3    H224959   5.596   1.093  10.201 -2.1475 -0.8033  0.3657
 1182TIP3   OH224960   0.238   0.976  13.814  0.0690  0.2258 -0.2096
 1182TIP3    H124961   0.194   0.896  13.843  2.0582 -0.7304  0.3052
 1182TIP3    H224962   0.299   0.947  13.746 -2.1427  1.9516 -3.2259
 1183TIP3   OH224963   3.812   1.813   0.017 -0.7731 -0.6020  0.0017
 1183TIP3    H124964   3.852   1.750  -0.044 -1.3796 -1.0845  0.0904
 1183TIP3    H224965   3.797   1.891  -0.036  2.6831  0.5874  0.5705
 1184TIP3   OH224966   4.721   3.920  14.433  0.0868  0.3501  0.9970
 1184TIP3    H124967   4.688   4.005  14.463  0.0491  0.8780 -0.4707
 1184TIP3    H224968   4.809   3.939  14.399 -0.3313  0.0369 -0.3205
 1185TIP3   OH224969   0.645   3.959  14.022 -0.1521  0.0867  0.1614
 1185TIP3    H124970   0.688   4.043  14.034  0.4496 -0.3980  1.6180
 1185TIP3    H224971   0.644   3.920  14.109  0.1336 -1.6715 -0.5745
 1186TIP3   OH224972   1.070   5.439  15.321 -0.0850  0.2629  0.1140
 1186TIP3    H124973   1.161   5.460  15.297  0.6454 -0.8811  1.7097
 1186TIP3    H224974   1.044   5.511  15.379  0.1761  0.0714  0.4757
 1187TIP3   OH224975   4.171   0.047   2.857 -0.2908 -0.0466  0.7749
 1187TIP3    H124976   4.083   0.055   2.894 -0.7600 -0.5983 -0.1658
 1187TIP3    H224977   4.196  -0.043   2.874  0.2332  0.2015  1.3281
 1188TIP3   OH224978   5.748   3.859  10.239  0.5728  0.2359  0.1721
 1188TIP3    H124979   5.783   3.857  10.329  1.0764 -0.3132 -0.0330
 1188TIP3    H224980   5.702   3.776  10.230 -0.4692  0.7831  0.3004
 1189TIP3   OH224981   6.194   3.107  11.312  0.0064 -0.6200  0.4831
 1189TIP3    H124982   6.130   3.049  11.353 -0.6296 -0.4128 -0.1921
 1189TIP3    H224983   6.273   3.054  11.306 -0.2914 -1.1055  0.7296
 1190TIP3   OH224984   2.149   1.270   4.580  0.1073 -0.1911 -0.0111
 1190TIP3    H124985   2.181   1.350   4.539  0.2423 -0.6043 -0.7270
 1190TIP3    H224986   2.135   1.294   4.672 -0.3625  0.7958 -0.3272
 1191TIP3   OH224987   4.310   2.693   2.896  0.0681  0.0931  0.3350
 1191TIP3    H124988   4.323   2.640   2.817 -0.9181  0.3307  0.0107
 1191TIP3    H224989   4.239   2.753   2.875  1.7224  2.2094  0.3775
 1192TIP3   OH224990   1.556   1.012  16.858  0.1079 -0.4369  0.3281
 1192TIP3    H124991   1.509   1.031  16.776  0.3538  0.2868  0.3431
 1192TIP3    H224992   1.591   1.097  16.885  1.9922 -1.0530 -0.0249
 1193TIP3   OH224993   4.421   2.784   3.281 -0.2050  0.2185  0.0703
 1193TIP3    H124994   4.351   2.779   3.217  0.3858 -0.3865 -0.5542
 1193TIP3    H224995   4.383   2.748   3.362 -0.2575 -1.3024 -0.5950
 1194TIP3   OH224996   4.169   2.183  16.140 -0.8612 -0.0273  0.2934
 1194TIP3    H124997   4.107   2.134  16.195  0.4089 -2.1359 -0.0109
 1194TIP3    H224998   4.187   2.124  16.066 -0.0721  1.3948 -0.6965
 1195TIP3   OH224999   5.735   0.215   6.630 -0.6783 -0.3025  0.1604
 1195TIP3    H125000   5.736   0.287   6.694  0.5903  1.3370 -1.6085
 1195TIP3    H225001   5.655   0.229   6.580 -0.0409  0.3929 -0.6940
 1196TIP3   OH225002   3.779   5.171   4.580 -0.2718  0.7740 -0.1581
 1196TIP3    H125003   3.732   5.094   4.547 -0.2109  1.5082 -2.0931
 1196TIP3    H225004   3.720   5.244   4.563  0.5459  1.4109 -0.3261
 1197TIP3   OH225005   5.735   6.565   0.278 -0.0675  0.0048  0.1803
 1197TIP3    H125006   5.790   6.507   0.329  0.7231 -0.1873 -0.8414
 1197TIP3    H225007   5.768   6.556   0.188 -0.5079  1.3433 -0.1449
 1198TIP3   OH225008   4.233   1.502  11.352 -0.4614  0.0213 -0.0730
 1198TIP3    H125009   4.180   1.432  11.391  0.9034 -1.0415 -0.0593
 1198TIP3    H225010   4.287   1.535  11.423 -1.9650  2.0262  0.2371
 1199TIP3   OH225011   6.353   3.902  11.588  0.4474  0.6615  0.3324
 1199TIP3    H125012   6.429   3.947  11.551  0.9148  0.8793  1.5012
 1199TIP3    H225013   6.331   3.954  11.666 -0.8101  0.5144  0.0926
 1200TIP3   OH225014   3.937   6.520  16.592 -0.2974  0.4673  0.2161
 1200TIP3    H125015   3.877   6.581  16.633 -1.1492 -0.9252  1.1173
 1200TIP3    H225016   4.014   6.519  16.650 -0.1204  0.9666 -0.0110
 1201TIP3   OH225017   1.978   2.390  15.416 -0.5448 -0.7783 -0.2551
 1201TIP3    H125018   1.919   2.404  15.342  0.2836  0.2136 -0.7673
 1201TIP3    H225019   2.015   2.477  15.433  1.0226 -1.4264 -0.1898
 1202TIP3   OH225020   6.311   4.432   4.587 -0.7260 -0.0850 -0.2786
 1202TIP3    H125021   6.223   4.448   4.620  0.2700 -0.2641  2.7778
 1202TIP3    H225022   6.332   4.343   4.615  0.7810  0.3131 -0.0444
 1203TIP3   OH225023   3.568   6.745   2.006 -0.0159  0.6345 -0.1223
 1203TIP3    H125024   3.541   6.692   2.081  1.6871 -0.8996 -0.5216
 1203TIP3    H225025   3.644   6.794   2.038 -0.3913  1.3757 -0.3370
 1204TIP3   OH225026   6.026   6.248  12.854 -0.1706  0.6367  0.2720
 1204TIP3    H125027   6.045   6.329  12.808  1.5640  0.4581  0.5997
 1204TIP3    H225028   6.009   6.184  12.784 -0.5933  1.0516 -0.0106
 1205TIP3   OH225029   3.236   1.535  12.812  0.0347 -0.1126 -0.0632
 1205TIP3    H125030   3.324   1.570  12.801  0.3430 -0.4384  1.2179
 1205TIP3    H225031   3.203   1.526  12.723  1.5387 -0.6003 -0.6027
 1206TIP3   OH225032   2.220   3.242  14.437  0.1729 -0.1595 -0.2702
 1206TIP3    H125033   2.167   3.262  14.514  1.1221  0.2918  0.2885
 1206TIP3    H225034   2.170   3.277  14.363 -0.6859 -0.4878  0.1470
 1207TIP3   OH225035   6.668   2.908   2.965  0.9204  0.0768 -0.2806
 1207TIP3    H125036   6.658   2.991   2.918 -1.7558  0.1322  0.2007
 1207TIP3    H225037   6.747   2.920   3.018  1.9442  1.3769 -2.0091
 1208TIP3   OH225038   4.792   3.875  16.094  0.0610  0.1611 -0.0369
 1208TIP3    H125039   4.738   3.823  16.034 -0.2363 -0.7037  0.9482
 1208TIP3    H225040   4.806   3.818  16.169  0.9236  1.0078  0.4718
 1209TIP3   OH225041   1.035   5.167  16.348 -0.0044  0.3234  0.4064
 1209TIP3    H125042   1.017   5.137  16.437  0.2016  0.2986  0.4381
 1209TIP3    H225043   0.980   5.245  16.337 -0.4113  0.0350  0.3830
 1210TIP3   OH225044   6.402   4.895   0.029 -0.4674 -0.3466 -0.4163
 1210TIP3    H125045   6.358   4.837   0.091 -0.6132 -2.4553 -2.3617
 1210TIP3    H225046   6.330   4.939  -0.017 -0.4921 -1.0654 -1.1006
 1211TIP3   OH225047   3.633   5.364   0.269 -0.2693  0.4756  0.0206
 1211TIP3    H125048   3.608   5.337   0.358  1.4258  0.6011  0.5600
 1211TIP3    H225049   3.701   5.430   0.282 -2.1207  2.8323 -1.3349
 1212TIP3   OH225050   3.241   2.164  16.757 -0.3774  0.0985 -0.0425
 1212TIP3    H125051   3.329   2.134  16.737 -0.3871  0.3851 -0.5263
 1212TIP3    H225052   3.249   2.209  16.841 -0.2232 -0.5900  0.3175
 1213TIP3   OH225053   4.928   0.040   1.093  0.0813 -0.2718  0.2446
 1213TIP3    H125054   4.934  -0.037   1.035 -1.0904 -0.0278 -0.2294
 1213TIP3    H225055   5.003   0.094   1.069  0.0424 -0.5436 -0.5180
 1214TIP3   OH225056   4.837   0.157  16.378  0.4605  0.0822  0.2191
 1214TIP3    H125057   4.822   0.079  16.431  1.4311  0.6019  1.3019
 1214TIP3    H225058   4.933   0.166  16.375  0.3650  1.5082  0.5721
 1215TIP3   OH225059   5.577   6.386  16.497  0.6987 -0.2970  0.3225
 1215TIP3    H125060   5.635   6.459  16.516  0.7811 -0.3381  0.2269
 1215TIP3    H225061   5.615   6.312  16.544 -0.2105  0.0504  1.6866
 1216TIP3   OH225062   1.140   3.235  12.209 -0.1740 -0.0486  0.2959
 1216TIP3    H125063   1.094   3.276  12.135 -1.2715 -2.4298 -0.4328
 1216TIP3    H225064   1.178   3.309  12.257  0.4030  1.6286 -2.4868
 1217TIP3   OH225065   5.621   3.066  12.270 -0.2318 -0.3536  0.1395
 1217TIP3    H125066   5.577   2.984  12.248  1.0429 -0.6777 -1.3783
 1217TIP3    H225067   5.704   3.040  12.309 -0.9858  0.2484  2.2381
 1218TIP3   OH225068   0.170   5.399  12.372 -0.0461  0.0734 -0.1021
 1218TIP3    H125069   0.100   5.463  12.361 -0.0154  0.0229 -0.6049
 1218TIP3    H225070   0.125   5.315  12.378 -0.0134 -0.0054 -0.8454
 1219TIP3   OH225071   4.353   3.330  12.405  0.1577 -0.1157 -0.3843
 1219TIP3    H125072   4.347   3.393  12.334 -0.0146 -2.6724 -2.7989
 1219TIP3    H225073   4.277   3.273  12.394 -0.3300 -0.1844  2.3921
 1220TIP3   OH225074   0.646   5.071   5.391  0.3613 -0.2729  0.2330
 1220TIP3    H125075   0.671   5.155   5.429 -0.0998 -0.0646  0.0794
 1220TIP3    H225076   0.681   5.006   5.453 -0.3864  0.0629  1.0347
 1221TIP3   OH225077   6.265   4.429   4.289  0.3962 -0.8264 -0.7455
 1221TIP3    H125078   6.273   4.351   4.344  1.2806 -0.2630 -0.0355
 1221TIP3    H225079   6.210   4.488   4.340  0.0385 -0.8365 -1.1138
 1222TIP3   OH225080   0.981   1.387   3.693 -0.0514 -0.5876 -0.0229
 1222TIP3    H125081   1.043   1.408   3.763 -0.5408  0.4147  0.1312
 1222TIP3    H225082   1.031   1.400   3.612  0.2035 -0.7042  0.1137
 1223TIP3   OH225083   1.763   5.438  17.109  0.2649  0.4625 -0.3408
 1223TIP3    H125084   1.823   5.403  17.044 -0.0672  2.4492 -1.8307
 1223TIP3    H225085   1.732   5.521  17.071 -1.9730  0.4283  1.1793
 1224TIP3   OH225086   2.293   2.230  14.994  0.0707  0.5467 -0.2459
 1224TIP3    H125087   2.385   2.255  15.003  0.2729 -0.3052  0.2523
 1224TIP3    H225088   2.289   2.178  14.914  0.0213  0.6233 -0.2930
 1225TIP3   OH225089   2.421   4.893   2.599  0.4908  0.3840  0.5588
 1225TIP3    H125090   2.360   4.932   2.537  1.2039 -1.6962 -1.5958
 1225TIP3    H225091   2.474   4.967   2.630 -1.5223  1.8626  0.6876
 1226TIP3   OH225092   3.107   4.523  16.035 -0.1701 -0.1677  0.5635
 1226TIP3    H125093   3.185   4.547  16.084 -0.2452  1.3417  0.0012
 1226TIP3    H225094   3.140   4.484  15.954 -0.0293 -3.8017  2.1568
 1227TIP3   OH225095   1.574   2.061   1.541  0.0989 -0.2293 -0.4292
 1227TIP3    H125096   1.624   2.062   1.459  1.9125  1.5696  0.6240
 1227TIP3    H225097   1.628   2.009   1.601  0.1478  0.7424  0.3855
 1228TIP3   OH225098   4.300   3.321   1.371  0.2325 -0.3306 -0.2995
 1228TIP3    H125099   4.288   3.414   1.355  1.8343  0.1656  1.1165
 1228TIP3    H225100   4.376   3.296   1.317  0.3335 -0.6018 -0.0413
 1229TIP3   OH225101   5.827   6.468   1.507 -0.0089 -0.2401  0.9956
 1229TIP3    H125102   5.735   6.466   1.533 -0.1168 -0.8435  0.5731
 1229TIP3    H225103   5.864   6.541   1.557 -1.1570  1.2973 -0.2828
 1230TIP3   OH225104   4.373   1.777   4.027  0.0300  0.0958 -0.3393
 1230TIP3    H125105   4.385   1.826   3.945 -1.9279 -0.9282 -1.3264
 1230TIP3    H225106   4.346   1.843   4.091 -2.3797  0.4632 -1.5991
 1231TIP3   OH225107   5.025   0.329   5.769 -0.1283  0.4896 -0.5002
 1231TIP3    H125108   5.085   0.362   5.837 -1.4750  0.5247  0.7081
 1231TIP3    H225109   4.941   0.322   5.813 -0.4924 -2.0393 -1.4655
 1232TIP3   OH225110   0.497   4.262   5.044  0.7257 -0.4251  0.1604
 1232TIP3    H125111   0.415   4.237   5.002  1.4825 -0.6781 -1.2402
 1232TIP3    H225112   0.503   4.205   5.121 -0.8487  0.2750  0.8315
 1233TIP3   OH225113   1.493   0.224  13.535  0.6662 -1.0827 -0.2315
 1233TIP3    H125114   1.472   0.272  13.615  1.9632 -1.2598  0.2297
 1233TIP3    H225115   1.411   0.226  13.484 -0.6423 -2.1940  1.6941
 1234TIP3   OH225116   0.351   5.784  16.418 -0.5553  0.3374  0.2990
 1234TIP3    H125117   0.322   5.760  16.330 -0.8628  1.0557  0.1902
 1234TIP3    H225118   0.409   5.714  16.445  1.2028  1.0964 -1.2974
 1235TIP3   OH225119   6.038   6.219  11.136 -0.0777 -0.6544 -0.2957
 1235TIP3    H125120   5.997   6.298  11.100 -0.0992  0.3699  1.8375
 1235TIP3    H225121   6.125   6.248  11.165 -0.4096 -1.1714  1.3010
 1236TIP3   OH225122   1.883   5.761  16.772 -0.0563 -0.2925  0.3625
 1236TIP3    H125123   1.933   5.680  16.780  2.1285  1.0407  1.2727
 1236TIP3    H225124   1.896   5.806  16.856 -0.0285  1.6097 -0.5978
 1237TIP3   OH225125   2.926   5.824   0.902 -0.4761  0.3293  0.2107
 1237TIP3    H125126   2.929   5.777   0.819 -0.0798 -0.3669  0.6098
 1237TIP3    H225127   2.982   5.774   0.961  0.1494  1.4284  0.5934
 1238TIP3   OH225128   4.917   4.517   2.374  0.0646  0.5205  0.6236
 1238TIP3    H125129   4.858   4.454   2.415  0.8357 -0.9038 -0.3716
 1238TIP3    H225130   5.005   4.484   2.394  0.4698  0.6603 -0.7948
 1239TIP3   OH225131   2.190   1.470  15.836  0.7075  0.2200  0.4662
 1239TIP3    H125132   2.098   1.497  15.843 -0.3340 -2.4251 -1.2498
 1239TIP3    H225133   2.190   1.379  15.865  2.2691 -0.5676 -1.7268
 1240TIP3   OH225134   4.403   1.558  14.188  0.3283 -0.4621  0.0180
 1240TIP3    H125135   4.383   1.466  14.206 -1.8831 -0.5890 -2.4158
 1240TIP3    H225136   4.335   1.607  14.233 -0.2897 -0.2731 -1.0762
 1241TIP3   OH225137   1.550   6.707   4.598 -0.0568 -0.3866  0.0035
 1241TIP3    H125138   1.544   6.642   4.668  1.7941  0.5190  1.0694
 1241TIP3    H225139   1.625   6.680   4.546  1.9651  1.8190  1.5741
 1242TIP3   OH225140   1.210   1.936  11.648 -0.0211  0.0809 -0.2512
 1242TIP3    H125141   1.210   2.020  11.693 -1.0835  0.6113 -1.1855
 1242TIP3    H225142   1.302   1.919  11.628  0.1960  1.0609 -0.1297
 1243TIP3   OH225143   0.405   5.708  12.105 -0.0016 -0.8048  0.4332
 1243TIP3    H125144   0.487   5.736  12.146  1.1434  0.1830 -2.3064
 1243TIP3    H225145   0.337   5.743  12.162  1.4438 -0.4187  2.0204
 1244TIP3   OH225146   1.815   1.814  15.066  0.0823  0.0083 -0.3574
 1244TIP3    H125147   1.889   1.754  15.052 -0.6993 -0.7403 -1.4441
 1244TIP3    H225148   1.740   1.757  15.082 -0.2180  0.7684  1.1062
 1245TIP3   OH225149   3.359   0.419  14.443 -0.0600 -0.3305  0.3572
 1245TIP3    H125150   3.309   0.366  14.381  0.9796 -1.0412  0.1171
 1245TIP3    H225151   3.441   0.372  14.455  0.5135  0.7581  0.8497
 1246TIP3   OH225152   5.151   0.635  12.500  0.4172 -0.0818  0.3612
 1246TIP3    H125153   5.082   0.587  12.453  0.0577  0.1866  0.6153
 1246TIP3    H225154   5.179   0.575  12.569 -1.4118  0.7852  1.9500
 1247TIP3   OH225155   6.166   0.255   2.987  0.2883  0.0850  0.0392
 1247TIP3    H125156   6.191   0.328   3.044 -0.7750 -0.4820  1.2945
 1247TIP3    H225157   6.107   0.295   2.923 -0.7272  0.2795  1.0478
 1248TIP3   OH225158   3.583   3.408  11.442  0.0046 -0.3658 -0.2709
 1248TIP3    H125159   3.653   3.344  11.432  1.0503  0.4199  1.5388
 1248TIP3    H225160   3.595   3.469  11.369  0.7286 -0.6668 -0.4102
 1249TIP3   OH225161   3.847   5.285   5.270  0.2372 -0.2942 -0.4056
 1249TIP3    H125162   3.864   5.317   5.358 -0.5899 -0.9020 -0.0134
 1249TIP3    H225163   3.928   5.238   5.246  0.1361 -0.8963  0.3887
 1250TIP3   OH225164   3.026   5.445   4.712 -0.0753  0.6383  0.6874
 1250TIP3    H125165   2.970   5.509   4.667  0.4414  1.1308  0.7319
 1250TIP3    H225166   3.042   5.484   4.798  1.6452  1.2887  0.1165
 1251TIP3   OH225167   2.085   5.051  16.822  0.3398 -0.0436 -0.2537
 1251TIP3    H125168   2.083   5.046  16.918 -0.0591  1.5191 -0.1533
 1251TIP3    H225169   2.069   4.961  16.793 -1.0170 -0.2910  1.1484
 1252TIP3   OH225170   5.739   6.042   3.085  0.0866 -0.3243 -0.0153
 1252TIP3    H125171   5.751   6.019   2.993  4.5748 -1.2658  0.6027
 1252TIP3    H225172   5.742   6.138   3.086  1.7403 -0.3297 -0.7725
 1253TIP3   OH225173   2.755   1.955  11.705  0.2999  0.2982 -0.1781
 1253TIP3    H125174   2.682   1.899  11.678 -0.6431  0.6269  1.4928
 1253TIP3    H225175   2.827   1.894  11.723 -0.4444 -0.3325  0.7769
 1254TIP3   OH225176   5.824   5.771  13.715 -0.0685  0.0751  0.3229
 1254TIP3    H125177   5.830   5.810  13.628  1.4369 -0.7741  0.0193
 1254TIP3    H225178   5.780   5.838  13.768  0.6963  1.3869 -0.6445
 1255TIP3   OH225179   5.449   4.711   3.723 -0.2664 -0.2599 -0.5137
 1255TIP3    H125180   5.374   4.770   3.717  0.0512  0.0512 -2.2203
 1255TIP3    H225181   5.523   4.769   3.741 -0.3175 -0.4651  0.3640
 1256TIP3   OH225182   5.860   1.828  15.607 -0.4168  0.4614 -0.5683
 1256TIP3    H125183   5.783   1.772  15.592 -1.0792  1.2229 -0.0939
 1256TIP3    H225184   5.917   1.775  15.662 -1.6873  0.7477  1.1041
 1257TIP3   OH225185   3.175   0.198  15.538  0.1549  0.3119  0.2114
 1257TIP3    H125186   3.118   0.270  15.566 -0.0141  0.1687  0.2353
 1257TIP3    H225187   3.221   0.171  15.617  0.3268  0.4905  0.1738
 1258TIP3   OH225188   4.245   0.787   1.964  0.6222  0.3506  0.1735
 1258TIP3    H125189   4.258   0.871   1.920  3.4066 -0.1661 -0.1607
 1258TIP3    H225190   4.190   0.737   1.904  0.8672  1.1400 -0.7308
 1259TIP3   OH225191   4.775   0.678   3.941  0.4544 -0.3766 -0.0925
 1259TIP3    H125192   4.785   0.593   3.984 -0.6822 -0.0408  0.9074
 1259TIP3    H225193   4.798   0.742   4.008  0.2885  0.1251 -0.5022
 1260TIP3   OH225194   0.380   4.489  14.923 -0.4601 -0.4832 -0.4374
 1260TIP3    H125195   0.430   4.447  14.993  2.4485  0.9935 -1.5124
 1260TIP3    H225196   0.296   4.509  14.964  0.4274 -1.3736  2.0436
 1261TIP3   OH225197   6.404   4.750  13.256  0.2641 -0.0089  0.6947
 1261TIP3    H125198   6.483   4.721  13.210  0.3054 -0.2633  0.9212
 1261TIP3    H225199   6.432   4.764  13.346  0.3198  1.0840  0.5194
 1262TIP3   OH225200   3.527   3.366   5.706  0.4652 -0.2000  0.5310
 1262TIP3    H125201   3.616   3.358   5.671 -0.0626 -0.8418 -0.7501
 1262TIP3    H225202   3.484   3.429   5.647 -0.0974 -0.3455  0.7826
 1263TIP3   OH225203   2.104   2.401  10.817  0.3889  0.2100  0.8131
 1263TIP3    H125204   2.053   2.329  10.854  1.1971  0.2135  1.9944
 1263TIP3    H225205   2.112   2.380  10.724 -1.2644 -0.0708  0.7009
 1264TIP3   OH225206   6.547   3.090  16.650 -0.7579  0.0552 -0.2432
 1264TIP3    H125207   6.617   3.072  16.713 -1.2675 -0.7701  0.1151
 1264TIP3    H225208   6.558   3.023  16.582  0.0145  1.1695 -1.2407
 1265TIP3   OH225209   5.294   3.300   1.965 -0.0141  0.3742 -0.4792
 1265TIP3    H125210   5.290   3.323   1.872 -0.4310 -0.0741 -0.5766
 1265TIP3    H225211   5.388   3.299   1.984  0.0927  0.1803 -0.9769
 1266TIP3   OH225212   2.016   1.712  14.663  0.1408 -0.2420  0.4544
 1266TIP3    H125213   1.983   1.631  14.626  0.3799 -1.6340  3.0427
 1266TIP3    H225214   1.950   1.778  14.642  0.8664 -0.5377 -3.4038
 1267TIP3   OH225215   6.302   2.971   2.748 -0.2291  0.1457  0.3778
 1267TIP3    H125216   6.307   3.064   2.729 -1.7464  0.2466  0.3230
 1267TIP3    H225217   6.388   2.949   2.784 -0.0942  1.7340  1.1248
 1268TIP3   OH225218   0.128   3.355   2.339 -0.2708 -0.2831  0.4700
 1268TIP3    H125219   0.073   3.344   2.262  1.4713 -0.1089 -0.8435
 1268TIP3    H225220   0.148   3.448   2.341 -0.0273 -0.3430  0.9304
 1269TIP3   OH225221   0.156   2.355  15.955 -0.2209 -0.0391  0.3563
 1269TIP3    H125222   0.158   2.422  16.024 -0.2077  0.4873 -0.1432
 1269TIP3    H225223   0.205   2.394  15.882 -0.1012 -0.6490  0.1022
 1270TIP3   OH225224   6.573   4.533   1.111 -0.4026  0.0730 -0.2616
 1270TIP3    H125225   6.536   4.444   1.106  1.3921 -0.8816  1.8653
 1270TIP3    H225226   6.613   4.537   1.197 -0.0659  2.8581 -0.4772
 1271TIP3   OH225227   2.493   1.260  17.158 -0.1113  0.3186  0.5440
 1271TIP3    H125228   2.543   1.186  17.193  0.0601 -0.7127 -1.6902
 1271TIP3    H225229   2.404   1.227  17.150 -0.1642  0.5498  0.1525
 1272TIP3   OH225230   2.807   6.156   2.773  0.0602  0.6694 -0.1380
 1272TIP3    H125231   2.800   6.159   2.677  0.7008 -2.3360 -0.3804
 1272TIP3    H225232   2.892   6.115   2.789 -0.9174 -0.7853  1.6548
 1273TIP3   OH225233   0.530   1.393   0.268 -0.4392 -0.6807 -0.1632
 1273TIP3    H125234   0.586   1.399   0.190  0.1290 -0.8652  0.2273
 1273TIP3    H225235   0.585   1.351   0.334 -0.5199  0.5459  0.7133
 1274TIP3   OH225236   5.919   4.857   1.617  0.0338 -0.0726  0.3581
 1274TIP3    H125237   5.927   4.792   1.548 -0.0611 -0.0520  0.3283
 1274TIP3    H225238   5.905   4.940   1.572 -0.2875 -0.1000  0.4112
 1275TIP3   OH225239   1.604   4.281  14.547  0.2620  0.7822  0.0089
 1275TIP3    H125240   1.690   4.323  14.559  0.7566  0.4617 -1.9802
 1275TIP3    H225241   1.617   4.222  14.473 -1.6624  0.6302 -0.2569
 1276TIP3   OH225242   1.007   3.182  11.521 -0.1605 -0.0014 -0.2568
 1276TIP3    H125243   0.919   3.174  11.484  0.3661  0.4611 -1.6686
 1276TIP3    H225244   1.000   3.144  11.608 -2.1989  1.6367  0.3715
 1277TIP3   OH225245   6.187   1.968  10.958 -0.3741 -0.2838  0.6253
 1277TIP3    H125246   6.096   1.951  10.932 -0.0721 -0.0301 -0.6525
 1277TIP3    H225247   6.214   2.041  10.904  0.5836 -0.3210  1.0402
 1278TIP3   OH225248   2.096   0.270   4.941  0.2808 -0.3843  0.1405
 1278TIP3    H125249   2.096   0.333   5.013  0.5146 -3.0101  2.5652
 1278TIP3    H225250   2.071   0.187   4.981 -1.2821 -1.6796 -3.1503
 1279TIP3   OH225251   6.148   5.564   2.867  0.2043 -0.4639 -0.7144
 1279TIP3    H125252   6.185   5.599   2.786  0.7232 -2.2881 -1.3228
 1279TIP3    H225253   6.218   5.573   2.931  0.6736 -1.1789 -1.1058
 1280TIP3   OH225254   0.360   4.191  13.480 -0.4839 -0.7834  0.3150
 1280TIP3    H125255   0.427   4.166  13.544 -1.2431  1.2083  1.9965
 1280TIP3    H225256   0.277   4.170  13.524 -1.0108 -0.9472 -0.7299
 1281TIP3   OH225257   1.955   5.271  16.284 -0.1394  0.0051 -0.0913
 1281TIP3    H125258   1.887   5.315  16.335  0.5945  1.0646  0.0130
 1281TIP3    H225259   1.970   5.188  16.329 -3.2474 -1.5336 -1.6311
 1282TIP3   OH225260   5.128   0.234  13.732  0.0102 -0.3313 -0.1611
 1282TIP3    H125261   5.138   0.149  13.775  1.4087 -1.3066 -2.2636
 1282TIP3    H225262   5.037   0.234  13.701 -0.1499 -0.8180  0.2865
 1283TIP3   OH225263   1.144   4.399   2.178 -0.3922 -0.1097 -0.1678
 1283TIP3    H125264   1.068   4.455   2.196  0.1430  0.2018  1.2903
 1283TIP3    H225265   1.216   4.460   2.166  0.0266 -0.4387  0.5831
 1284TIP3   OH225266   2.537   2.182   6.721  0.6920  0.1815 -0.4075
 1284TIP3    H125267   2.594   2.129   6.777  0.7482 -0.1402 -0.7726
 1284TIP3    H225268   2.597   2.244   6.678  0.6950  0.1933 -0.3864
 1285TIP3   OH225269   5.556   1.151  15.036  0.1697  0.0943  0.3087
 1285TIP3    H125270   5.613   1.086  14.996 -1.0415  0.1758 -1.6928
 1285TIP3    H225271   5.605   1.233  15.030  1.2620 -0.3773  1.8930
 1286TIP3   OH225272   2.865   5.414   2.300 -0.9081 -0.2929 -0.4291
 1286TIP3    H125273   2.878   5.320   2.286 -1.1744 -0.4263  0.1696
 1286TIP3    H225274   2.822   5.445   2.220  2.1222 -0.0089 -2.0944
 1287TIP3   OH225275   5.812   1.490   3.691 -0.1168 -0.5706  0.6516
 1287TIP3    H125276   5.800   1.585   3.689 -3.6717 -0.8688 -1.5766
 1287TIP3    H225277   5.754   1.461   3.761 -3.7718 -1.2528 -2.2869
 1288TIP3   OH225278   6.116   0.353  14.166 -0.2140 -0.2806  0.0406
 1288TIP3    H125279   6.062   0.276  14.148  1.1875 -1.0766 -0.9631
 1288TIP3    H225280   6.141   0.344  14.258 -0.0705 -1.0241 -0.0679
 1289TIP3   OH225281   0.119   4.112  15.601  0.1754 -0.3800  0.1533
 1289TIP3    H125282   0.059   4.099  15.528 -2.0772 -0.2647  1.8710
 1289TIP3    H225283   0.088   4.052  15.669  1.0340  0.8004  1.6668
 1290TIP3   OH225284   0.321   1.137   2.610  0.2587 -0.4925  0.2282
 1290TIP3    H125285   0.284   1.203   2.552 -0.8407 -0.5145  0.8807
 1290TIP3    H225286   0.408   1.170   2.633  0.3196 -0.0236 -0.6521
 1291TIP3   OH225287   4.912   3.037   3.398 -0.6310 -0.2724  0.0031
 1291TIP3    H125288   4.821   3.030   3.427  0.5125 -1.3782  3.9940
 1291TIP3    H225289   4.933   2.950   3.365 -0.9934 -0.0025 -0.9696
 1292TIP3   OH225290   6.493   3.709  14.649  0.6899  0.0067  0.8876
 1292TIP3    H125291   6.552   3.777  14.680  0.3468  0.7468 -0.0421
 1292TIP3    H225292   6.443   3.750  14.579 -1.0413 -0.5303  1.7269
 1293TIP3   OH225293   5.618   1.596   2.522 -0.1777 -0.5143 -0.7563
 1293TIP3    H125294   5.659   1.567   2.441  0.0197 -0.4607 -0.6783
 1293TIP3    H225295   5.678   1.566   2.591 -0.6197 -1.0357 -0.5953
 1294TIP3   OH225296   1.894   3.417  14.597 -0.3496  0.4938  0.1674
 1294TIP3    H125297   1.910   3.448  14.686 -0.7471  1.2375 -0.0091
 1294TIP3    H225298   1.814   3.364  14.604 -0.6724  0.9721  0.1724
 1295TIP3   OH225299   4.405   2.224  14.042  0.2216  0.3578 -0.3333
 1295TIP3    H125300   4.404   2.155  13.976 -2.2451 -0.3935  0.3876
 1295TIP3    H225301   4.472   2.197  14.105  0.6197 -0.3724 -1.0560
 1296TIP3   OH225302   0.291   4.424   4.853  0.2572 -0.1368 -0.2304
 1296TIP3    H125303   0.384   4.423   4.830  0.1246  1.1683 -0.9452
 1296TIP3    H225304   0.246   4.420   4.769 -0.2816  2.0336 -0.1020
 1297TIP3   OH225305   0.817   1.275   3.070 -0.1159  0.3254 -0.0875
 1297TIP3    H125306   0.826   1.232   3.154  4.1148  1.7721  0.4186
 1297TIP3    H225307   0.856   1.215   3.007  1.3392  1.2661 -0.1387
 1298TIP3   OH225308   5.588   1.768   2.996 -0.2529  0.3479  0.0815
 1298TIP3    H125309   5.560   1.687   2.954  0.8493  0.2417 -0.4716
 1298TIP3    H225310   5.594   1.831   2.924  1.4124  0.2281  0.0850
 1299TIP3   OH225311   6.477   5.890   6.206  0.1516  0.0885 -0.2872
 1299TIP3    H125312   6.501   5.930   6.290 -1.0889  2.1650 -0.8616
 1299TIP3    H225313   6.537   5.930   6.143 -0.0768 -0.1259 -0.6408
 1300TIP3   OH225314   0.719   5.159  17.014  0.6401 -0.2231 -0.3549
 1300TIP3    H125315   0.648   5.116  17.062  1.6515  0.4235  1.8537
 1300TIP3    H225316   0.789   5.169  17.079  2.0249  0.9138 -1.9445
 1301TIP3   OH225317   4.642   1.237   3.826 -0.0069 -0.3069  0.3852
 1301TIP3    H125318   4.654   1.148   3.793 -1.2215 -0.5783  0.6243
 1301TIP3    H225319   4.586   1.279   3.760  1.5366  0.6902 -0.3587
 1302TIP3   OH225320   6.550   6.573  15.179  0.8119 -0.9047  0.1031
 1302TIP3    H125321   6.525   6.498  15.234  0.2746 -0.5580  0.3400
 1302TIP3    H225322   6.627   6.543  15.132  1.7701 -0.9480  1.6174
 1303TIP3   OH225323   2.986   0.141   3.393  0.0917 -0.0981  0.3932
 1303TIP3    H125324   2.915   0.176   3.446 -0.1788  0.0932 -0.0918
 1303TIP3    H225325   3.063   0.149   3.449  0.0861  1.4874  0.2137
 1304TIP3   OH225326   2.495   6.738   5.634 -0.5682 -0.1111 -0.0884
 1304TIP3    H125327   2.407   6.720   5.666 -0.7437 -1.6634 -1.3175
 1304TIP3    H225328   2.488   6.733   5.538  0.9996 -1.1884 -0.1989
 1305TIP3   OH225329   4.961   2.884  11.988  0.2462 -0.3481 -0.1271
 1305TIP3    H125330   4.946   2.978  12.002 -0.0011 -0.3046 -0.6852
 1305TIP3    H225331   4.961   2.874  11.893 -1.7519 -1.2303 -0.0875
 1306TIP3   OH225332   2.938   6.698   0.469  0.0572 -0.3239  0.2861
 1306TIP3    H125333   2.969   6.788   0.478 -2.4935  0.7572 -0.6747
 1306TIP3    H225334   2.901   6.694   0.381 -0.0677 -2.2939  0.3696
 1307TIP3   OH225335   6.224   5.191   0.642 -0.0247  0.1489 -0.5973
 1307TIP3    H125336   6.164   5.120   0.621  0.7932 -0.5748 -0.5241
 1307TIP3    H225337   6.303   5.148   0.674  0.0086  1.1207  0.7391
 1308TIP3   OH225338   1.405   3.841  13.787 -0.1975  0.0576 -0.7557
 1308TIP3    H125339   1.486   3.832  13.736  0.1593 -2.1817  0.0657
 1308TIP3    H225340   1.378   3.750  13.803 -0.8834  0.6975  2.0858
 1309TIP3   OH225341   5.908   6.394  15.522  0.2981  0.0272 -0.0699
 1309TIP3    H125342   5.966   6.327  15.486 -0.2657 -0.6270  0.2147
 1309TIP3    H225343   5.940   6.407  15.612 -0.3410 -0.7628  0.2865
 1310TIP3   OH225344   0.590   1.168   2.656 -0.3246 -0.5307 -0.2344
 1310TIP3    H125345   0.570   1.252   2.698  0.7541 -0.0320 -0.6827
 1310TIP3    H225346   0.629   1.115   2.725  2.5350  0.6901 -0.7777
 1311TIP3   OH225347   2.622   0.887   2.270 -0.3648 -0.1893 -0.5847
 1311TIP3    H125348   2.603   0.805   2.317 -0.0474 -0.3517 -0.7375
 1311TIP3    H225349   2.714   0.879   2.245  1.0175  1.9766  3.0047
 1312TIP3   OH225350   6.032   3.974  11.438 -0.1361  0.2447  0.0997
 1312TIP3    H125351   5.955   3.919  11.455 -0.4757  1.6428  4.0374
 1312TIP3    H225352   6.100   3.913  11.411 -1.7552 -1.4361 -0.3784
 1313TIP3   OH225353   4.887   4.085   0.691  0.1267  0.0528  0.8312
 1313TIP3    H125354   4.969   4.035   0.695  0.3785  0.3846 -0.0298
 1313TIP3    H225355   4.914   4.175   0.677 -0.3702  0.2673  1.2168
 1314TIP3   OH225356   5.243   3.983  14.093 -0.5833  0.2902 -0.1964
 1314TIP3    H125357   5.261   3.890  14.091 -0.5759  0.2335  1.1600
 1314TIP3    H225358   5.328   4.024  14.109 -0.6548  0.4962 -0.3418
 1315TIP3   OH225359   0.333   0.530  15.909  0.2216  0.0104 -0.2717
 1315TIP3    H125360   0.366   0.536  15.999  2.6117 -2.2018 -0.8769
 1315TIP3    H225361   0.239   0.547  15.917  0.3230 -0.2430  2.6398
 1316TIP3   OH225362   1.258   0.141  15.122 -0.7791  0.1326 -0.1852
 1316TIP3    H125363   1.324   0.151  15.191  0.0316 -1.7267 -0.6303
 1316TIP3    H225364   1.220   0.055  15.137 -1.0673 -0.0243 -1.6454
 1317TIP3   OH225365   4.113   3.908  10.761  0.0730  0.0372  0.0403
 1317TIP3    H125366   4.155   3.979  10.713 -1.3707  0.4960 -0.5980
 1317TIP3    H225367   4.156   3.908  10.846  1.3300  0.4860 -0.5780
 1318TIP3   OH225368   4.187   1.449  12.970  0.4827 -0.5005  0.1879
 1318TIP3    H125369   4.270   1.475  12.930  0.8231 -0.0736  1.1374
 1318TIP3    H225370   4.197   1.472  13.063 -0.6990 -0.4317  0.3128
 1319TIP3   OH225371   4.533   3.425   3.172 -0.2913 -0.4653 -0.3638
 1319TIP3    H125372   4.494   3.361   3.231 -1.5961  0.4205 -0.2445
 1319TIP3    H225373   4.541   3.378   3.089 -2.1876 -0.5176 -0.5605
 1320TIP3   OH225374   4.896   5.988  13.429 -0.7147  0.5701  0.3213
 1320TIP3    H125375   4.912   5.930  13.354 -2.3836 -1.0451  1.1505
 1320TIP3    H225376   4.803   6.008  13.424 -0.6528  1.1972  1.4497
 1321TIP3   OH225377   3.558   0.571  11.394 -0.1861  0.4993  0.5334
 1321TIP3    H125378   3.484   0.549  11.338  0.4210  1.5495 -0.7247
 1321TIP3    H225379   3.528   0.648  11.443 -0.0925  0.6455  0.3615
 1322TIP3   OH225380   2.787   6.713   3.664 -0.0488  0.7060 -0.2124
 1322TIP3    H125381   2.767   6.636   3.717 -0.3482  0.7243 -0.3001
 1322TIP3    H225382   2.855   6.759   3.714  0.6356  0.0285 -0.4943
 1323TIP3   OH225383   6.294   6.753  11.634 -0.4877  0.3848 -0.7081
 1323TIP3    H125384   6.301   6.833  11.686 -0.9022  0.0160 -0.0571
 1323TIP3    H225385   6.297   6.782  11.543  1.7381  0.9272 -0.5245
 1324TIP3   OH225386   0.330   3.192  14.942 -0.2787 -0.6976  0.1451
 1324TIP3    H125387   0.419   3.181  14.975  0.1480  1.5904 -0.0797
 1324TIP3    H225388   0.301   3.276  14.977 -1.7175 -0.5977 -1.1537
 1325TIP3   OH225389   1.681   0.078   3.960 -0.2238 -0.6918 -0.1675
 1325TIP3    H125390   1.737   0.079   3.882  0.8836  1.9381  0.5693
 1325TIP3    H225391   1.595   0.103   3.927  0.0213 -0.5095 -0.6908
 1326TIP3   OH225392   5.836   2.164   3.966  0.2773  0.1524  0.3732
 1326TIP3    H125393   5.788   2.157   4.049 -2.5533 -0.8337 -1.1857
 1326TIP3    H225394   5.875   2.077   3.954  0.1803  0.1025  0.4122
 1327TIP3   OH225395   4.989   3.074   3.708 -0.4864 -0.4121 -0.6320
 1327TIP3    H125396   4.934   3.127   3.652  1.0716  0.5473 -1.3272
 1327TIP3    H225397   5.073   3.069   3.662  1.1332  1.0692  1.8981
 1328TIP3   OH225398   4.919   6.671  15.316  0.0288  0.1377  0.6570
 1328TIP3    H125399   4.954   6.760  15.309 -0.4777  0.4036  1.3334
 1328TIP3    H225400   4.984   6.616  15.272  0.6820  0.7573  0.8218
 1329TIP3   OH225401   0.982   5.373   5.474  0.1394  0.3290 -0.2819
 1329TIP3    H125402   0.889   5.357   5.494 -0.1196  1.4301 -0.5433
 1329TIP3    H225403   1.029   5.303   5.520 -0.7392  0.3632  0.6930
 1330TIP3   OH225404   4.352   1.972  12.106  0.0634 -0.9468  0.4028
 1330TIP3    H125405   4.341   2.067  12.099 -0.5607 -1.0316  0.1498
 1330TIP3    H225406   4.446   1.958  12.097  0.0875 -0.4112 -0.2712
 1331TIP3   OH225407   0.943   4.333  16.937 -0.8316  0.0493  0.4649
 1331TIP3    H125408   0.926   4.426  16.946  0.0181  0.1168  1.5408
 1331TIP3    H225409   0.943   4.299  17.026 -0.4766 -0.8542  0.1376
 1332TIP3   OH225410   2.293   0.351   2.447 -0.1013 -0.3918  0.2160
 1332TIP3    H125411   2.239   0.298   2.388 -1.7021 -0.2538  1.4823
 1332TIP3    H225412   2.262   0.328   2.534  1.4445  0.2366  0.9648
 1333TIP3   OH225413   4.550   1.279   0.923  0.0410  0.3899  0.1016
 1333TIP3    H125414   4.513   1.269   1.010  0.0053 -1.7347 -0.1041
 1333TIP3    H225415   4.627   1.334   0.936  0.3765 -0.3814  1.5949
 1334TIP3   OH225416   3.376   4.418  12.135  0.2274  0.5141  0.8639
 1334TIP3    H125417   3.444   4.376  12.082  0.0786  0.6676  0.5499
 1334TIP3    H225418   3.296   4.405  12.085  0.1916  1.2307  0.7271
 1335TIP3   OH225419   3.080   6.347  13.771  0.6259 -0.0168 -0.0599
 1335TIP3    H125420   3.119   6.327  13.686 -2.6313 -1.0632 -1.4878
 1335TIP3    H225421   3.069   6.261  13.812 -0.2018  0.2113  0.2196
 1336TIP3   OH225422   2.436   5.259  15.670  0.2415  0.0098 -0.4823
 1336TIP3    H125423   2.452   5.345  15.631  0.6289  0.1271 -0.0831
 1336TIP3    H225424   2.357   5.271  15.723  2.2789  1.1957  2.5898
 1337TIP3   OH225425   5.201   5.442  13.303  0.6829  0.3214 -0.0560
 1337TIP3    H125426   5.282   5.432  13.253  0.3588 -3.6166 -0.0445
 1337TIP3    H225427   5.227   5.432  13.394  0.7077  3.6961  0.4328
 1338TIP3   OH225428   0.684   4.589   5.595  0.5960 -0.5872  0.2177
 1338TIP3    H125429   0.679   4.536   5.515  0.3390 -0.4694  0.1550
 1338TIP3    H225430   0.679   4.526   5.666 -0.0863 -0.6164  0.1448
 1339TIP3   OH225431   1.189   2.970   5.768 -0.3601  0.0667 -0.0918
 1339TIP3    H125432   1.143   3.052   5.788  0.5616  0.0370  2.4334
 1339TIP3    H225433   1.205   2.974   5.674 -2.6852  1.5297 -0.5003
 1340TIP3   OH225434   0.577   4.830   0.917 -0.1180  0.2769 -0.2636
 1340TIP3    H125435   0.599   4.791   0.832 -0.7685 -0.0639 -0.2805
 1340TIP3    H225436   0.617   4.917   0.915  2.2689 -0.7192  0.1737
 1341TIP3   OH225437   5.237   4.354  15.216  0.3017 -0.2450  0.5667
 1341TIP3    H125438   5.227   4.447  15.232  0.2377 -0.4554  1.8224
 1341TIP3    H225439   5.148   4.321  15.205  0.3565 -0.0670 -0.4742
 1342TIP3   OH225440   5.503   4.650  13.573  0.7379 -0.4101  0.0069
 1342TIP3    H125441   5.440   4.721  13.574  2.6292  1.3471  1.0780
 1342TIP3    H225442   5.497   4.614  13.484 -0.8484  0.5054 -0.2917
 1343TIP3   OH225443   0.526   4.040   2.033  0.1737 -0.2729 -0.2857
 1343TIP3    H125444   0.604   4.087   2.062  0.2855  0.2801 -1.4245
 1343TIP3    H225445   0.475   4.105   1.985 -0.8612 -0.7030  0.2129
 1344TIP3   OH225446   0.916   1.860  14.405  0.0060 -0.2894 -0.0755
 1344TIP3    H125447   0.983   1.876  14.338  0.1048 -0.4476 -0.0168
 1344TIP3    H225448   0.840   1.910  14.376  0.5700  0.9787  0.5513
 1345TIP3   OH225449   4.841   4.144  12.758 -0.2192 -0.4596  0.3218
 1345TIP3    H125450   4.801   4.185  12.835  0.5309  0.4816  0.2328
 1345TIP3    H225451   4.913   4.092  12.793  1.4104  1.5459  0.1694
 1346TIP3   OH225452   6.040   4.065   4.401 -0.1912 -0.5378  0.1565
 1346TIP3    H125453   6.073   4.074   4.312 -0.4087 -1.4131 -0.0199
 1346TIP3    H225454   5.986   3.986   4.399 -2.4488  0.9128  0.3819
 1347TIP3   OH225455   4.537   6.151   2.878 -0.3393 -0.0260  0.2934
 1347TIP3    H125456   4.621   6.111   2.854  0.8266  1.7485  1.1860
 1347TIP3    H225457   4.484   6.078   2.910  1.2382 -1.0338  0.7213
 1348TIP3   OH225458   2.481   3.866   2.906  0.2609  0.1719  0.4921
 1348TIP3    H125459   2.515   3.955   2.894  0.1448  0.3178  1.2041
 1348TIP3    H225460   2.480   3.829   2.818  3.2506 -0.2229  0.5106
 1349TIP3   OH225461   6.199   5.518  16.884  0.2281  0.2941 -0.2152
 1349TIP3    H125462   6.145   5.525  16.805  0.7548  0.3627 -0.5691
 1349TIP3    H225463   6.135   5.509  16.955 -0.2392 -0.2486 -0.6928
 1350TIP3   OH225464   5.842   2.224   4.560  0.6056  0.1389  0.5206
 1350TIP3    H125465   5.759   2.239   4.515  1.1277 -0.3682 -0.6483
 1350TIP3    H225466   5.855   2.303   4.614  0.5875  1.3864 -1.2217
 1351TIP3   OH225467   2.178   5.832   3.761  0.0714  0.0284  0.5027
 1351TIP3    H125468   2.142   5.830   3.673  1.8104 -0.4360 -0.2457
 1351TIP3    H225469   2.203   5.923   3.776 -1.8803  0.4912  1.2806
 1352TIP3   OH225470   1.712   2.422  13.752 -0.5792 -0.3067 -0.4145
 1352TIP3    H125471   1.802   2.433  13.722  0.4405 -0.3820  2.3477
 1352TIP3    H225472   1.699   2.327  13.754  0.0457 -0.3878  1.1062
 1353TIP3   OH225473   0.966   0.867  13.215  0.4272 -0.2260  0.5795
 1353TIP3    H125474   0.894   0.813  13.181 -0.4034  1.8275 -1.1796
 1353TIP3    H225475   1.044   0.830  13.174  0.1540 -1.3007  0.9832
 1354TIP3   OH225476   2.642   2.501  11.159 -0.4589  0.0724 -0.1165
 1354TIP3    H125477   2.555   2.541  11.151 -0.3472  0.3078 -0.1516
 1354TIP3    H225478   2.657   2.460  11.074  0.3232  1.7611 -0.8239
 1355TIP3   OH225479   3.090   6.665  15.730  0.0817  0.6298  0.2670
 1355TIP3    H125480   3.020   6.683  15.792 -2.9374 -2.9312 -1.7029
 1355TIP3    H225481   3.080   6.731  15.661 -1.6775 -0.0604 -0.1764
 1356TIP3   OH225482   6.774   3.920  11.982 -0.1213 -1.4461 -0.7497
 1356TIP3    H125483   6.747   3.868  12.057  0.1423  0.2274  0.5689
 1356TIP3    H225484   6.836   3.984  12.018 -0.8025  0.0954 -2.1676
 1357TIP3   OH225485   2.777   5.404  16.310 -0.2186  0.0640  0.5856
 1357TIP3    H125486   2.854   5.347  16.317 -0.7716 -1.1478 -2.0871
 1357TIP3    H225487   2.724   5.381  16.387  1.5862  0.2386  1.9622
 1358TIP3   OH225488   0.760   2.943  12.405  0.8116 -0.5551 -0.6416
 1358TIP3    H125489   0.843   2.990  12.414  0.8077 -0.5025 -0.8879
 1358TIP3    H225490   0.694   3.004  12.438  0.9749 -0.9603  0.4763
 1359TIP3   OH225491   1.892   1.945   0.514  0.2323 -0.4884  0.1234
 1359TIP3    H125492   1.880   2.016   0.451 -0.8053 -0.6775  0.0962
 1359TIP3    H225493   1.917   1.870   0.459  0.1638 -0.4425  0.0287
 1360TIP3   OH225494   4.591   5.471   5.821  0.8217 -0.5665 -0.0253
 1360TIP3    H125495   4.617   5.544   5.878  0.8122 -0.4344 -0.1883
 1360TIP3    H225496   4.516   5.431   5.866  0.2693  0.0658 -0.3643
 1361TIP3   OH225497   0.508   6.332   4.639 -0.3705  0.3329 -0.0705
 1361TIP3    H125498   0.532   6.386   4.564 -0.6311  1.8828  0.9148
 1361TIP3    H225499   0.579   6.347   4.702 -0.8764  0.1865  0.5390
 1362TIP3   OH225500   0.059   2.704   5.726  0.2569 -0.3197 -0.3219
 1362TIP3    H125501   0.127   2.725   5.790  1.8786 -1.3506 -1.6398
 1362TIP3    H225502   0.004   2.782   5.725 -0.0061 -0.3435  2.4725
 1363TIP3   OH225503   6.536   0.480  15.998 -0.3995  0.3354  0.3146
 1363TIP3    H125504   6.503   0.407  15.945 -2.4678  0.4705  1.3269
 1363TIP3    H225505   6.463   0.542  16.001  1.2564  2.4226 -0.4045
 1364TIP3   OH225506   6.596   0.976  14.108 -0.1994 -0.0205 -0.2683
 1364TIP3    H125507   6.554   0.990  14.023 -0.3671  0.8753 -0.0481
 1364TIP3    H225508   6.625   1.064  14.136  1.1064 -0.4931 -0.0447
 1365TIP3   OH225509   2.885   0.531  14.072  0.3035  0.1500  0.0859
 1365TIP3    H125510   2.936   0.561  14.148 -0.2623 -0.3682  0.6784
 1365TIP3    H225511   2.890   0.436  14.076 -0.4324  0.1025 -0.0499
 1366TIP3   OH225512   1.804   4.122   1.656 -0.0814  0.4060  0.5025
 1366TIP3    H125513   1.835   4.042   1.614  1.3679  0.0603  2.1118
 1366TIP3    H225514   1.884   4.168   1.683 -0.8880  0.7377  2.5664
 1367TIP3   OH225515   3.674   5.264  15.154 -0.1399 -0.0183  0.3862
 1367TIP3    H125516   3.665   5.193  15.090  2.1747  0.9261 -1.1180
 1367TIP3    H225517   3.713   5.222  15.231 -0.3346 -0.6898  0.1221
 1368TIP3   OH225518   2.658   3.024   1.441 -0.3610  0.1161 -0.4729
 1368TIP3    H125519   2.684   3.043   1.531 -0.0755  2.1295 -0.9398
 1368TIP3    H225520   2.739   2.997   1.398 -0.2305  0.4731 -0.4525
 1369TIP3   OH225521   2.951   2.604   2.415 -0.7814 -0.1524  0.0924
 1369TIP3    H125522   3.027   2.593   2.473 -0.2574 -1.0952 -0.7405
 1369TIP3    H225523   2.921   2.693   2.432  0.9612  0.5031 -0.0651
 1370TIP3   OH225524   3.551   2.600   3.475  0.1256 -0.0436  0.2762
 1370TIP3    H125525   3.547   2.542   3.550 -0.3444  1.3413  1.3577
 1370TIP3    H225526   3.626   2.658   3.493 -0.1238  0.4440 -0.2040
 1371TIP3   OH225527   0.622   1.534  13.239  0.1486  0.5876  0.4187
 1371TIP3    H125528   0.603   1.451  13.195  3.3907 -0.5405  0.9200
 1371TIP3    H225529   0.637   1.596  13.168  0.3092  0.0710 -0.0011
 1372TIP3   OH225530   6.125   0.703  15.714 -0.1299  0.2176  0.2949
 1372TIP3    H125531   6.202   0.669  15.669  1.0638  1.7883  1.0460
 1372TIP3    H225532   6.054   0.646  15.686  1.3501 -1.4872 -0.1762
 1373TIP3   OH225533   2.593   5.469  11.701  0.0363 -1.0506 -0.0938
 1373TIP3    H125534   2.577   5.508  11.787  1.5926  0.8594 -0.5769
 1373TIP3    H225535   2.569   5.377  11.710 -1.0782 -0.5978  1.9832
 1374TIP3   OH225536   5.375   0.950  15.756 -0.7064  0.4165  0.5758
 1374TIP3    H125537   5.443   1.015  15.772  1.2921 -1.9238  2.6305
 1374TIP3    H225538   5.312   0.964  15.827 -1.1619  1.1298  0.0371
 1375TIP3   OH225539   1.433   4.935  13.575  0.0792  0.1089 -0.5938
 1375TIP3    H125540   1.435   5.025  13.544 -1.7087  0.5422  0.4111
 1375TIP3    H225541   1.525   4.908  13.575  0.5529  1.5906 -1.8211
 1376TIP3   OH225542   3.753   2.051   1.608 -0.7154 -0.0553 -0.1746
 1376TIP3    H125543   3.847   2.065   1.617 -0.8977  1.5511 -0.4616
 1376TIP3    H225544   3.714   2.130   1.646 -1.9720 -0.8966  0.3536
 1377TIP3   OH225545   4.959   2.021  16.034 -0.5694 -0.2896 -0.2958
 1377TIP3    H125546   4.885   2.040  15.977 -0.7206  1.9872  0.5540
 1377TIP3    H225547   4.945   1.931  16.063 -1.3379 -0.9522 -2.5245
 1378TIP3   OH225548   0.620   3.375   2.347  0.7594 -0.7477 -0.2000
 1378TIP3    H125549   0.555   3.305   2.336  0.7829 -0.8505  0.2703
 1378TIP3    H225550   0.703   3.328   2.352  0.9929 -0.5562 -1.7655
 1379TIP3   OH225551   3.505   2.055   1.436 -0.3743 -0.5013 -0.3800
 1379TIP3    H125552   3.587   2.054   1.487 -1.7123  0.0527  1.9129
 1379TIP3    H225553   3.534   2.073   1.347  2.0672 -0.9674  0.2277
 1380TIP3   OH225554   0.531   6.655  16.917  0.2331  0.1117  0.0630
 1380TIP3    H125555   0.584   6.634  16.840  1.9215 -0.3390  1.2865
 1380TIP3    H225556   0.522   6.571  16.962 -3.6367 -0.3697 -1.2583
 1381TIP3   OH225557   5.730   0.311  14.059  0.4607  0.9205 -0.0917
 1381TIP3    H125558   5.764   0.401  14.057 -1.7141  1.8042 -0.8284
 1381TIP3    H225559   5.724   0.286  13.967 -1.2975  1.0371 -0.0531
 1382TIP3   OH225560   1.965   6.029  13.748  0.6142  0.3197 -0.5450
 1382TIP3    H125561   1.921   6.017  13.664  0.3689  0.8486 -0.4993
 1382TIP3    H225562   2.058   6.016  13.729  0.4406 -1.0265 -0.6016
 1383TIP3   OH225563   5.163   6.788  11.792  0.0298  0.3572 -0.5337
 1383TIP3    H125564   5.162   6.867  11.846 -2.8204 -0.2084  0.4185
 1383TIP3    H225565   5.216   6.725  11.842 -1.0407  0.4245  0.7247
 1384TIP3   OH225566   4.292   5.913   6.221  0.0274 -0.4546  0.2731
 1384TIP3    H125567   4.376   5.957   6.206 -0.4502  0.3608 -0.0326
 1384TIP3    H225568   4.233   5.951   6.156 -0.2046 -2.1045 -0.5542
 1385TIP3   OH225569   0.034   5.485   3.450  0.9907 -0.1502  0.6352
 1385TIP3    H125570  -0.017   5.428   3.507  0.5964 -0.8735 -0.4092
 1385TIP3    H225571   0.115   5.501   3.499  0.1220  0.3756  1.9757
 1386TIP3   OH225572   2.714   0.306   1.944  0.1038 -0.1519 -0.1622
 1386TIP3    H125573   2.699   0.372   1.876 -3.3774 -0.1947  0.3730
 1386TIP3    H225574   2.685   0.224   1.903  0.0688 -0.5498  0.6532
 1387TIP3   OH225575   5.001   5.892  13.181  0.2279 -0.4798  0.1638
 1387TIP3    H125576   4.981   5.800  13.164 -1.6171 -0.0206 -0.3949
 1387TIP3    H225577   5.033   5.926  13.098 -0.8271 -0.2122 -0.1498
 1388TIP3   OH225578   5.238   3.964  15.833  0.3910 -0.1093 -0.1037
 1388TIP3    H125579   5.170   3.967  15.901  1.5277 -0.7852  1.1212
 1388TIP3    H225580   5.286   3.883  15.851  1.7425  0.5329 -0.7067
 1389TIP3   OH225581   3.588   2.940  12.524 -0.0740  0.3562 -0.1534
 1389TIP3    H125582   3.681   2.937  12.548  0.2535  1.1345 -1.2430
 1389TIP3    H225583   3.577   2.874  12.457 -0.4485 -0.1337  0.3794
 1390TIP3   OH225584   5.111   0.507  16.689  0.2689 -0.0532  0.0746
 1390TIP3    H125585   5.082   0.512  16.780 -0.6918 -1.8438 -0.0881
 1390TIP3    H225586   5.188   0.563  16.686  0.2023  0.2228  1.9326
 1391TIP3   OH225587   2.288   2.002   4.124  0.2299 -0.3678 -0.0562
 1391TIP3    H125588   2.355   1.955   4.174  1.4763  0.7019 -0.6619
 1391TIP3    H225589   2.274   1.948   4.046 -0.9679 -1.5129  0.9113
 1392TIP3   OH225590   6.605   1.423   4.594  0.3491  0.1066  0.1554
 1392TIP3    H125591   6.605   1.330   4.619 -1.4869 -0.0739 -0.3822
 1392TIP3    H225592   6.546   1.464   4.657 -0.3778  0.5393 -0.7818
 1393TIP3   OH225593   4.920   4.243  11.963 -0.0046 -0.6185 -0.1688
 1393TIP3    H125594   5.001   4.264  12.009  0.5953 -1.4526 -0.8047
 1393TIP3    H225595   4.851   4.269  12.024  0.7512 -0.9407  0.8663
 1394TIP3   OH225596   0.051   3.883  13.903 -0.7715  0.3721  0.2519
 1394TIP3    H125597   0.048   3.979  13.898  1.2956  0.4467 -0.1611
 1394TIP3    H225598   0.094   3.856  13.822 -1.4747 -0.9504  0.2895
 1395TIP3   OH225599   4.407   2.610   0.184 -0.0261 -0.2092 -0.0519
 1395TIP3    H125600   4.484   2.576   0.140  0.1467  0.5477 -0.3456
 1395TIP3    H225601   4.438   2.686   0.234 -0.7371  0.7115 -0.9534
 1396TIP3   OH225602   3.683   6.355   2.977 -0.2480  0.1700  0.6933
 1396TIP3    H125603   3.659   6.264   2.964  0.4177  0.1321 -0.3892
 1396TIP3    H225604   3.717   6.359   3.067 -1.0138 -0.4651  1.0219
 1397TIP3   OH225605   0.374   4.720  15.395  0.7829  0.0378  0.1269
 1397TIP3    H125606   0.453   4.732  15.342  1.9084 -0.8569  1.5460
 1397TIP3    H225607   0.404   4.680  15.476 -1.1949 -0.7198  0.5607
 1398TIP3   OH225608   2.992   4.855   5.954 -0.7683  0.2868 -0.0053
 1398TIP3    H125609   3.065   4.808   5.996 -0.4361 -0.1860 -1.0736
 1398TIP3    H225610   3.030   4.893   5.875 -1.5594  0.4598 -0.3148
 1399TIP3   OH225611   3.494   4.995   3.692 -0.6162  0.2634  0.2410
 1399TIP3    H125612   3.585   5.023   3.678 -0.6430 -0.6260 -2.4690
 1399TIP3    H225613   3.502   4.910   3.736 -0.2660  1.1534  1.9640
 1400TIP3   OH225614   0.722   6.249   0.904 -0.7060  0.1972 -0.1788
 1400TIP3    H125615   0.779   6.308   0.855  1.8694 -1.2399  0.8826
 1400TIP3    H225616   0.707   6.175   0.844  2.4176 -1.5461  0.9444
 1401TIP3   OH225617   2.871   5.874  11.936 -0.1159 -0.2260 -0.1811
 1401TIP3    H125618   2.898   5.801  11.881  2.4898  0.2792  0.3012
 1401TIP3    H225619   2.914   5.858  12.020  1.7772  2.5544 -0.4991
 1402TIP3   OH225620   0.092   5.324   4.259 -0.2144  0.3850  0.4787
 1402TIP3    H125621  -0.002   5.336   4.271 -0.3004 -0.4569  0.7648
 1402TIP3    H225622   0.100   5.276   4.177 -0.0085  0.8163  0.2466
 1403TIP3   OH225623   1.810   2.312   0.640  0.2501 -0.1532  0.3323
 1403TIP3    H125624   1.813   2.218   0.658  0.2562 -0.7667 -2.4505
 1403TIP3    H225625   1.900   2.337   0.621  0.0903  0.2040  0.0288
 1404TIP3   OH225626   0.919   4.884  16.962  0.1813 -0.1038  0.4134
 1404TIP3    H125627   0.930   4.947  16.892  0.8929 -0.1845  0.4476
 1404TIP3    H225628   0.824   4.873  16.970  0.0803  0.3637 -0.1176
 1405TIP3   OH225629   6.540   1.489   0.042  0.1775  0.5236  0.3034
 1405TIP3    H125630   6.631   1.491   0.073 -0.0236  1.4746  0.8998
 1405TIP3    H225631   6.516   1.581   0.034  0.1135  0.3452 -2.5324
 1406TIP3   OH225632   1.558   2.395  15.044  0.6190  0.5895 -0.3707
 1406TIP3    H125633   1.546   2.418  14.952  1.8609 -0.8825 -0.9421
 1406TIP3    H225634   1.559   2.479  15.090 -2.2099  1.2808 -1.3548
 1407TIP3   OH225635   5.256   3.848  10.827  0.3162  0.1427  0.7049
 1407TIP3    H125636   5.319   3.895  10.772  1.0165 -0.6319  0.8243
 1407TIP3    H225637   5.228   3.913  10.892 -1.1266  1.3094 -1.0009
 1408TIP3   OH225638   1.928   2.104   5.000  0.8008  0.0791 -0.6100
 1408TIP3    H125639   1.852   2.162   4.995  0.5602  0.0407  1.6823
 1408TIP3    H225640   1.893   2.017   4.980  0.8448  0.4237 -2.3803
 1409TIP3   OH225641   5.857   0.004   2.347 -0.2315  0.1119 -0.0997
 1409TIP3    H125642   5.824  -0.034   2.428 -0.6889 -3.1549 -1.6664
 1409TIP3    H225643   5.867   0.098   2.366 -0.4773 -0.4957  3.6028
 1410TIP3   OH225644   2.535   5.076   5.892 -1.0467 -0.8052  0.0281
 1410TIP3    H125645   2.625   5.058   5.920 -0.8410  1.6882  1.2852
 1410TIP3    H225646   2.502   5.139   5.956 -3.3544 -0.8696 -0.9885
 1411TIP3   OH225647   0.788   6.259  15.172 -0.1747  0.7979 -0.1905
 1411TIP3    H125648   0.843   6.335  15.155 -1.1160  1.1770 -1.7494
 1411TIP3    H225649   0.742   6.243  15.090  0.4307 -1.8480 -0.1202
 1412TIP3   OH225650   3.504   5.440   5.717 -0.1060  0.4633 -0.3643
 1412TIP3    H125651   3.459   5.357   5.727  0.3343  0.3449  0.8052
 1412TIP3    H225652   3.578   5.421   5.659 -1.9601  0.8458 -3.0022
 1413TIP3   OH225653   4.061   0.024  16.235 -0.0026  0.1556  0.4704
 1413TIP3    H125654   4.010  -0.056  16.230  0.1586  0.1243 -1.1965
 1413TIP3    H225655   4.142   0.004  16.187  0.1634  1.2254  0.2745
 1414TIP3   OH225656   2.955   3.215  15.801 -0.7137  0.0524 -0.8477
 1414TIP3    H125657   3.045   3.219  15.834  0.4598  0.5892 -3.8204
 1414TIP3    H225658   2.932   3.306  15.782 -1.7714 -0.1209 -0.4622
 1415TIP3   OH225659   3.286   2.758   4.862  0.2629  0.3804 -0.3741
 1415TIP3    H125660   3.236   2.833   4.831  1.3400  0.2234 -2.7506
 1415TIP3    H225661   3.258   2.685   4.806 -0.1552 -0.8449  1.3279
 1416TIP3   OH225662   6.390   2.219  11.154 -0.1068  0.5278 -0.2222
 1416TIP3    H125663   6.483   2.236  11.145 -0.2377  0.3614 -2.4256
 1416TIP3    H225664   6.378   2.131  11.118 -1.0756  0.3867  0.3817
 1417TIP3   OH225665   2.404   6.140  16.643  0.1545  0.8266  0.1048
 1417TIP3    H125666   2.458   6.208  16.683 -1.7922  1.1091  2.4484
 1417TIP3    H225667   2.324   6.185  16.615  0.2078  0.0629 -1.4062
 1418TIP3   OH225668   6.322   6.154  10.869  0.6719 -0.2097 -0.6270
 1418TIP3    H125669   6.277   6.080  10.828 -0.3967 -1.7630  2.9631
 1418TIP3    H225670   6.294   6.230  10.818 -0.1750 -1.9602 -2.9602
 1419TIP3   OH225671   0.091   5.258   5.143 -0.3106 -0.7792 -0.2281
 1419TIP3    H125672   0.067   5.348   5.163 -2.3269 -0.8483 -2.0107
 1419TIP3    H225673   0.180   5.263   5.109  0.3974  0.2250  1.6362
 1420TIP3   OH225674   0.173   3.257  14.075  0.0317 -0.2312  0.5076
 1420TIP3    H125675   0.178   3.332  14.135  0.0810  0.0044  0.2125
 1420TIP3    H225676   0.102   3.279  14.015 -1.3622 -1.3656  1.6799
 1421TIP3   OH225677   1.026   3.556  11.882  0.7669  0.1659  0.0004
 1421TIP3    H125678   1.095   3.496  11.909  1.1906 -0.2614 -1.8841
 1421TIP3    H225679   1.073   3.636  11.857  0.4403  0.3803  0.0693
 1422TIP3   OH225680   3.276   3.702  15.922 -0.1339  0.2671  0.3831
 1422TIP3    H125681   3.256   3.794  15.934 -0.4343 -0.0578  2.8432
 1422TIP3    H225682   3.202   3.655  15.960  0.1142 -1.0023 -0.6125
 1423TIP3   OH225683   4.702   2.972   5.417 -0.2665 -0.2215  0.0126
 1423TIP3    H125684   4.654   2.889   5.409 -1.7759  0.7801 -3.0379
 1423TIP3    H225685   4.650   3.025   5.477 -0.5495 -0.6954  0.1872
 1424TIP3   OH225686   5.940   3.192   5.994 -0.2197 -0.0934 -0.4590
 1424TIP3    H125687   5.928   3.100   6.017 -1.1356  0.0179 -0.4515
 1424TIP3    H225688   6.026   3.215   6.029 -1.7366  0.2446  3.4514
 1425TIP3   OH225689   1.078   1.954  13.712  0.0648 -0.2286  0.7037
 1425TIP3    H125690   1.034   1.902  13.645 -0.9737  1.1233  0.2990
 1425TIP3    H225691   1.124   1.889  13.766 -2.1136 -1.6998  0.9389
 1426TIP3   OH225692   4.118   3.626   0.765 -0.1458  0.6662 -0.3695
 1426TIP3    H125693   4.133   3.609   0.858 -0.8043  0.2044 -0.3403
 1426TIP3    H225694   4.139   3.719   0.754  0.1293  0.6769  0.1972
 1427TIP3   OH225695   4.701   3.537  11.401  0.0653  0.5707 -0.0504
 1427TIP3    H125696   4.699   3.543  11.496 -0.3306  2.2386 -0.1284
 1427TIP3    H225697   4.709   3.627  11.371 -2.3181  0.3676 -1.6401
 1428TIP3   OH225698   2.026   6.661   4.679 -0.7427  0.2056  0.1358
 1428TIP3    H125699   2.082   6.686   4.605  1.1904  1.1414  1.8207
 1428TIP3    H225700   1.945   6.709   4.664 -0.0785  1.0482 -0.9405
 1429TIP3   OH225701   4.499   4.595  16.051 -0.0223  0.5979  0.8823
 1429TIP3    H125702   4.569   4.540  16.085 -0.4094  0.0667  0.8272
 1429TIP3    H225703   4.429   4.534  16.028 -0.1919  1.0492  0.1645
 1430TIP3   OH225704   4.421   0.758   3.428 -0.1310 -0.0305  0.3784
 1430TIP3    H125705   4.479   0.738   3.355  0.0778  1.8762 -0.0450
 1430TIP3    H225706   4.440   0.691   3.494  1.6414 -0.1918 -0.2505
 1431TIP3   OH225707   5.172   3.999   0.630  0.1761  0.1310  0.0123
 1431TIP3    H125708   5.226   4.068   0.591 -1.4188  0.4134 -1.8209
 1431TIP3    H225709   5.151   3.941   0.557 -0.9829 -0.6317  0.9308
 1432TIP3   OH225710   6.011   6.308  10.505 -0.6419 -0.1506 -0.4245
 1432TIP3    H125711   6.053   6.302  10.419  2.0519  0.2326  0.7671
 1432TIP3    H225712   6.070   6.260  10.564 -1.8339  0.5344  1.4090
 1433TIP3   OH225713   4.029   6.361  13.363  0.3856  0.5356 -0.0200
 1433TIP3    H125714   3.960   6.427  13.355 -0.2628  0.1736  2.0314
 1433TIP3    H225715   4.108   6.404  13.332 -0.1762  2.0250  0.5478
 1434TIP3   OH225716   1.833   2.357  12.346 -0.9034 -0.2590  0.5322
 1434TIP3    H125717   1.773   2.294  12.305 -1.2531  2.4857 -3.8295
 1434TIP3    H225718   1.780   2.435  12.360  0.8729  1.2607 -0.6612
 1435TIP3   OH225719   5.879   0.673  13.172  0.0828 -0.0589  0.1005
 1435TIP3    H125720   5.862   0.627  13.090  0.1228 -0.6891  0.4376
 1435TIP3    H225721   5.799   0.723  13.188 -0.4024 -0.8732  0.2832
 1436TIP3   OH225722   5.062   2.816  14.297  0.3760 -0.1458  1.1556
 1436TIP3    H125723   5.112   2.855  14.368 -0.7425 -0.4898  2.1608
 1436TIP3    H225724   5.015   2.890  14.257 -0.5379 -0.2184  2.0660
 1437TIP3   OH225725   1.756   2.775  15.839 -0.0396  0.2606 -0.2464
 1437TIP3    H125726   1.764   2.809  15.928 -0.9402  1.9987 -0.7774
 1437TIP3    H225727   1.684   2.713  15.844  2.0094 -2.2229  0.8662
 1438TIP3   OH225728   2.558   6.439   3.087 -0.8806 -0.1743 -1.0107
 1438TIP3    H125729   2.554   6.369   3.021 -0.0736 -0.9091 -0.3182
 1438TIP3    H225730   2.561   6.392   3.171  0.9054  0.6243 -0.5739
 1439TIP3   OH225731   3.297   6.423   2.735 -0.4812  0.1044 -0.2441
 1439TIP3    H125732   3.205   6.398   2.736 -0.3527 -0.6182 -1.9853
 1439TIP3    H225733   3.308   6.472   2.653  0.1198  2.6678  1.2469
 1440TIP3   OH225734   4.371   5.010   3.894 -0.0079  0.0028  0.1954
 1440TIP3    H125735   4.425   4.960   3.832 -1.0450  0.3518 -1.0472
 1440TIP3    H225736   4.427   5.082   3.922  0.7106 -0.5431  0.1888
 1441TIP3   OH225737   6.123   4.875  12.383  0.7730 -0.2496 -0.2179
 1441TIP3    H125738   6.064   4.950  12.372  0.8807 -0.1017  0.1971
 1441TIP3    H225739   6.127   4.861  12.477  1.2283 -0.3954 -0.2566
 1442TIP3   OH225740   0.655   6.205  14.909 -0.0888 -0.0202  0.1190
 1442TIP3    H125741   0.677   6.297  14.923  0.7246 -0.0904 -0.6109
 1442TIP3    H225742   0.565   6.207  14.876 -0.2719  0.4659  0.6288
 1443TIP3   OH225743   5.367   5.371   5.869 -0.5839  0.2897 -0.1617
 1443TIP3    H125744   5.327   5.292   5.830 -0.7436  0.7954 -1.0568
 1443TIP3    H225745   5.455   5.343   5.894 -1.1034 -0.5357  0.7939
 1444TIP3   OH225746   2.340   6.255  12.520  0.3743  0.1521  0.6294
 1444TIP3    H125747   2.358   6.165  12.550  0.6562  0.5223  1.5942
 1444TIP3    H225748   2.276   6.288  12.582  1.0022  0.9561  0.8564
 1445TIP3   OH225749   1.412   5.644  16.068  0.3055 -0.1583  0.6420
 1445TIP3    H125750   1.487   5.595  16.103 -0.8061 -2.8989 -0.5374
 1445TIP3    H225751   1.341   5.625  16.130 -0.0173  0.3951  0.4372
 1446TIP3   OH225752   1.297   3.070  16.833  0.1344 -0.2222 -0.0167
 1446TIP3    H125753   1.345   3.046  16.753 -1.3535  1.2981 -1.4473
 1446TIP3    H225754   1.232   3.001  16.844 -0.2811  0.0537 -0.6953
 1447TIP3   OH225755   0.860   2.265   2.161 -0.0786 -0.2179 -0.3289
 1447TIP3    H125756   0.885   2.220   2.242  0.0434 -0.6389 -0.5984
 1447TIP3    H225757   0.886   2.356   2.175 -1.1497 -0.0329  0.5814
 1448TIP3   OH225758   4.116   1.742  12.940  0.4145 -0.0188  0.9032
 1448TIP3    H125759   4.083   1.654  12.954  0.9574 -0.3770  0.0173
 1448TIP3    H225760   4.150   1.769  13.025  0.1187 -0.6074  1.2122
 1449TIP3   OH225761   3.864   4.165   3.277  0.2795  0.2707 -0.3540
 1449TIP3    H125762   3.802   4.215   3.225  0.1790  0.2817 -0.2255
 1449TIP3    H225763   3.904   4.230   3.335  0.7853  0.3545 -0.7879
 1450TIP3   OH225764   0.271   2.668  14.850  0.2333  0.1854  0.3051
 1450TIP3    H125765   0.361   2.640  14.866  0.1385  0.4594  1.4137
 1450TIP3    H225766   0.270   2.696  14.759  0.9501 -1.0079 -0.0943
 1451TIP3   OH225767   1.421   6.592  12.569 -0.0186  0.1969  0.0341
 1451TIP3    H125768   1.516   6.590  12.566 -0.0319 -1.0647 -0.0448
 1451TIP3    H225769   1.396   6.663  12.510  0.8424 -0.3037 -0.9669
 1452TIP3   OH225770   3.331   1.126  14.943 -0.4061  0.5194 -0.0842
 1452TIP3    H125771   3.409   1.073  14.924 -0.1714  1.0721 -0.6830
 1452TIP3    H225772   3.288   1.136  14.859 -1.3202 -0.0651  0.3010
 1453TIP3   OH225773   1.896   2.767  15.582 -1.1643  0.4962  0.2809
 1453TIP3    H125774   1.859   2.842  15.534 -1.0474  1.3837  1.5469
 1453TIP3    H225775   1.863   2.777  15.671 -0.7427 -0.6989  0.5821
 1454TIP3   OH225776   6.698   6.406  13.170  0.3660 -0.2488  0.2791
 1454TIP3    H125777   6.764   6.413  13.101 -0.7999 -0.8096 -0.9368
 1454TIP3    H225778   6.665   6.317  13.163  0.4028 -0.4141  1.7778
 1455TIP3   OH225779   3.481   1.732  15.109 -0.1153 -0.6150  0.1750
 1455TIP3    H125780   3.559   1.704  15.062 -0.9540 -2.0799 -0.4155
 1455TIP3    H225781   3.461   1.660  15.169 -0.4413  0.1901  1.0759
 1456TIP3   OH225782   2.107   0.647   2.107 -0.2654  0.2754  0.6925
 1456TIP3    H125783   2.194   0.685   2.121 -0.3438  0.9350 -0.5007
 1456TIP3    H225784   2.050   0.697   2.166 -0.5514  2.8376 -1.5314
 1457TIP3   OH225785   2.488   2.570   3.168 -0.7492 -0.0363  0.3729
 1457TIP3    H125786   2.429   2.577   3.093  0.4294 -0.1704 -0.5960
 1457TIP3    H225787   2.498   2.660   3.200 -1.9064 -0.0834  0.9061
 1458TIP3   OH225788   0.140   3.798  15.546 -0.5739 -0.5815  0.0681
 1458TIP3    H125789   0.046   3.786  15.564 -0.3182 -1.6265  0.7952
 1458TIP3    H225790   0.180   3.803  15.633  0.2485 -1.8631 -0.2123
 1459TIP3   OH225791   1.876   1.525   0.891 -0.2116  0.2882 -0.2676
 1459TIP3    H125792   1.882   1.617   0.865 -0.0328  0.6670  1.0543
 1459TIP3    H225793   1.790   1.497   0.860 -0.0653  0.7397 -1.1255
 1460TIP3   OH225794   3.939   0.705   6.290  0.3304  0.0659  0.8280
 1460TIP3    H125795   3.892   0.631   6.328 -0.3184 -0.0052 -0.0786
 1460TIP3    H225796   3.965   0.675   6.203 -2.1238  1.6811 -0.5908
 1461TIP3   OH225797   6.444   4.611   4.441 -0.4570  0.1117 -0.0544
 1461TIP3    H125798   6.397   4.540   4.485 -0.2197  0.5615  0.9515
 1461TIP3    H225799   6.410   4.691   4.482  2.7479  0.3954  2.3821
 1462TIP3   OH225800   4.312   0.455  16.790  0.7199 -0.1754 -0.2782
 1462TIP3    H125801   4.371   0.477  16.719  0.9345  0.4644  0.0855
 1462TIP3    H225802   4.257   0.533  16.800 -1.4431 -1.3772 -1.8087
 1463TIP3   OH225803   0.785   3.983  12.943 -0.3224 -0.4088 -0.6747
 1463TIP3    H125804   0.798   4.066  12.898  1.9972 -1.2651 -1.7811
 1463TIP3    H225805   0.874   3.950  12.959 -1.1476 -1.9948  1.0442
 1464TIP3   OH225806   1.403   3.003  13.813 -0.0258  0.0945  0.0689
 1464TIP3    H125807   1.416   3.092  13.780 -1.1671  0.6885  1.1423
 1464TIP3    H225808   1.318   3.006  13.856  0.6442 -1.1020  1.5411
 1465TIP3   OH225809   1.129   6.199  12.443 -0.1384 -0.1014  0.9616
 1465TIP3    H125810   1.170   6.266  12.498  0.2392  0.0382  0.5158
 1465TIP3    H225811   1.056   6.166  12.496 -2.8927  3.3985 -0.2345
 1466TIP3   OH225812   1.057   1.445   4.115  0.2998  0.2890 -0.0074
 1466TIP3    H125813   1.089   1.361   4.148  1.3366  0.8837  0.5721
 1466TIP3    H225814   1.026   1.491   4.193 -1.4242 -0.0020 -0.4710
 1467TIP3   OH225815   4.959   5.283   5.630 -0.4520  0.3249 -0.1503
 1467TIP3    H125816   5.049   5.254   5.649 -0.7090  0.5275  1.5225
 1467TIP3    H225817   4.926   5.314   5.714 -1.3235  2.4425 -1.2012
 1468TIP3   OH225818   2.621   0.618  10.886 -0.3632 -0.1967 -0.4301
 1468TIP3    H125819   2.636   0.595  10.794  0.1882 -0.4577 -0.2812
 1468TIP3    H225820   2.561   0.551  10.918 -1.6494  0.6793 -0.9531
 1469TIP3   OH225821   2.580   6.461  16.490  0.1771  0.3163 -0.0596
 1469TIP3    H125822   2.568   6.548  16.452  2.3944  0.6059 -0.2432
 1469TIP3    H225823   2.509   6.453  16.554 -0.0842  2.2616 -0.0343
 1470TIP3   OH225824   1.081   5.153   5.630  0.2730 -0.7686  0.7154
 1470TIP3    H125825   1.017   5.081   5.627 -0.7681  0.1026 -2.1860
 1470TIP3    H225826   1.164   5.110   5.652 -0.2262 -3.0129 -1.3219
 1471TIP3   OH225827   2.833   0.865   3.792  0.1195 -0.0427 -0.2248
 1471TIP3    H125828   2.776   0.878   3.716  0.6978  0.7807 -0.5291
 1471TIP3    H225829   2.801   0.927   3.857 -0.7406 -1.1398  0.4442
 1472TIP3   OH225830   6.782   1.429   1.616 -0.0997  0.9610 -0.1940
 1472TIP3    H125831   6.694   1.425   1.655  0.1931  1.9911  0.6096
 1472TIP3    H225832   6.784   1.512   1.569 -0.3186 -0.0944 -2.1904
 1473TIP3   OH225833   5.788   3.457   3.642 -0.3022  0.0066 -0.3159
 1473TIP3    H125834   5.738   3.504   3.709 -0.7440  0.0229 -0.6507
 1473TIP3    H225835   5.855   3.519   3.614  1.7061 -0.9245  2.0624
 1474TIP3   OH225836   2.126   5.534   6.035  0.2908  0.5429 -0.5729
 1474TIP3    H125837   2.089   5.494   6.114 -0.7785  1.1474 -0.7603
 1474TIP3    H225838   2.208   5.574   6.065 -0.4927  1.4623  0.4060
 1475TIP3   OH225839   3.177   3.343   5.256  0.1564  0.6715  0.0584
 1475TIP3    H125840   3.149   3.312   5.342  3.0232 -0.4135  0.6866
 1475TIP3    H225841   3.142   3.278   5.195  0.7714 -0.3400  0.7548
 1476TIP3   OH225842   3.340   1.249   4.241  0.6358 -0.0157  0.6000
 1476TIP3    H125843   3.344   1.277   4.149 -1.1326 -0.8574  0.2160
 1476TIP3    H225844   3.431   1.248   4.269  1.0831  2.1969 -0.5203
 1477TIP3   OH225845   3.707   2.306   4.757 -0.4513 -0.0762  0.5313
 1477TIP3    H125846   3.755   2.279   4.836 -0.9515  0.7397  1.1294
 1477TIP3    H225847   3.776   2.326   4.694 -0.0398 -0.5348  0.8221
 1478TIP3   OH225848   0.186   4.502  13.656  0.2809 -0.5581 -0.0602
 1478TIP3    H125849   0.141   4.558  13.593  2.2198 -0.1884 -1.2070
 1478TIP3    H225850   0.136   4.420  13.655 -1.9997  0.7301  0.8836
 1479TIP3   OH225851   6.117   0.849   1.945 -0.7869 -0.4936 -0.2408
 1479TIP3    H125852   6.053   0.806   1.888 -1.0242 -0.0277 -0.3403
 1479TIP3    H225853   6.182   0.885   1.884 -0.7681 -0.4310 -0.1834
 1480TIP3   OH225854   5.500   1.222  14.602  0.3850 -0.4244 -0.0921
 1480TIP3    H125855   5.488   1.276  14.524 -0.9497  1.7753  1.4968
 1480TIP3    H225856   5.589   1.241  14.631  0.1598  0.4611  0.0693
 1481TIP3   OH225857   1.834   1.611  12.542 -0.0611 -0.1130  0.2330
 1481TIP3    H125858   1.761   1.553  12.564 -0.1200  0.2338  0.9938
 1481TIP3    H225859   1.895   1.603  12.615 -1.4903  3.0656  2.0153
 1482TIP3   OH225860   5.385   5.940   5.321 -0.6822 -0.4900  0.2624
 1482TIP3    H125861   5.479   5.925   5.331 -0.1408  2.3612  0.3051
 1482TIP3    H225862   5.375   5.975   5.232 -0.9955  2.9776  1.4824
 1483TIP3   OH225863   5.974   0.275  15.121 -0.2078  0.2349 -0.0138
 1483TIP3    H125864   6.032   0.251  15.049  0.9746  1.4613  0.4930
 1483TIP3    H225865   5.906   0.328  15.079  0.0221  0.2625 -0.3568
 1484TIP3   OH225866   4.898   0.987   5.534 -0.3080  1.2704  0.1215
 1484TIP3    H125867   4.880   0.990   5.440  0.0291  2.3603  0.0732
 1484TIP3    H225868   4.819   0.951   5.573  0.4139 -1.5056 -0.7645
 1485TIP3   OH225869   5.506   3.881   3.093  0.0038  0.5418  0.2529
 1485TIP3    H125870   5.467   3.794   3.085  1.2292 -0.1531  1.4213
 1485TIP3    H225871   5.440   3.933   3.138 -0.1876 -0.1693  0.8040
 1486TIP3   OH225872   5.116   2.325   1.040  0.2853  0.0022 -0.3040
 1486TIP3    H125873   5.179   2.298   1.107  0.9866  0.7827 -0.6329
 1486TIP3    H225874   5.149   2.410   1.010 -1.1886  0.6544 -0.1484
 1487TIP3   OH225875   4.704   2.863   1.105 -0.9477 -0.4142 -0.4947
 1487TIP3    H125876   4.769   2.926   1.074 -1.1816 -0.2675 -0.6914
 1487TIP3    H225877   4.751   2.807   1.167 -0.7057 -0.1300 -0.4226
 1488TIP3   OH225878   6.311   3.576  15.345 -0.1974 -0.1218 -0.3028
 1488TIP3    H125879   6.361   3.546  15.421  0.2776 -0.2062 -0.6421
 1488TIP3    H225880   6.234   3.520  15.343 -1.9273  1.9386  2.0071
 1489TIP3   OH225881   3.420   0.328   5.162 -0.8437  0.6135 -0.6008
 1489TIP3    H125882   3.458   0.244   5.190 -0.6256  0.7301 -0.5456
 1489TIP3    H225883   3.356   0.304   5.095 -1.4511  0.3244  0.0730
 1490TIP3   OH225884   3.062   2.530  12.470  0.4790 -0.2404  0.8840
 1490TIP3    H125885   3.083   2.439  12.450  1.1750  0.2867 -0.9412
 1490TIP3    H225886   2.991   2.525  12.534  0.8174 -2.0502  1.1518
 1491TIP3   OH225887   1.268   0.306  13.819  0.0423  0.3101 -0.5174
 1491TIP3    H125888   1.342   0.365  13.805 -0.4744  0.7813 -1.3796
 1491TIP3    H225889   1.216   0.349  13.887  0.6746 -0.1431  0.2641
 1492TIP3   OH225890   4.398   0.994  17.141  0.3755  0.3483  0.4517
 1492TIP3    H125891   4.389   0.950  17.057 -0.2327  1.5106 -0.1062
 1492TIP3    H225892   4.329   1.059  17.142  0.1356  0.1098  2.0225
 1493TIP3   OH225893   2.406   5.674  12.667  0.2513 -0.3328  0.8094
 1493TIP3    H125894   2.411   5.765  12.638  0.6747 -0.6070 -0.0164
 1493TIP3    H225895   2.419   5.622  12.587 -1.6527 -1.1377  0.9795
 1494TIP3   OH225896   2.079   6.045  12.402  0.4680 -0.5614 -0.0833
 1494TIP3    H125897   2.039   6.022  12.486  0.3709  0.4893  0.1651
 1494TIP3    H225898   2.172   6.024  12.414  0.3693 -0.9166  0.0957
 1495TIP3   OH225899   6.441   1.522   4.823 -0.1271 -0.3704 -0.7559
 1495TIP3    H125900   6.373   1.582   4.791 -0.3253  0.8508  1.7010
 1495TIP3    H225901   6.504   1.580   4.866  0.2637 -1.8237  0.7151
 1496TIP3   OH225902   6.206   0.759   2.776  0.3750  0.3138  0.1243
 1496TIP3    H125903   6.174   0.708   2.701  0.1533 -0.3828  0.6786
 1496TIP3    H225904   6.235   0.692   2.839 -0.1094  0.8755  0.9525
 1497TIP3   OH225905   1.966   0.278  11.991 -0.0385 -0.5702 -0.8004
 1497TIP3    H125906   1.924   0.197  11.961 -1.6097 -0.6217  1.3647
 1497TIP3    H225907   1.894   0.340  12.000  1.0427  0.8773 -1.6358
 1498TIP3   OH225908   6.435   6.216   3.547  0.4155  0.1507  0.0503
 1498TIP3    H125909   6.371   6.263   3.492 -1.5159 -0.8921  1.2940
 1498TIP3    H225910   6.498   6.180   3.484 -1.9445 -1.3781 -1.6033
 1499TIP3   OH225911   2.139   3.044   0.952  0.3875 -0.1849 -0.2044
 1499TIP3    H125912   2.173   2.999   1.030 -1.3152 -0.4909  0.3951
 1499TIP3    H225913   2.049   3.012   0.943 -0.0898  1.3381 -1.1585
 1500TIP3   OH225914   1.275   6.582  13.946 -0.1762  0.2421  0.7568
 1500TIP3    H125915   1.310   6.668  13.967  1.2626  0.2334 -1.3524
 1500TIP3    H225916   1.321   6.521  14.004  2.4092  0.4014 -0.9813
 1501TIP3   OH225917   0.600   2.326   2.052  0.4104 -0.2216 -1.2428
 1501TIP3    H125918   0.547   2.257   2.012  0.3131  0.0905 -1.6647
 1501TIP3    H225919   0.688   2.288   2.060  0.0562 -0.8519 -0.2474
 1502TIP3   OH225920   1.117   4.131  14.710  0.0390  0.1172 -0.3028
 1502TIP3    H125921   1.124   4.169  14.622 -2.3206 -2.6319 -1.8639
 1502TIP3    H225922   1.085   4.203  14.765  1.6679  1.9341 -1.5980
 1503TIP3   OH225923   2.555   6.679  13.916 -0.1540  0.3044  0.4187
 1503TIP3    H125924   2.501   6.672  13.994  0.5328  0.4337  0.9155
 1503TIP3    H225925   2.584   6.590  13.898  1.1610  0.4950  1.3949
 1504TIP3   OH225926   3.981   1.812   2.044 -0.2648  0.3923 -0.1804
 1504TIP3    H125927   3.965   1.858   2.127 -0.0700  0.0057  0.0717
 1504TIP3    H225928   4.048   1.863   2.001  1.1264 -0.5228  0.8149
 1505TIP3   OH225929   5.232   4.118  11.257  0.1743  0.0419  0.1536
 1505TIP3    H125930   5.175   4.081  11.325  2.5723 -2.3543  1.0757
 1505TIP3    H225931   5.221   4.059  11.182  1.9297 -1.0166  0.6458
 1506TIP3   OH225932   2.460   4.756  11.019 -0.1079 -0.1016 -0.1901
 1506TIP3    H125933   2.482   4.849  11.030 -0.5037 -0.0182 -0.0865
 1506TIP3    H225934   2.410   4.753  10.937  1.3287 -0.4714 -1.0920
 1507TIP3   OH225935   0.025   0.276  13.525 -0.5538  0.0786  0.6210
 1507TIP3    H125936  -0.044   0.248  13.465 -0.1329  1.1805 -0.4077
 1507TIP3    H225937   0.085   0.201  13.530  1.2651  1.0864 -3.1190
 1508TIP3   OH225938   4.172   0.384  13.284  0.6069 -0.3700 -0.6459
 1508TIP3    H125939   4.154   0.339  13.202  2.7137 -0.4115 -1.1420
 1508TIP3    H225940   4.246   0.337  13.322 -1.8927 -2.0471  2.6757
 1509TIP3   OH225941   2.833   2.331  15.597  0.8390 -0.5227 -0.8745
 1509TIP3    H125942   2.873   2.311  15.512  2.5198  1.0837 -0.5116
 1509TIP3    H225943   2.907   2.346  15.656 -0.2641  1.2309  0.1585
 1510TIP3   OH225944   3.886   6.346  11.463 -0.4235 -0.5732 -0.2953
 1510TIP3    H125945   3.822   6.285  11.429  0.4676 -2.4249  1.1671
 1510TIP3    H225946   3.842   6.388  11.538 -1.0015  0.5736 -1.2424
 1511TIP3   OH225947   2.850   2.817  12.323 -0.2506  0.4074 -0.3423
 1511TIP3    H125948   2.925   2.876  12.328 -0.0091 -0.0309  2.2360
 1511TIP3    H225949   2.875   2.752  12.257  0.7243  1.4450 -1.0334
 1512TIP3   OH225950   5.364   6.290  11.355  0.3559  0.4184  0.1321
 1512TIP3    H125951   5.390   6.360  11.295  0.1523  0.3805  0.0012
 1512TIP3    H225952   5.278   6.315  11.386  0.6380  0.6550  0.7404
 1513TIP3   OH225953   0.543   0.740   1.253 -0.7647  0.4578 -0.2218
 1513TIP3    H125954   0.600   0.669   1.225  1.6994  1.9249  0.7709
 1513TIP3    H225955   0.524   0.789   1.174  0.1750  0.4846 -0.4429
 1514TIP3   OH225956   4.296   0.418   5.368  0.0494  0.0302 -0.0107
 1514TIP3    H125957   4.364   0.418   5.301 -0.4013 -0.0227 -0.4723
 1514TIP3    H225958   4.337   0.460   5.444  1.2458 -1.7123  0.3927
 1515TIP3   OH225959   3.527   2.480  15.263 -0.0381  0.4641  0.8290
 1515TIP3    H125960   3.549   2.535  15.339 -0.6971 -0.9022  2.0584
 1515TIP3    H225961   3.433   2.464  15.271  0.0803 -0.5855  0.3367
 1516TIP3   OH225962   0.588   1.047   4.039 -0.0377  0.0892  0.1882
 1516TIP3    H125963   0.646   1.122   4.024  0.6988 -1.0704 -3.7641
 1516TIP3    H225964   0.504   1.087   4.060  0.6173  2.0323 -0.6257
 1517TIP3   OH225965   0.697   1.958   1.632  0.1629  0.1714  0.2104
 1517TIP3    H125966   0.665   2.030   1.686  0.2677  0.2352  0.1890
 1517TIP3    H225967   0.692   1.991   1.542  0.7357  0.3586  0.2436
 1518TIP3   OH225968   2.924   3.987   5.278  0.5208  0.4785 -0.0054
 1518TIP3    H125969   2.866   3.948   5.211 -2.4869 -1.2534  3.2408
 1518TIP3    H225970   2.998   3.927   5.282  0.7650  0.6125 -1.7300
 1519TIP3   OH225971   5.027   6.616  11.064  0.3944 -0.2063  0.2493
 1519TIP3    H125972   5.107   6.573  11.034  0.5495  0.6865 -0.6829
 1519TIP3    H225973   5.028   6.606  11.159 -0.1445 -3.1897  0.0217
 1520TIP3   OH225974   2.967   4.954   6.273  0.5829 -0.7673  0.5379
 1520TIP3    H125975   3.047   4.991   6.309 -0.6939  0.3039  2.4305
 1520TIP3    H225976   2.972   4.973   6.179  2.2179 -0.1524  0.7180
 1521TIP3   OH225977   2.009   3.849  12.509 -0.2416 -0.0055 -0.1549
 1521TIP3    H125978   2.051   3.835  12.594  1.2869  3.3343 -0.1844
 1521TIP3    H225979   1.915   3.840  12.527  0.1025 -0.7702  1.5236
 1522TIP3   OH225980   4.505   4.152  12.913  0.4455 -0.6187 -0.3628
 1522TIP3    H125981   4.533   4.229  12.862  1.8438 -0.0656  1.1449
 1522TIP3    H225982   4.425   4.123  12.870  2.1478 -0.9681 -3.6515
 1523TIP3   OH225983   5.297   4.322  16.730  0.0447 -0.3536 -0.1515
 1523TIP3    H125984   5.342   4.401  16.697 -0.3132  0.8043  1.9580
 1523TIP3    H225985   5.215   4.355  16.768 -0.5250 -1.8709 -0.0027
 1524TIP3   OH225986   4.631   0.148  12.754  0.2411  0.1317 -0.0786
 1524TIP3    H125987   4.552   0.139  12.701  1.3836 -1.7320 -1.6167
 1524TIP3    H225988   4.671   0.230  12.726  0.5596 -0.5758 -1.8217
 1525TIP3   OH225989   5.321   1.887  11.880  0.7843 -0.2054 -0.0354
 1525TIP3    H125990   5.372   1.807  11.865 -0.4418 -1.7431  3.1537
 1525TIP3    H225991   5.347   1.945  11.809  2.7647 -2.9175 -1.7255
 1526TIP3   OH225992   3.112   4.082  14.269  0.3992 -0.2714 -0.1265
 1526TIP3    H125993   3.136   3.995  14.238  1.8968  0.2264 -0.4887
 1526TIP3    H225994   3.189   4.136  14.249 -0.3117  1.0294  0.5129
 1527TIP3   OH225995   0.814   3.153   4.262  0.1218  0.2667  0.3102
 1527TIP3    H125996   0.767   3.070   4.274  1.1926 -0.3040  0.7227
 1527TIP3    H225997   0.904   3.127   4.242  1.4000  1.2385  4.0043
 1528TIP3   OH225998   3.854   6.719   6.043  0.2115 -0.1072  0.7438
 1528TIP3    H125999   3.856   6.721   6.139 -2.3489 -1.9449  0.9081
 1528TIP3    H226000   3.765   6.694   6.021  1.2956 -1.8942 -2.0828
 1529TIP3   OH226001   1.415   5.287  12.296  0.8398 -0.2884 -0.1826
 1529TIP3    H126002   1.380   5.233  12.367  0.4552  0.3721  0.1383
 1529TIP3    H226003   1.508   5.296  12.316  0.6794  0.1371  0.4064
 1530TIP3   OH226004   3.457   5.312  13.850 -0.0115 -0.1336 -0.0724
 1530TIP3    H126005   3.406   5.338  13.773 -1.0488 -1.7473  0.0146
 1530TIP3    H226006   3.400   5.252  13.898  1.5443 -1.1183  0.6429
 1531TIP3   OH226007   5.484   1.108   4.786  0.7035 -0.3449 -0.0037
 1531TIP3    H126008   5.574   1.137   4.772  0.3469  0.4629 -0.6544
 1531TIP3    H226009   5.460   1.064   4.705  0.1359  0.4460 -0.2794
 1532TIP3   OH226010   6.689   0.575  14.470 -0.2578 -0.1582 -0.2582
 1532TIP3    H126011   6.635   0.604  14.543 -0.4259 -1.2620  0.0643
 1532TIP3    H226012   6.696   0.652  14.413 -0.1444  0.7062  0.8971
 1533TIP3   OH226013   4.275   3.011  15.034  0.4681 -0.3594  0.0681
 1533TIP3    H126014   4.254   3.103  15.024 -0.6646 -0.5600  0.5269
 1533TIP3    H226015   4.335   3.008  15.109  2.2981  0.2147 -1.2914
 1534TIP3   OH226016   3.411   0.412  13.489  0.0707  0.5378  0.1691
 1534TIP3    H126017   3.448   0.331  13.525 -1.1415  0.3036  0.9434
 1534TIP3    H226018   3.472   0.437  13.419  0.6222 -0.8881  0.1002
 1535TIP3   OH226019   2.178   2.999   0.010  0.2149 -0.2712  0.8568
 1535TIP3    H126020   2.235   3.075   0.021  1.7450 -1.2085 -0.2789
 1535TIP3    H226021   2.127   2.996   0.092  0.0306  1.9958  0.8971
 1536TIP3   OH226022   1.764   3.585  12.032 -0.3847 -0.3379  0.1926
 1536TIP3    H126023   1.721   3.640  12.097 -0.8779 -0.7090  0.1852
 1536TIP3    H226024   1.835   3.542  12.080 -0.0274  0.2696  0.2064
 1537TIP3   OH226025   2.371   1.527   1.568  0.2887 -0.1154  0.3616
 1537TIP3    H126026   2.391   1.497   1.479  1.0706  4.3661 -1.2305
 1537TIP3    H226027   2.456   1.538   1.609  0.0174 -0.0472  0.9157
 1538TIP3   OH226028   2.682   4.848  15.207  0.0877  0.4032  0.1652
 1538TIP3    H126029   2.622   4.922  15.197 -2.1513 -0.8354  2.8504
 1538TIP3    H226030   2.629   4.772  15.181  2.0003 -0.4166 -1.5675
 1539TIP3   OH226031   0.905   0.598  14.378  0.0345  0.4231  0.2497
 1539TIP3    H126032   0.904   0.682  14.334  0.5708  0.7056  0.7492
 1539TIP3    H226033   0.993   0.592  14.416  0.1892 -0.6016 -0.2347
 1540TIP3   OH226034   0.402   1.355  14.778 -0.1185  0.0870 -0.0236
 1540TIP3    H126035   0.365   1.442  14.770 -0.4550 -0.1932 -1.7849
 1540TIP3    H226036   0.493   1.365  14.751 -0.5799 -0.3835 -1.8552
 1541TIP3   OH226037   1.980   3.694   0.776  0.1876  0.4855  0.0657
 1541TIP3    H126038   1.951   3.776   0.735  2.0200  0.7632 -0.7879
 1541TIP3    H226039   1.946   3.698   0.865 -2.2723  0.7727 -0.8199
 1542TIP3   OH226040   4.714   1.702   1.135 -0.6517 -0.0731 -0.3551
 1542TIP3    H126041   4.773   1.777   1.130 -1.0034  0.2800  0.4836
 1542TIP3    H226042   4.631   1.740   1.165 -1.1600 -0.6361 -1.0319
 1543TIP3   OH226043   3.583   5.923   6.266  0.0318 -0.0727  0.3767
 1543TIP3    H126044   3.630   5.941   6.348  0.0995 -0.4241  0.4158
 1543TIP3    H226045   3.606   5.997   6.209 -3.4612  2.6523  2.0746
 1544TIP3   OH226046   6.336   5.876  17.153 -0.8837 -0.5108  0.2470
 1544TIP3    H126047   6.252   5.838  17.180 -1.7376  0.3024 -1.1819
 1544TIP3    H226048   6.324   5.970  17.166 -0.1486 -0.3991  0.1088
 1545TIP3   OH226049   6.262   2.867  14.967 -0.0917 -0.1935  0.7708
 1545TIP3    H126050   6.307   2.889  14.886 -0.1057 -0.5279  0.6705
 1545TIP3    H226051   6.206   2.792  14.944  0.1012 -0.4587  1.1490
 1546TIP3   OH226052   0.053   4.807   3.032  0.2726  0.2566 -0.6373
 1546TIP3    H126053   0.039   4.900   3.048 -0.2231 -0.1206  1.5330
 1546TIP3    H226054   0.087   4.802   2.943  0.6401  2.5317 -0.6812
 1547TIP3   OH226055   4.649   3.316   3.679  0.6310  0.1254 -0.2581
 1547TIP3    H126056   4.663   3.397   3.727  0.5027  0.4000 -0.6738
 1547TIP3    H226057   4.566   3.329   3.634  0.1351 -0.6185  0.4365
 1548TIP3   OH226058   0.346   5.012   0.312  0.3466 -0.1699 -0.4535
 1548TIP3    H126059   0.338   5.106   0.297  0.1403 -0.2182 -0.6400
 1548TIP3    H226060   0.351   4.973   0.225 -1.5542 -0.5123 -0.4427
 1549TIP3   OH226061   6.258   1.373   4.575  0.8441  0.7564  0.9338
 1549TIP3    H126062   6.264   1.306   4.507 -0.3555  0.9966  0.5708
 1549TIP3    H226063   6.298   1.333   4.652  1.5057  0.1884  0.3097
 1550TIP3   OH226064   3.346   5.188   3.831 -0.1441  0.1292 -0.4256
 1550TIP3    H126065   3.298   5.235   3.762 -0.7269 -1.4704 -1.1790
 1550TIP3    H226066   3.402   5.127   3.783  0.7682  0.2117  0.5087
 1551TIP3   OH226067   3.055   1.686  13.030  0.5425 -0.2796  0.0121
 1551TIP3    H126068   3.111   1.694  13.107 -0.1228 -0.4061  0.5146
 1551TIP3    H226069   3.114   1.660  12.960  1.0089 -1.0844  0.6874
 1552TIP3   OH226070   2.334   4.575  16.275 -0.2307  0.6199  0.4033
 1552TIP3    H126071   2.384   4.506  16.318  0.4300 -0.4380 -1.8701
 1552TIP3    H226072   2.353   4.654  16.325  1.1495 -0.3460  1.4898
 1553TIP3   OH226073   3.522   1.692   0.406  0.5396 -0.2878  0.4585
 1553TIP3    H126074   3.588   1.643   0.356  0.0850  0.6137 -1.1045
 1553TIP3    H226075   3.523   1.652   0.493  0.7951 -2.4995 -0.4872
 1554TIP3   OH226076   2.163   0.713   6.369 -0.2263  0.5064 -0.0337
 1554TIP3    H126077   2.245   0.750   6.401  0.1457 -1.1841  1.0902
 1554TIP3    H226078   2.154   0.630   6.415 -1.9534  0.0586 -1.0674
 1555TIP3   OH226079   1.343   1.202   1.698  0.2699  0.3145 -0.4172
 1555TIP3    H126080   1.384   1.235   1.617 -1.3655  1.4949 -0.8166
 1555TIP3    H226081   1.313   1.281   1.743 -1.4755 -0.4750 -0.1157
 1556TIP3   OH226082   5.199   5.455   1.530  0.4559  0.3512  0.3137
 1556TIP3    H126083   5.169   5.507   1.605 -0.0960 -0.8152  0.9269
 1556TIP3    H226084   5.155   5.495   1.455 -1.1179 -0.0914  0.9541
 1557TIP3   OH226085   1.373   6.065   2.969 -0.1098  0.1364  0.5097
 1557TIP3    H126086   1.439   6.002   2.996 -1.3163 -0.4165  2.3826
 1557TIP3    H226087   1.405   6.149   2.999  1.0481  0.3382 -1.1459
 1558TIP3   OH226088   2.763   0.587  11.218 -0.2663 -0.1109  0.2697
 1558TIP3    H126089   2.688   0.604  11.276 -0.4134  1.6880 -0.3897
 1558TIP3    H226090   2.743   0.502  11.178 -0.8616 -0.7102  1.7442
 1559TIP3   OH226091   0.376   2.749  14.568 -0.0411 -0.2130  0.2416
 1559TIP3    H126092   0.426   2.668  14.583  1.6452  0.7609  0.1929
 1559TIP3    H226093   0.418   2.813  14.626 -1.8241  0.4591  0.8302
 1560TIP3   OH226094   2.926   4.284  11.156  0.1874 -0.8668  0.2807
 1560TIP3    H126095   2.959   4.194  11.158 -0.5681 -1.1625  0.1218
 1560TIP3    H226096   2.831   4.274  11.165 -0.0883 -0.1996 -1.4092
 1561TIP3   OH226097   2.694   0.663   3.347 -0.5257 -0.3675  0.2128
 1561TIP3    H126098   2.604   0.658   3.380 -1.3706 -1.3148 -2.0366
 1561TIP3    H226099   2.692   0.615   3.265  1.5564  1.4080 -0.9742
 1562TIP3   OH226100   1.345   1.295  16.872 -1.2003 -0.1495 -0.3833
 1562TIP3    H126101   1.354   1.207  16.910  0.8641  0.5221  0.8465
 1562TIP3    H226102   1.310   1.348  16.943 -1.5164  0.2381 -0.8216
 1563TIP3   OH226103   5.520   5.133   1.922 -0.4688 -0.0118 -0.7621
 1563TIP3    H126104   5.459   5.130   1.848 -0.5712  0.5641 -0.7017
 1563TIP3    H226105   5.500   5.054   1.973  1.1755 -1.7284 -2.5931
 1564TIP3   OH226106   1.184   3.814   1.279  0.1426 -0.4485 -0.1127
 1564TIP3    H126107   1.200   3.802   1.186  2.7099  2.4553 -0.2068
 1564TIP3    H226108   1.104   3.865   1.284  1.3234  1.5759 -0.9658
 1565TIP3   OH226109   4.969   3.458  16.880 -0.2516  0.0450 -0.0969
 1565TIP3    H126110   4.880   3.467  16.845 -0.1667 -1.3047 -0.7320
 1565TIP3    H226111   5.026   3.474  16.805  0.0288  0.4902  0.2087
 1566TIP3   OH226112   0.527   2.802   4.629 -0.0153 -0.2220 -0.1975
 1566TIP3    H126113   0.517   2.876   4.568 -0.3546  0.5463  0.7596
 1566TIP3    H226114   0.618   2.809   4.659 -0.6873  1.3456  1.7408
 1567TIP3   OH226115   4.551   0.563   3.583  0.1273 -0.0211 -0.2464
 1567TIP3    H126116   4.577   0.476   3.614 -0.4206 -0.6042 -1.3605
 1567TIP3    H226117   4.623   0.591   3.526 -0.5971 -0.6678 -1.5388
 1568TIP3   OH226118   0.323   3.809   2.962  0.6046 -0.1028 -0.5538
 1568TIP3    H126119   0.281   3.854   2.889 -0.1675  1.0786  0.5853
 1568TIP3    H226120   0.253   3.758   3.002  0.5562  0.7710  0.5089
 1569TIP3   OH226121   3.996   3.872  11.686  0.1379  0.0707 -0.5122
 1569TIP3    H126122   3.936   3.947  11.690  1.0971  0.8451 -0.1810
 1569TIP3    H226123   4.045   3.886  11.605 -0.1411 -0.5756 -0.7957
 1570TIP3   OH226124   3.408   4.114   5.998  0.3243 -0.0313 -0.6474
 1570TIP3    H126125   3.429   4.197   5.957  1.5890  1.5040  2.7486
 1570TIP3    H226126   3.493   4.078   6.025 -0.4120 -0.8638  0.6803
 1571TIP3   OH226127   1.898   2.353   4.246  0.0425  0.5724 -0.0426
 1571TIP3    H126128   1.986   2.315   4.241 -0.6738 -1.0367 -1.3262
 1571TIP3    H226129   1.891   2.386   4.335  1.8652  0.5631  0.1486
 1572TIP3   OH226130   4.322   5.580   5.599 -0.4827 -0.1797  0.4640
 1572TIP3    H126131   4.338   5.532   5.680 -1.4308  1.1273  1.4641
 1572TIP3    H226132   4.341   5.672   5.621  1.1788 -0.0122 -1.3651
 1573TIP3   OH226133   0.155   1.408  11.081  0.2458  0.0180 -0.0898
 1573TIP3    H126134   0.071   1.431  11.121 -0.0792 -0.8970 -0.2235
 1573TIP3    H226135   0.137   1.408  10.986 -0.2350 -2.3546 -0.0749
 1574TIP3   OH226136   0.518   4.579  16.499 -0.4155 -0.1417 -0.9918
 1574TIP3    H126137   0.571   4.499  16.507 -1.0167 -0.4015  1.2103
 1574TIP3    H226138   0.582   4.649  16.489  0.2321 -0.7156 -0.9501
 1575TIP3   OH226139   0.193   3.531  15.741 -0.5573  0.3767 -0.2760
 1575TIP3    H126140   0.113   3.489  15.711 -1.4426  2.0581 -0.3274
 1575TIP3    H226141   0.165   3.613  15.780  1.1137  0.8841 -0.0495
 1576TIP3   OH226142   0.368   2.924   1.196  0.1756  0.2138  0.6686
 1576TIP3    H126143   0.349   2.967   1.279  1.5703  0.8696  0.6788
 1576TIP3    H226144   0.282   2.901   1.160 -0.4355 -0.7421  2.6096
 1577TIP3   OH226145   4.321   6.746   5.402 -0.0696  0.3771  0.1630
 1577TIP3    H126146   4.320   6.818   5.466  0.1902  1.0035 -0.5166
 1577TIP3    H226147   4.414   6.724   5.394 -0.2088 -0.5002  0.8652
 1578TIP3   OH226148   5.029   3.401  15.831  0.1231 -0.0717 -0.7136
 1578TIP3    H126149   4.980   3.449  15.764 -0.6882  0.0804 -0.0347
 1578TIP3    H226150   5.073   3.469  15.882 -2.0617  0.1394  1.0620
 1579TIP3   OH226151   4.493   0.758   4.801 -0.2262 -0.2847 -0.2303
 1579TIP3    H126152   4.419   0.730   4.749  0.1800  0.0739 -1.0145
 1579TIP3    H226153   4.481   0.715   4.886 -0.4404 -1.5542 -0.8865
 1580TIP3   OH226154   1.850   6.110   4.514 -0.3827 -0.5168  0.6358
 1580TIP3    H126155   1.876   6.019   4.502 -1.2465 -0.5847 -0.9004
 1580TIP3    H226156   1.800   6.110   4.596  0.1516 -1.2890  0.9699
 1581TIP3   OH226157   4.284   2.914   3.759  0.4158  0.1859  0.0736
 1581TIP3    H126158   4.310   2.939   3.848  1.1515 -3.1143  0.8953
 1581TIP3    H226159   4.195   2.881   3.769  0.0820  0.8326 -0.6614
 1582TIP3   OH226160   2.528   1.131  15.914  0.0481 -0.1725  0.1861
 1582TIP3    H126161   2.587   1.206  15.904 -1.7088  1.2595  0.0410
 1582TIP3    H226162   2.494   1.139  16.002  0.6747 -1.4869  0.5693
 1583TIP3   OH226163   3.614   1.156  10.727 -0.2203 -0.0601  0.2023
 1583TIP3    H126164   3.540   1.102  10.755 -1.1574  0.7115 -0.6946
 1583TIP3    H226165   3.686   1.094  10.718 -1.2095 -1.1625 -0.6121
 1584TIP3   OH226166   2.379   6.208   5.152  0.3407 -0.1963  0.3314
 1584TIP3    H126167   2.393   6.152   5.076 -1.5758  0.1646 -0.3332
 1584TIP3    H226168   2.352   6.148   5.221 -2.2847 -0.1315 -0.5354
 1585TIP3   OH226169   2.851   2.732  13.736 -0.2530  0.1787  0.2129
 1585TIP3    H126170   2.855   2.669  13.808  0.2029 -0.2892 -0.2058
 1585TIP3    H226171   2.810   2.683  13.664 -1.7576  0.9872  0.4851
 1586TIP3   OH226172   1.606   4.890   5.765 -0.6281 -0.0815 -0.3470
 1586TIP3    H126173   1.575   4.839   5.690  1.9278 -0.8128 -1.0270
 1586TIP3    H226174   1.699   4.903   5.747 -0.2738  1.0535  1.9875
 1587TIP3   OH226175   1.388   2.173   5.784 -0.1963 -0.6863  0.0499
 1587TIP3    H126176   1.430   2.235   5.724 -0.2771 -0.0822  0.6032
 1587TIP3    H226177   1.294   2.187   5.771 -0.2578 -2.1142 -1.2674
 1588TIP3   OH226178   2.381   4.823  16.061  0.2788 -0.1222 -0.0111
 1588TIP3    H126179   2.397   4.794  16.150 -0.2879 -1.3047 -0.2771
 1588TIP3    H226180   2.450   4.781  16.009 -0.5152 -0.9828 -0.3919
 1589TIP3   OH226181   6.397   1.701   2.584 -0.4941  0.1837 -0.1679
 1589TIP3    H126182   6.491   1.689   2.596 -0.5901  1.6609  3.6447
 1589TIP3    H226183   6.358   1.650   2.656 -2.5492  0.3455 -1.1101
 1590TIP3   OH226184   4.503   3.435   4.552 -0.2007 -0.3200 -0.2197
 1590TIP3    H126185   4.460   3.404   4.631  1.8782 -0.5271  0.9085
 1590TIP3    H226186   4.549   3.358   4.518 -0.6335 -0.1044 -1.3548
 1591TIP3   OH226187   0.089   1.984   5.354  0.0568  0.1534  0.5302
 1591TIP3    H126188   0.111   1.894   5.377 -3.1986 -1.0269 -0.4365
 1591TIP3    H226189   0.105   1.989   5.259  1.2081  0.9738  0.7435
 1592TIP3   OH226190   0.761   2.237  13.140  0.3979 -0.1400 -0.1378
 1592TIP3    H126191   0.843   2.270  13.104  0.6879  1.3729  1.7890
 1592TIP3    H226192   0.757   2.272  13.229 -2.7875  0.6883 -0.4592
 1593TIP3   OH226193   5.264   0.253  16.872 -0.5347  0.0281 -0.4018
 1593TIP3    H126194   5.262   0.202  16.953  0.1225  1.0500  0.2812
 1593TIP3    H226195   5.279   0.343  16.901 -2.0456  0.7015 -1.5391
 1594TIP3   OH226196   5.059   0.876   1.885 -0.0459 -0.3352 -0.2796
 1594TIP3    H126197   4.973   0.901   1.920  1.3868  1.4904  2.3178
 1594TIP3    H226198   5.039   0.828   1.805 -3.4801 -0.2681  0.3656
 1595TIP3   OH226199   3.147   5.690  14.144 -0.2790  0.1235  0.0010
 1595TIP3    H126200   3.126   5.648  14.061  0.7083  0.9784 -0.6979
 1595TIP3    H226201   3.181   5.618  14.198 -1.4927 -0.5541 -0.0927
 1596TIP3   OH226202   3.411   2.129  16.261 -0.6519  0.1461  0.0918
 1596TIP3    H126203   3.430   2.051  16.207  0.2030 -0.2921  0.9933
 1596TIP3    H226204   3.428   2.100  16.351  1.3970  1.8450  0.3164
 1597TIP3   OH226205   3.459   3.423  13.008 -0.2948  0.0256 -0.3713
 1597TIP3    H126206   3.371   3.419  12.970 -0.8470 -1.4389  0.9774
 1597TIP3    H226207   3.462   3.352  13.071  2.5790 -1.3000 -1.8047
 1598TIP3   OH226208   5.317   0.725   0.613  0.0143 -0.1887 -0.7824
 1598TIP3    H126209   5.237   0.727   0.561 -0.3610 -1.2581 -0.2813
 1598TIP3    H226210   5.374   0.663   0.568 -0.2589 -1.0143 -0.0362
 1599TIP3   OH226211   3.033   1.470   5.571 -1.1787  0.1982 -0.4534
 1599TIP3    H126212   3.064   1.513   5.651 -0.7376 -0.5037 -0.2398
 1599TIP3    H226213   3.006   1.542   5.514 -0.4578  0.7577 -0.1002
 1600TIP3   OH226214   4.728   4.269   3.207  0.2429  0.0178  0.3642
 1600TIP3    H126215   4.700   4.357   3.182 -2.0518 -0.7038  0.2141
 1600TIP3    H226216   4.698   4.258   3.298  1.0070 -0.4203  0.5767
 1601TIP3   OH226217   2.525   5.312   3.969 -0.1390 -0.0172 -0.1371
 1601TIP3    H126218   2.619   5.294   3.959 -0.3180 -1.0120 -0.1021
 1601TIP3    H226219   2.518   5.407   3.962  0.7883  0.0115 -0.8928
 1602TIP3   OH226220   2.671   5.072  12.582 -0.5365  0.2258 -0.0517
 1602TIP3    H126221   2.667   5.050  12.489  0.8220  1.3010 -0.4090
 1602TIP3    H226222   2.615   5.149  12.590  0.9932  1.4432 -0.4601
 1603TIP3   OH226223   4.485   3.202  16.498  0.6739  0.4058  0.0477
 1603TIP3    H126224   4.450   3.200  16.409 -0.6354  0.4805  0.5408
 1603TIP3    H226225   4.417   3.245  16.549  1.3363  0.2009  1.1292
 1604TIP3   OH226226   3.764   3.365  10.337 -0.0639  0.1121 -0.3523
 1604TIP3    H126227   3.811   3.446  10.353 -1.0511  0.6242  0.0761
 1604TIP3    H226228   3.807   3.300  10.393 -0.2411  0.7033  0.4873
 1605TIP3   OH226229   3.509   3.864  16.717 -0.3826  0.8246  0.5061
 1605TIP3    H126230   3.417   3.854  16.691 -0.0986 -1.3747  0.1564
 1605TIP3    H226231   3.559   3.842  16.638  0.4458 -0.7294  1.4179
 1606TIP3   OH226232   3.221   5.684   3.123  0.1286  0.3224  0.8014
 1606TIP3    H126233   3.287   5.730   3.174  0.3599  1.6548 -0.6079
 1606TIP3    H226234   3.201   5.743   3.050 -2.3903 -0.1764  0.9870
 1607TIP3   OH226235   4.885   3.074   2.740  0.5645 -0.0839 -0.3124
 1607TIP3    H126236   4.847   2.986   2.740 -0.9047  0.5279  0.2046
 1607TIP3    H226237   4.941   3.076   2.817 -0.1636 -0.2586  0.2267
 1608TIP3   OH226238   0.643   6.106  14.349  0.1038  0.0628  0.2926
 1608TIP3    H126239   0.617   6.150  14.269 -0.1290 -0.1295  0.2613
 1608TIP3    H226240   0.575   6.128  14.413 -1.2985 -2.0688 -0.3311
 1609TIP3   OH226241   5.299   4.750   2.979  0.1173 -0.2872 -0.6179
 1609TIP3    H126242   5.366   4.752   3.047  0.3259  0.1751 -0.8310
 1609TIP3    H226243   5.348   4.738   2.898 -0.0059  0.6833 -0.8418
 1610TIP3   OH226244   5.720   4.392   5.221 -0.2071  0.3086 -0.7572
 1610TIP3    H126245   5.791   4.452   5.244  0.4657 -1.0994  1.0469
 1610TIP3    H226246   5.660   4.397   5.296 -1.8048  1.0624 -2.0003
 1611TIP3   OH226247   4.407   1.212   4.732 -0.1150 -0.3361 -0.1253
 1611TIP3    H126248   4.420   1.121   4.760  2.0617 -0.6188 -1.8325
 1611TIP3    H226249   4.351   1.249   4.800  0.0753 -2.5619  1.3683
 1612TIP3   OH226250   4.783   4.702   3.546  0.0800 -0.7467 -0.4076
 1612TIP3    H126251   4.834   4.735   3.472 -1.0459  2.2067 -0.0014
 1612TIP3    H226252   4.694   4.734   3.530 -0.7316 -2.0891  1.0605
 1613TIP3   OH226253   4.101   2.105   3.022  0.6823  0.4092 -0.3709
 1613TIP3    H126254   4.151   2.085   3.101 -2.1324  0.4427  1.5845
 1613TIP3    H226255   4.084   2.020   2.981 -2.1545 -0.3732  2.0308
 1614TIP3   OH226256   4.974   2.786  12.253  0.1297 -0.1706 -0.7955
 1614TIP3    H126257   5.049   2.727  12.246 -1.3880 -2.3295 -0.0926
 1614TIP3    H226258   4.960   2.818  12.164 -1.2274 -3.9712 -2.1539
 1615TIP3   OH226259   3.947   5.229   4.336  0.0737  0.5349  0.0661
 1615TIP3    H126260   3.903   5.205   4.418  1.7059  0.1214  0.8619
 1615TIP3    H226261   3.876   5.262   4.280 -1.0867  0.8316  1.6300
 1616TIP3   OH226262   2.473   6.714   6.054 -0.2793 -0.3183 -0.1893
 1616TIP3    H126263   2.380   6.714   6.030  0.0637 -2.4683 -1.8132
 1616TIP3    H226264   2.474   6.696   6.147 -1.4996  1.9557  0.3400
 1617TIP3   OH226265   1.018   6.656   0.788  0.3025  0.1251 -0.0215
 1617TIP3    H126266   0.984   6.621   0.706  0.1019  1.2755 -0.4417
 1617TIP3    H226267   0.940   6.686   0.835  0.6322  2.2131 -0.7236
 1618TIP3   OH226268   0.444   3.634  16.345  0.3011 -0.0386  0.6299
 1618TIP3    H126269   0.449   3.719  16.302  0.3111 -1.0665 -1.5420
 1618TIP3    H226270   0.515   3.583  16.305 -1.2206 -1.8073  0.0697
 1619TIP3   OH226271   5.491   3.152   3.586 -0.5477 -0.8975 -0.0393
 1619TIP3    H126272   5.560   3.137   3.651  1.3441  0.8696 -1.5293
 1619TIP3    H226273   5.441   3.226   3.620  0.6977  0.2980 -0.7127
 1620TIP3   OH226274   1.235   3.889   3.567  0.7322 -0.0795  0.3465
 1620TIP3    H126275   1.159   3.941   3.595 -0.1936 -0.9311 -0.5069
 1620TIP3    H226276   1.226   3.806   3.614  2.5578  0.6992  2.2053
 1621TIP3   OH226277   4.906   0.779   3.004 -0.0753 -0.2122 -0.9024
 1621TIP3    H126278   4.869   0.828   2.931 -0.2841  1.0312  0.0226
 1621TIP3    H226279   4.867   0.817   3.082  0.4893 -1.2180 -0.0992
 1622TIP3   OH226280   1.989   3.746  14.376  0.6291  0.0702 -0.3137
 1622TIP3    H126281   1.999   3.659  14.415  2.5402  0.7830  0.9303
 1622TIP3    H226282   2.057   3.750  14.308  0.5130  0.5825 -0.4036
 1623TIP3   OH226283   0.087   2.905  13.524  0.3880 -0.3106 -0.0534
 1623TIP3    H126284   0.069   2.812  13.512  0.5754 -0.2467 -0.9195
 1623TIP3    H226285   0.074   2.921  13.617 -0.1682 -1.0870  0.0031
 1624TIP3   OH226286   6.239   4.343  13.723 -0.5158  0.6880  0.3278
 1624TIP3    H126287   6.293   4.422  13.735 -2.5069  2.1402  0.2766
 1624TIP3    H226288   6.159   4.361  13.773 -1.0410 -1.3071  0.2639
 1625TIP3   OH226289   6.530   3.448   5.895  0.1482 -0.1936 -0.6126
 1625TIP3    H126290   6.590   3.516   5.924 -0.1141 -0.4039  0.4674
 1625TIP3    H226291   6.571   3.413   5.816  1.9870 -0.9854  0.6092
 1626TIP3   OH226292   5.499   6.314  14.225 -0.5647 -0.0559 -0.0063
 1626TIP3    H126293   5.594   6.316  14.211 -0.2415  1.3938  1.9855
 1626TIP3    H226294   5.483   6.230  14.267 -0.1642 -0.3216 -0.3764
 1627TIP3   OH226295   1.278   0.067  12.655 -0.3993 -0.1449  0.3066
 1627TIP3    H126296   1.302   0.037  12.567 -0.7161  0.5178 -0.0073
 1627TIP3    H226297   1.183   0.065  12.657 -0.3927 -0.2615  0.6757
 1628TIP3   OH226298   4.960   2.027  15.214  0.5895 -0.8600  0.5256
 1628TIP3    H126299   4.870   2.012  15.185  0.7001 -0.5170 -0.0047
 1628TIP3    H226300   5.002   1.941  15.209  0.4910 -0.8841  0.0640
 1629TIP3   OH226301   3.347   3.913   3.036 -0.3272  0.4534 -0.3156
 1629TIP3    H126302   3.287   3.941   3.105  0.9411  1.6830  0.3341
 1629TIP3    H226303   3.423   3.880   3.083  0.8793  2.0249 -1.0762
 1630TIP3   OH226304   2.791   5.632  13.015 -0.3214  0.6436  0.0409
 1630TIP3    H126305   2.802   5.545  12.977  0.0495  0.7091 -0.0057
 1630TIP3    H226306   2.698   5.637  13.037 -0.3436  0.2336  0.0489
 1631TIP3   OH226307   1.645   6.547   5.219  0.4709  0.6768  0.4029
 1631TIP3    H126308   1.732   6.567   5.186  0.6535  0.4159  0.7277
 1631TIP3    H226309   1.655   6.465   5.267 -0.0523  0.3934  0.0351
 1632TIP3   OH226310   2.869   2.555  10.310  0.0128 -0.0698  0.4682
 1632TIP3    H126311   2.914   2.636  10.332 -0.3936 -0.1008  1.5087
 1632TIP3    H226312   2.846   2.517  10.395 -0.7076 -0.7568 -0.0167
 1633TIP3   OH226313   2.758   3.822   0.829  0.5882  0.4801 -0.8548
 1633TIP3    H126314   2.792   3.859   0.910  0.7819 -0.6239 -0.4039
 1633TIP3    H226315   2.713   3.741   0.857 -1.9536  1.5645 -1.4664
 1634TIP3   OH226316   1.865   4.927   5.708  0.2881 -0.3887 -0.0781
 1634TIP3    H126317   1.820   4.960   5.630 -1.1369 -2.9258 -0.4285
 1634TIP3    H226318   1.956   4.952   5.695 -0.1038  0.2069 -2.0132
 1635TIP3   OH226319   5.697   1.668  15.151  0.0027 -0.4425 -0.1426
 1635TIP3    H126320   5.677   1.742  15.093 -0.6426  0.7581  1.5138
 1635TIP3    H226321   5.780   1.633  15.118 -0.0451  0.5482 -1.4081
 1636TIP3   OH226322   4.304   2.548  12.731  0.0179 -0.1588 -0.8734
 1636TIP3    H126323   4.297   2.637  12.697 -2.6916 -0.6423 -1.7862
 1636TIP3    H226324   4.301   2.492  12.654  0.3692 -1.1180 -0.2186
 1637TIP3   OH226325   2.546   0.184   4.720 -0.3417  0.1978  0.0136
 1637TIP3    H126326   2.526   0.111   4.779 -1.6383  1.0457  0.6765
 1637TIP3    H226327   2.472   0.244   4.730  0.9137  1.8476 -0.1273
 1638TIP3   OH226328   6.167   3.860  16.862 -0.0706 -0.3795 -0.3428
 1638TIP3    H126329   6.213   3.878  16.780 -0.5665  0.8427 -0.3725
 1638TIP3    H226330   6.111   3.785  16.842  0.0824 -0.3222 -1.0130
 1639TIP3   OH226331   3.656   1.218  14.624 -0.2933  0.2038 -0.3085
 1639TIP3    H126332   3.605   1.211  14.543 -0.0161 -0.2189 -0.4463
 1639TIP3    H226333   3.746   1.226  14.595 -0.1263 -0.5671 -0.0365
 1640TIP3   OH226334   1.584   0.086   3.504 -0.1232  0.4977 -0.1758
 1640TIP3    H126335   1.671   0.122   3.489 -0.7853  2.0168 -0.5541
 1640TIP3    H226336   1.532   0.117   3.430 -1.8289  2.5757  1.7617
 1641TIP3   OH226337   4.149   2.695  15.066  0.2160  0.1592 -0.0707
 1641TIP3    H126338   4.142   2.610  15.024 -0.8906  0.1997  0.0175
 1641TIP3    H226339   4.180   2.754  14.997  1.0971 -0.3304 -0.0983
 1642TIP3   OH226340   2.756   4.361   1.371 -0.4303 -0.3260  0.6683
 1642TIP3    H126341   2.796   4.322   1.449 -0.3246  0.1894  0.8754
 1642TIP3    H226342   2.661   4.357   1.388 -0.4016 -0.0575  0.9058
 1643TIP3   OH226343   5.025   1.636  11.192 -0.9418 -0.3738  0.0698
 1643TIP3    H126344   5.068   1.669  11.113  0.0690 -0.4834  0.5566
 1643TIP3    H226345   5.032   1.541  11.186 -1.6344 -0.4168 -0.1221
 1644TIP3   OH226346   3.011   4.658   4.722  0.2186  0.2859 -0.1843
 1644TIP3    H126347   2.974   4.689   4.805  1.5718 -0.4520  0.7322
 1644TIP3    H226348   3.083   4.601   4.748  1.0127  0.4625 -1.8857
 1645TIP3   OH226349   3.870   3.259   5.860 -0.0570  0.2721  0.1711
 1645TIP3    H126350   3.826   3.300   5.934  0.0757  1.7850 -0.5531
 1645TIP3    H226351   3.852   3.317   5.786 -1.1262 -1.7706 -1.2615
 1646TIP3   OH226352   3.167   3.948  16.807  0.2312  0.8154 -0.2488
 1646TIP3    H126353   3.178   3.894  16.885  0.6467  0.9826 -0.1909
 1646TIP3    H226354   3.165   3.884  16.735 -1.2981  0.5723 -0.0145
 1647TIP3   OH226355   4.834   3.386  16.035  0.4308  0.7180  1.1137
 1647TIP3    H126356   4.869   3.346  16.114  0.8296  3.7044  2.5820
 1647TIP3    H226357   4.903   3.375  15.970  0.9069 -0.1300  1.7517
 1648TIP3   OH226358   0.597   2.590  11.096 -0.3021  0.2644 -0.4321
 1648TIP3    H126359   0.600   2.683  11.115  1.1770  0.7213 -2.4764
 1648TIP3    H226360   0.532   2.582  11.026 -1.3146 -0.4468  0.5617
 1649TIP3   OH226361   5.259   3.698   4.680  0.4259 -0.0038  0.5078
 1649TIP3    H126362   5.204   3.622   4.662  0.6536 -0.4483  1.6269
 1649TIP3    H226363   5.198   3.771   4.692  0.2021 -0.0163 -0.4323
 1650TIP3   OH226364   6.033   6.089  11.782  0.1733 -0.3451  0.3380
 1650TIP3    H126365   6.115   6.085  11.830 -0.2943  0.7327  1.2687
 1650TIP3    H226366   5.982   6.015  11.815  0.2715 -0.2467  0.7115
 1651TIP3   OH226367   6.516   6.225  14.555  0.6688  0.8108  0.3674
 1651TIP3    H126368   6.525   6.302  14.610 -0.0419  1.7978 -0.8284
 1651TIP3    H226369   6.436   6.182  14.587  1.0867  0.5494  1.0604
 1652TIP3   OH226370   5.847   5.140  14.624  0.5948  0.5921 -0.3644
 1652TIP3    H126371   5.911   5.131  14.554  0.3620  0.4564 -0.5634
 1652TIP3    H226372   5.813   5.051  14.637  2.1886  0.1875  1.4066
 1653TIP3   OH226373   0.271   5.572  11.083  0.2217  0.7746 -0.5879
 1653TIP3    H126374   0.220   5.491  11.076  1.3398 -0.0768  0.5821
 1653TIP3    H226375   0.353   5.551  11.038  0.4267  1.3439 -0.4757
 1654TIP3   OH226376   6.378   3.618   2.125 -0.4849  0.6713 -0.1662
 1654TIP3    H126377   6.300   3.585   2.081 -2.0648  2.6705  0.9759
 1654TIP3    H226378   6.450   3.567   2.087 -2.1127 -0.0134 -2.5799
 1655TIP3   OH226379   2.637   3.615  13.137  0.2941 -0.7423 -0.3511
 1655TIP3    H126380   2.673   3.651  13.218 -0.0329 -2.7494  0.7597
 1655TIP3    H226381   2.604   3.691  13.089  0.4078  0.5028  1.4559
 1656TIP3   OH226382   3.445   2.904  13.738 -0.0711  0.8440  0.5139
 1656TIP3    H126383   3.370   2.862  13.779 -0.3315  0.6744 -0.1349
 1656TIP3    H226384   3.469   2.975  13.799 -1.6272  1.8006  0.0649
 1657TIP3   OH226385   3.945   4.446   5.811  0.1202  0.6630 -0.0879
 1657TIP3    H126386   4.015   4.406   5.759  0.2785  0.3118  0.3782
 1657TIP3    H226387   3.911   4.516   5.757 -1.6595 -1.4648 -1.9063
 1658TIP3   OH226388   1.605   2.017   4.892 -0.7836  0.2904 -0.5810
 1658TIP3    H126389   1.643   2.098   4.857 -1.0062  0.6655  0.0285
 1658TIP3    H226390   1.547   2.047   4.962 -0.5090 -0.4325 -0.0382
 1659TIP3   OH226391   0.620   2.834  12.797  0.9051  0.0612 -0.6758
 1659TIP3    H126392   0.620   2.741  12.823  0.7778  0.0854 -0.5904
 1659TIP3    H226393   0.540   2.844  12.746 -0.6240  0.7832  1.6748
 1660TIP3   OH226394   5.053   1.782   0.428  0.0319  0.3774  0.2982
 1660TIP3    H126395   5.109   1.859   0.441 -0.3294  0.8089 -0.6504
 1660TIP3    H226396   4.964   1.815   0.441 -0.0562 -0.1539  1.1059
 1661TIP3   OH226397   6.159   3.615  14.180  0.8007  0.4015  0.4898
 1661TIP3    H126398   6.163   3.604  14.275  1.1179 -0.7384  0.3680
 1661TIP3    H226399   6.217   3.547  14.146 -1.0323 -0.7459 -0.5753
 1662TIP3   OH226400   2.398   0.417   1.613  0.1382  0.2036  0.3275
 1662TIP3    H126401   2.332   0.356   1.647 -0.0833  0.5505  0.5269
 1662TIP3    H226402   2.353   0.501   1.610  0.0507  0.1297 -1.1536
 1663TIP3   OH226403   5.062   1.386   3.567 -0.2080 -0.0384  0.3157
 1663TIP3    H126404   5.096   1.428   3.646 -0.9346  0.2910  0.4558
 1663TIP3    H226405   5.062   1.293   3.588  2.0639 -0.2211 -0.2414
 1664TIP3   OH226406   3.429   2.486   5.091  0.3424 -0.0245  0.2795
 1664TIP3    H126407   3.404   2.477   4.999  1.1029 -0.2912  0.0926
 1664TIP3    H226408   3.368   2.428   5.138  0.3312 -0.3438 -0.1199
 1665TIP3   OH226409   1.112   0.863  11.559 -0.1688  0.5067 -0.1693
 1665TIP3    H126410   1.056   0.836  11.632 -0.0098  0.5664 -0.0237
 1665TIP3    H226411   1.114   0.958  11.565  1.4936  0.4432  1.0055
 1666TIP3   OH226412   0.156   3.355  13.149  0.0105  0.4889 -0.2814
 1666TIP3    H126413   0.130   3.326  13.236  1.4849  2.8449  1.0467
 1666TIP3    H226414   0.246   3.326  13.140 -0.3761 -0.4341 -1.4070
 1667TIP3   OH226415   5.493   0.641   3.115  0.2923 -0.1940  0.4791
 1667TIP3    H126416   5.461   0.582   3.183  0.0025 -0.7554 -0.1264
 1667TIP3    H226417   5.469   0.598   3.033 -3.0817  2.3311 -0.1007
 1668TIP3   OH226418   6.355   1.203  10.913 -0.6359  0.1180 -0.8587
 1668TIP3    H126419   6.304   1.170  10.987 -1.3228  1.5213 -0.6740
 1668TIP3    H226420   6.305   1.278  10.881 -1.3950 -1.5579 -4.0035
 1669TIP3   OH226421   5.184   5.276   4.338  0.0238 -0.0535  0.5349
 1669TIP3    H126422   5.273   5.245   4.319  1.5959  3.1746  1.7821
 1669TIP3    H226423   5.167   5.245   4.427 -0.4818 -1.3293  0.0180
 1670TIP3   OH226424   3.212   5.527  13.717  0.1728  0.1322  0.5058
 1670TIP3    H126425   3.148   5.549  13.785 -2.0659  0.8211 -1.6902
 1670TIP3    H226426   3.248   5.612  13.690  1.1586 -0.1536  0.8615
 1671TIP3   OH226427   0.763   5.671   4.914 -0.1611 -0.2491  0.0432
 1671TIP3    H126428   0.853   5.686   4.883 -0.7405 -0.3300 -1.8235
 1671TIP3    H226429   0.722   5.757   4.910 -0.4408 -0.3891 -0.0886
 1672TIP3   OH226430   3.175   3.866  14.098  0.1752 -0.8230 -0.5265
 1672TIP3    H126431   3.108   3.805  14.066 -2.6057  2.4297 -1.4443
 1672TIP3    H226432   3.226   3.888  14.020  0.0537 -0.6773 -0.5654
 1673TIP3   OH226433   2.688   2.667   5.825  0.4928  0.5751 -0.3170
 1673TIP3    H126434   2.771   2.707   5.799  0.2366  0.4516 -1.3548
 1673TIP3    H226435   2.704   2.573   5.819  0.3007  0.5501 -0.4373
 1674TIP3   OH226436   2.370   1.503  16.103 -0.1397  0.7483 -0.6971
 1674TIP3    H126437   2.446   1.562  16.109 -0.3860  0.9624  0.9944
 1674TIP3    H226438   2.375   1.465  16.015  1.6071  1.1867 -0.8221
 1675TIP3   OH226439   3.758   0.569  16.678  0.2596  0.0607  0.0421
 1675TIP3    H126440   3.794   0.494  16.631  1.2291  0.0767  0.7153
 1675TIP3    H226441   3.816   0.580  16.754  1.1335  2.4383 -0.8538
 1676TIP3   OH226442   6.031   2.127  13.948 -0.2896  1.1148 -0.0878
 1676TIP3    H126443   6.090   2.064  13.907  2.3323  2.4032  1.4012
 1676TIP3    H226444   6.013   2.090  14.034 -1.1773  1.0264 -0.3071
 1677TIP3   OH226445   1.827   1.401  13.514 -0.8370 -0.2588 -0.3444
 1677TIP3    H126446   1.827   1.356  13.429 -0.9633  0.4613 -0.7255
 1677TIP3    H226447   1.919   1.417  13.532 -0.7646 -0.9342 -0.0554
 1678TIP3   OH226448   2.704   4.462  17.190 -0.1514  0.7794  0.0969
 1678TIP3    H126449   2.720   4.377  17.149  1.0767 -0.1432  2.3039
 1678TIP3    H226450   2.785   4.511  17.175  0.0161  0.7086  0.7448
 1679TIP3   OH226451   4.206   2.612   2.259 -0.0507 -0.4955 -0.1133
 1679TIP3    H126452   4.201   2.660   2.176 -1.3178  1.4209  0.9971
 1679TIP3    H226453   4.290   2.638   2.296 -1.0274  1.5759  0.8097
 1680TIP3   OH226454   5.422   0.010   5.068  0.4401 -0.5780 -0.1383
 1680TIP3    H126455   5.442   0.013   4.974  1.9886 -2.0085  0.0884
 1680TIP3    H226456   5.466  -0.069   5.098  0.5427  0.2271  1.9415
 1681TIP3   OH226457   0.047   2.983  13.135  0.8052  0.0789 -0.5213
 1681TIP3    H126458   0.025   2.990  13.228 -2.4689  1.3204 -1.2871
 1681TIP3    H226459   0.029   2.891  13.114 -2.3607  0.6440 -0.7032
 1682TIP3   OH226460   4.982   5.039  17.010  0.0271  0.3073 -0.8312
 1682TIP3    H126461   5.031   5.101  17.064 -0.6845 -0.1914  0.4612
 1682TIP3    H226462   5.017   5.050  16.922  0.4396  1.9905 -0.4951
 1683TIP3   OH226463   0.990   2.978   4.447 -0.4712  0.0517  0.2629
 1683TIP3    H126464   1.040   2.989   4.366 -1.3784 -1.8275 -0.6060
 1683TIP3    H226465   1.003   2.886   4.471 -0.5164  0.4753  2.0729
 1684TIP3   OH226466   5.656   3.684   3.757 -0.2779  0.6975 -0.3182
 1684TIP3    H126467   5.688   3.721   3.675 -1.1573  1.2566 -0.4173
 1684TIP3    H226468   5.562   3.701   3.756 -0.3435  0.4266  0.6622
 1685TIP3   OH226469   2.164   1.974  16.346  0.1478 -0.4214  0.2599
 1685TIP3    H126470   2.178   2.037  16.276  0.5290  0.9284  1.5034
 1685TIP3    H226471   2.079   1.934  16.326 -0.4151  0.9671 -0.2138
 1686TIP3   OH226472   5.163   4.204   1.371  0.5793 -0.3289 -0.1432
 1686TIP3    H126473   5.196   4.294   1.371 -1.7015  0.6223 -1.9872
 1686TIP3    H226474   5.074   4.212   1.337 -0.1437 -3.1694  0.8492
 1687TIP3   OH226475   3.411   1.952   4.563  0.2758 -0.0258 -0.6131
 1687TIP3    H126476   3.317   1.936   4.572  0.4244 -0.1498  1.0557
 1687TIP3    H226477   3.435   1.908   4.482 -0.9696 -0.6910 -0.6537
 1688TIP3   OH226478   0.433   2.762  11.275  0.1369 -0.4600 -0.1218
 1688TIP3    H126479   0.377   2.763  11.197 -1.4304  2.2931  0.8734
 1688TIP3    H226480   0.389   2.702  11.335  1.4319 -2.7092 -1.3125
 1689TIP3   OH226481   1.493   0.497   6.249 -0.1266  0.0697 -0.8661
 1689TIP3    H126482   1.462   0.526   6.163 -2.7759  1.5846  0.4611
 1689TIP3    H226483   1.482   0.402   6.248 -1.1831  0.1832 -1.8487
 1690TIP3   OH226484   3.833   3.558  16.280  0.0686 -0.1953  0.3707
 1690TIP3    H126485   3.874   3.493  16.222 -1.0114  0.0922 -0.7586
 1690TIP3    H226486   3.829   3.637  16.227  0.3835  0.5082  1.3676
 1691TIP3   OH226487   0.046   2.036   5.071 -0.0310  0.2239 -0.2091
 1691TIP3    H126488   0.131   2.067   5.038 -0.8973  0.8567 -1.9893
 1691TIP3    H226489   0.022   1.964   5.013 -0.1465 -0.8439  1.1022
 1692TIP3   OH226490   6.570   6.056   6.391  0.4525 -0.3210 -0.3201
 1692TIP3    H126491   6.657   6.068   6.430  0.5920  0.0127 -0.7220
 1692TIP3    H226492   6.513   6.114   6.441  0.0520 -1.9793  1.2328
 1693TIP3   OH226493   0.073   5.159  15.635  0.4519  0.7480 -0.0856
 1693TIP3    H126494   0.057   5.097  15.707  1.1852 -0.5729 -1.0234
 1693TIP3    H226495   0.094   5.242  15.679  2.6128 -0.4412  1.3109
 1694TIP3   OH226496   5.750   2.721   6.289 -0.1590  0.0853  0.1748
 1694TIP3    H126497   5.692   2.793   6.313 -0.5649 -0.0731 -0.3210
 1694TIP3    H226498   5.794   2.698   6.371  1.3682  2.0993 -0.0060
 1695TIP3   OH226499   5.130   4.838  14.678 -0.4417  0.1474 -0.2224
 1695TIP3    H126500   5.132   4.815  14.585 -1.3786  0.4149 -0.3224
 1695TIP3    H226501   5.169   4.763  14.723 -0.2019 -0.0841 -0.8103
 1696TIP3   OH226502   3.292   3.749  16.458 -0.2710 -0.5245  0.0655
 1696TIP3    H126503   3.380   3.712  16.445  0.3118  0.7894  0.0624
 1696TIP3    H226504   3.275   3.736  16.551 -0.0085 -0.6596  0.0973
 1697TIP3   OH226505   0.875   4.592   1.644 -0.2242 -0.8359  0.1451
 1697TIP3    H126506   0.874   4.651   1.720 -1.9146 -0.3610 -0.2183
 1697TIP3    H226507   0.966   4.592   1.615  0.2768 -0.3168  1.6151
 1698TIP3   OH226508   5.893   6.478   5.592 -0.0433 -0.0643 -0.1117
 1698TIP3    H126509   5.875   6.391   5.555  1.1672 -0.5803  0.4727
 1698TIP3    H226510   5.889   6.465   5.686 -1.4104  0.8761 -0.0191
 1699TIP3   OH226511   2.660   4.552  11.860  0.2786 -0.0188 -0.6580
 1699TIP3    H126512   2.587   4.490  11.857  0.8065 -0.6159 -2.5850
 1699TIP3    H226513   2.638   4.620  11.797  1.6114 -0.5279 -1.7305
 1700TIP3   OH226514   5.773   3.256  11.818  0.3169 -0.2783  0.2167
 1700TIP3    H126515   5.857   3.299  11.835  0.8428 -2.3116  3.5587
 1700TIP3    H226516   5.723   3.268  11.899 -2.3752  0.1666 -1.3776
 1701TIP3   OH226517   5.074   1.818   3.244  0.2210  0.6140 -0.0513
 1701TIP3    H126518   5.120   1.734   3.236  0.9654  1.1324 -1.4934
 1701TIP3    H226519   5.105   1.870   3.170 -1.3043  1.6651  0.0099
 1702TIP3   OH226520   2.942   3.592  11.675  0.2394 -0.1281  0.1844
 1702TIP3    H126521   3.027   3.596  11.631  0.4249 -1.1204  0.4119
 1702TIP3    H226522   2.950   3.515  11.733 -0.8748 -0.3265  0.0806
 1703TIP3   OH226523   3.228   1.418   0.658 -0.1408  0.1623  0.2001
 1703TIP3    H126524   3.292   1.482   0.628  0.5642 -0.7989 -0.4142
 1703TIP3    H226525   3.144   1.464   0.655  0.3769  1.1229  0.0214
 1704TIP3   OH226526   4.673   2.561   2.735  0.0347  0.7246 -0.0195
 1704TIP3    H126527   4.593   2.508   2.733  0.5084 -0.0674  0.9563
 1704TIP3    H226528   4.728   2.524   2.666  0.2209  0.1505  0.4255
 1705TIP3   OH226529   4.055   0.493   1.939  0.2802  0.0434  0.1396
 1705TIP3    H126530   4.149   0.474   1.932  1.0029  3.4670 -2.0006
 1705TIP3    H226531   4.046   0.539   2.022  0.1672 -1.3845  0.9628
 1706TIP3   OH226532   3.816   1.786  14.118  0.3047  0.5578 -0.1894
 1706TIP3    H126533   3.756   1.848  14.075 -0.7728  0.6635  1.3609
 1706TIP3    H226534   3.865   1.840  14.180  0.2173  0.0569  0.3185
 1707TIP3   OH226535   6.412   4.005   6.563  0.5600 -0.7960  0.2927
 1707TIP3    H126536   6.400   4.071   6.495 -0.7305  0.9821  2.1482
 1707TIP3    H226537   6.503   4.016   6.591  0.7069 -0.6623 -0.2208
 1708TIP3   OH226538   5.979   4.218   5.957  0.4692 -0.0262 -0.1272
 1708TIP3    H126539   5.982   4.214   6.053  0.0292 -2.9892 -0.1502
 1708TIP3    H226540   5.965   4.128   5.930 -1.5315  1.0115 -2.9542
 1709TIP3   OH226541   3.504   1.566   2.500 -0.5973 -0.1113 -0.0637
 1709TIP3    H126542   3.441   1.608   2.441 -1.6456 -0.2503  0.9175
 1709TIP3    H226543   3.551   1.639   2.540 -0.0839 -0.0076 -0.8281
 1710TIP3   OH226544   3.062   6.352  11.794 -0.1303 -0.2884  0.5282
 1710TIP3    H126545   3.113   6.299  11.732 -0.4066 -1.0120  0.9117
 1710TIP3    H226546   3.126   6.382  11.858  0.3249  1.2002 -0.5674
 1711TIP3   OH226547   6.662   6.768   2.826 -0.3516 -0.1154 -0.2536
 1711TIP3    H126548   6.687   6.678   2.847 -1.4051 -0.0160  1.6744
 1711TIP3    H226549   6.693   6.820   2.901 -1.8696  0.7235 -0.1593
 1712TIP3   OH226550   5.710   2.694   5.202 -0.3740 -0.1919 -0.3252
 1712TIP3    H126551   5.660   2.774   5.218  1.5288  0.9832  0.0592
 1712TIP3    H226552   5.696   2.641   5.280  1.3924  1.4645  1.2003
 1713TIP3   OH226553   3.285   6.767  16.955  0.0530 -0.1306 -0.2357
 1713TIP3    H126554   3.323   6.771  16.867 -0.6456 -2.2968 -0.6812
 1713TIP3    H226555   3.223   6.694  16.952 -1.7923  1.2491  1.3932
 1714TIP3   OH226556   1.927   4.743   2.825 -0.4879  0.1267 -0.2257
 1714TIP3    H126557   1.949   4.748   2.732  0.7356 -1.9382 -0.0955
 1714TIP3    H226558   1.849   4.688   2.828 -1.1306  1.0165 -0.0706
 1715TIP3   OH226559   2.462   2.344   3.360  0.2663  0.0520 -0.2192
 1715TIP3    H126560   2.470   2.408   3.289 -0.3128 -0.4945 -0.7885
 1715TIP3    H226561   2.407   2.388   3.425 -0.5878 -0.0543 -0.8476
 1716TIP3   OH226562   4.774   5.258  11.409  0.2394 -0.2528 -0.0474
 1716TIP3    H126563   4.825   5.338  11.423  0.0339 -0.1015 -0.1482
 1716TIP3    H226564   4.756   5.259  11.315 -1.5224  0.6694  0.2610
 1717TIP3   OH226565   1.895   2.616  16.391 -0.0629  0.4057 -0.0526
 1717TIP3    H126566   1.971   2.585  16.439 -0.0749 -2.4573 -1.6869
 1717TIP3    H226567   1.840   2.657  16.457  0.9299 -1.3390  1.9563
 1718TIP3   OH226568   1.587   2.341   1.542  0.4138 -0.1859  0.1510
 1718TIP3    H126569   1.497   2.373   1.553 -0.0856 -0.9943 -1.3437
 1718TIP3    H226570   1.581   2.247   1.557  1.3451 -0.0559  1.6193
 1719TIP3   OH226571   6.383   6.145  11.459 -0.0723 -0.1414 -0.3209
 1719TIP3    H126572   6.416   6.086  11.391 -0.1907 -0.7017  0.1031
 1719TIP3    H226573   6.295   6.112  11.479 -0.6596  0.9628 -0.9978
 1720TIP3   OH226574   2.227   6.444  11.795 -0.7393 -0.2367 -0.6244
 1720TIP3    H126575   2.292   6.513  11.808 -1.7896  0.6587  0.0934
 1720TIP3    H226576   2.171   6.477  11.724 -3.3481  1.4046  1.9266
 1721TIP3   OH226577   6.336   4.807  12.205 -0.1253 -0.0030 -0.5864
 1721TIP3    H126578   6.273   4.819  12.276 -0.0798 -1.0308 -0.3577
 1721TIP3    H226579   6.288   4.829  12.126 -0.9065 -1.1462 -0.4515
 1722TIP3   OH226580   5.172   2.961   5.615  0.5788  0.0360  0.0420
 1722TIP3    H126581   5.079   2.951   5.634  0.9363  0.1006  2.0572
 1722TIP3    H226582   5.216   2.934   5.696  2.3508 -0.5731 -1.0514
 1723TIP3   OH226583   5.314   3.827   3.360  0.3698 -0.3819  0.2687
 1723TIP3    H126584   5.367   3.884   3.417  1.2372 -0.7414 -0.1632
 1723TIP3    H226585   5.291   3.883   3.286 -0.8649  0.1242  1.0050
 1724TIP3   OH226586   6.643   3.968  16.587 -0.1259  0.4832 -0.2661
 1724TIP3    H126587   6.706   3.934  16.651  0.9630 -0.5018 -1.7861
 1724TIP3    H226588   6.613   3.890  16.541 -0.0775  1.2676 -1.6643
 1725TIP3   OH226589   2.471   5.142  11.998 -0.0107  0.2724  0.4561
 1725TIP3    H126590   2.478   5.076  11.930  0.9284  0.3832  0.4181
 1725TIP3    H226591   2.412   5.208  11.962 -2.1225 -1.1961  1.0700
 1726TIP3   OH226592   6.140   3.846   4.741  0.3213 -0.7205  0.8850
 1726TIP3    H126593   6.086   3.812   4.670 -0.3361  0.0323  1.0104
 1726TIP3    H226594   6.168   3.768   4.789  1.7096 -1.3428 -0.8154
 1727TIP3   OH226595   5.050   5.639  16.549 -0.0290 -0.0439 -0.0464
 1727TIP3    H126596   4.994   5.711  16.576  1.0884 -0.0554  2.6190
 1727TIP3    H226597   4.990   5.572  16.517 -1.5793  0.0434  2.4387
 1728TIP3   OH226598   3.087   5.110   1.978 -0.3066  0.3778  0.3752
 1728TIP3    H126599   3.054   5.147   1.896  0.7543  1.0976  0.2425
 1728TIP3    H226600   3.015   5.059   2.013 -0.4802 -0.7242 -1.4730
 1729TIP3   OH226601   2.854   2.066  16.357  0.5679  0.1298  0.4932
 1729TIP3    H126602   2.789   2.047  16.425  0.7452 -5.1340 -0.3282
 1729TIP3    H226603   2.803   2.067  16.276  1.0352  0.2432  0.2007
 1730TIP3   OH226604   1.013   2.041   3.279  0.1492  0.0491 -0.6868
 1730TIP3    H126605   1.031   1.979   3.350 -0.0469  0.2991 -0.4154
 1730TIP3    H226606   1.099   2.063   3.244  0.5732  2.1075  1.3357
 1731TIP3   OH226607   1.599   2.799   3.013  0.3422  0.3611 -0.1394
 1731TIP3    H126608   1.660   2.826   3.082  0.6083 -0.0720 -0.2057
 1731TIP3    H226609   1.618   2.707   2.998  1.0609  0.7174 -1.5914
 1732TIP3   OH226610   4.961   1.784   4.980 -0.0774 -0.2425 -0.2844
 1732TIP3    H126611   5.037   1.756   5.031 -1.2442 -3.1473  0.0457
 1732TIP3    H226612   4.998   1.837   4.909  2.0634 -0.2762  0.7215
 1733TIP3   OH226613   1.563   3.369   1.088  0.1025 -0.3604 -0.0098
 1733TIP3    H126614   1.623   3.440   1.108  0.5461 -0.9228  0.7241
 1733TIP3    H226615   1.482   3.391   1.133  0.0527 -0.0423 -0.2560
 1734TIP3   OH226616   4.972   4.858  13.846 -0.0147  0.4028 -0.1273
 1734TIP3    H126617   4.956   4.895  13.760  2.3754  1.9997  0.0235
 1734TIP3    H226618   4.913   4.905  13.905 -2.5086 -1.4969 -0.9308
 1735TIP3   OH226619   2.457   4.368  16.463 -0.2624 -0.4135 -0.0101
 1735TIP3    H126620   2.433   4.441  16.520 -1.1632  0.9171 -1.9836
 1735TIP3    H226621   2.553   4.369  16.462 -0.2591  0.4942  0.2853
 1736TIP3   OH226622   3.010   3.752   1.698 -0.0287  0.0335  0.2772
 1736TIP3    H126623   3.062   3.754   1.618  0.5063  2.4484  0.6136
 1736TIP3    H226624   3.060   3.696   1.757  2.0548  1.9149  0.4376
 1737TIP3   OH226625   2.248   5.892   3.003 -0.1134 -0.1030  0.0654
 1737TIP3    H126626   2.245   5.939   3.086 -1.6084 -1.5399  0.9003
 1737TIP3    H226627   2.264   5.801   3.029 -0.6808 -0.5815 -1.2084
 1738TIP3   OH226628   4.885   2.472   0.421 -0.2602 -0.0826  0.0064
 1738TIP3    H126629   4.973   2.499   0.447  0.1273 -1.7574  0.5651
 1738TIP3    H226630   4.899   2.392   0.370 -1.4860 -0.7619  0.6826
 1739TIP3   OH226631   6.366   2.311  13.939  0.0697  0.6639  0.0180
 1739TIP3    H126632   6.326   2.226  13.959 -1.3055  1.4515  0.6903
 1739TIP3    H226633   6.371   2.356  14.023  1.7812  0.8702 -0.1535
 1740TIP3   OH226634   3.613   1.107  12.486  0.8199 -0.6999 -0.7938
 1740TIP3    H126635   3.613   1.031  12.545  0.9904 -0.9272 -1.0787
 1740TIP3    H226636   3.520   1.127  12.472  0.7089  1.5611  2.3087
 1741TIP3   OH226637   3.782   2.586   1.395  0.1083 -0.1848 -0.7933
 1741TIP3    H126638   3.820   2.672   1.414  0.0290  0.0260 -1.5694
 1741TIP3    H226639   3.851   2.540   1.347  0.0748 -0.4877 -0.5553
 1742TIP3   OH226640   6.783   2.645  13.504  0.3677  0.3355 -0.3499
 1742TIP3    H126641   6.805   2.588  13.430  1.3621 -0.2141  0.3410
 1742TIP3    H226642   6.706   2.694  13.475 -1.2322 -2.1573 -0.5747
 1743TIP3   OH226643   4.964   4.479  12.982  0.3543  0.0001 -0.0427
 1743TIP3    H126644   4.934   4.389  12.967  1.5076 -0.4652  0.3198
 1743TIP3    H226645   4.906   4.533  12.927 -1.1371 -0.8267  0.6514
 1744TIP3   OH226646   1.154   1.426   1.662 -0.1973 -0.2494 -0.1708
 1744TIP3    H126647   1.196   1.511   1.674  0.4847 -0.5791 -0.1801
 1744TIP3    H226648   1.145   1.417   1.567 -0.1429 -0.2449 -0.1766
 1745TIP3   OH226649   5.546   2.130  16.835 -0.3060  0.3222  0.3084
 1745TIP3    H126650   5.553   2.217  16.876 -0.7889 -0.0592  1.2267
 1745TIP3    H226651   5.458   2.101  16.856 -0.7609  0.2935 -1.4206
 1746TIP3   OH226652   1.128   1.183  14.009 -0.4319 -0.4934  0.1510
 1746TIP3    H126653   1.126   1.241  13.933 -1.0243  0.0677  0.5839
 1746TIP3    H226654   1.184   1.228  14.072 -1.8246  0.1978  0.9339
 1747TIP3   OH226655   1.001   4.163  13.161 -0.5589  0.3180 -0.3735
 1747TIP3    H126656   0.938   4.228  13.129 -0.1451 -0.8232 -3.9469
 1747TIP3    H226657   1.084   4.210  13.162 -0.7462  0.6490  0.0798
 1748TIP3   OH226658   3.356   6.631  11.642  0.1141 -0.3729 -0.2266
 1748TIP3    H126659   3.415   6.593  11.577  2.0479  0.5464  0.8541
 1748TIP3    H226660   3.294   6.682  11.591 -0.5739 -2.3698 -1.4978
 1749TIP3   OH226661   4.428   6.446   4.440 -0.1426 -0.2495  0.1201
 1749TIP3    H126662   4.433   6.447   4.344 -0.7904 -1.8576  0.0352
 1749TIP3    H226663   4.462   6.531   4.467 -1.6989  0.9937 -1.6093
 1750TIP3   OH226664   1.814   3.790  14.779  0.1778 -0.2998 -0.0782
 1750TIP3    H126665   1.752   3.746  14.721  2.0789 -0.7834 -1.8364
 1750TIP3    H226666   1.809   3.882  14.754  1.7678 -0.6522 -1.8335
 1751TIP3   OH226667   4.280   5.735  13.656  0.0372 -0.3502 -0.2015
 1751TIP3    H126668   4.214   5.799  13.683 -1.0765 -1.3866 -0.3859
 1751TIP3    H226669   4.313   5.698  13.738  0.4255  0.1944 -0.1075
 1752TIP3   OH226670   2.393   5.556   1.673 -0.2218 -0.8667 -0.3457
 1752TIP3    H126671   2.448   5.582   1.599 -2.0193 -2.1984 -2.2479
 1752TIP3    H226672   2.308   5.596   1.656 -0.2448  0.3104  2.0193
 1753TIP3   OH226673   1.768   5.403  16.437 -0.0834 -0.3528  0.0725
 1753TIP3    H126674   1.696   5.452  16.477 -0.4870 -1.6585  0.9958
 1753TIP3    H226675   1.822   5.374  16.510  0.1936 -1.2119 -0.4560
 1754TIP3   OH226676   2.941   3.672  12.404  0.3944 -0.1979 -0.5389
 1754TIP3    H126677   3.012   3.733  12.424 -0.0171 -0.1059  0.7423
 1754TIP3    H226678   2.931   3.621  12.484  0.2016 -1.4248 -1.3234
 1755TIP3   OH226679   6.701   5.978   4.668 -0.2435 -0.4095  0.3151
 1755TIP3    H126680   6.710   5.941   4.756 -0.8703  0.0582  0.5829
 1755TIP3    H226681   6.770   6.044   4.664 -0.2840 -0.3547  0.4945
 1756TIP3   OH226682   3.406   6.474  12.882 -0.5498 -0.6737 -0.2602
 1756TIP3    H126683   3.417   6.513  12.795 -1.5233  0.0073 -0.0878
 1756TIP3    H226684   3.359   6.393  12.865 -0.6413 -0.5965 -0.3765
 1757TIP3   OH226685   0.509   1.830  15.919 -1.3154 -0.2192 -0.2429
 1757TIP3    H126686   0.456   1.899  15.958 -1.8420  0.1900 -1.5983
 1757TIP3    H226687   0.552   1.872  15.844  0.6332 -0.6528  0.5622
 1758TIP3   OH226688   3.464   4.703   1.201 -0.1937  0.2330  0.4548
 1758TIP3    H126689   3.541   4.753   1.174 -0.2096  1.2778  2.2282
 1758TIP3    H226690   3.393   4.766   1.202 -1.1804 -0.7660 -1.3503
 1759TIP3   OH226691   4.533   3.597  10.643 -0.3730 -0.0051  0.1484
 1759TIP3    H126692   4.445   3.596  10.682 -0.8611 -1.7125 -0.9167
 1759TIP3    H226693   4.567   3.509  10.658  0.2378 -0.0666 -1.4462
 1760TIP3   OH226694   4.313   4.930   3.195 -0.2072  0.1222 -0.0496
 1760TIP3    H126695   4.277   4.946   3.282  0.2867  0.5176  0.0866
 1760TIP3    H226696   4.238   4.935   3.137 -0.9555 -2.3052  0.5605
 1761TIP3   OH226697   4.663   4.775   1.619 -0.3385  0.0068 -0.0029
 1761TIP3    H126698   4.704   4.849   1.574  2.5142 -1.4489 -0.0151
 1761TIP3    H226699   4.628   4.720   1.549 -1.3826  0.7042 -0.0524
 1762TIP3   OH226700   4.878   3.659  13.435  0.5630 -0.3629  0.3873
 1762TIP3    H126701   4.845   3.658  13.525  0.7585 -1.1160  0.4532
 1762TIP3    H226702   4.930   3.580  13.427 -1.3025 -1.5433 -1.0724
 1763TIP3   OH226703   5.764   4.104  14.998 -0.2295  0.1651  0.1495
 1763TIP3    H126704   5.757   4.058  15.082 -1.9945  0.1886  0.0459
 1763TIP3    H226705   5.695   4.066  14.944  0.7391  0.3211 -1.2278
 1764TIP3   OH226706   5.443   0.665  14.264  0.2315  0.4364  0.0412
 1764TIP3    H126707   5.506   0.722  14.219  1.0244 -1.1464 -0.9224
 1764TIP3    H226708   5.432   0.590  14.206 -0.8333 -0.3842  1.2456
 1765TIP3   OH226709   5.312   3.370   0.763 -0.0315  0.3149 -0.1550
 1765TIP3    H126710   5.239   3.390   0.822  0.3454 -1.5454  1.0385
 1765TIP3    H226711   5.271   3.352   0.679 -0.7096  1.6690 -0.1389
 1766TIP3   OH226712   0.617   3.630  13.548  0.1592 -0.1796  0.0171
 1766TIP3    H126713   0.595   3.542  13.517 -1.5054  0.4533 -0.6992
 1766TIP3    H226714   0.594   3.688  13.476 -0.8303  1.0490  1.2509
 1767TIP3   OH226715   3.858   4.166  11.975 -0.0139 -0.3689  0.4319
 1767TIP3    H126716   3.902   4.127  12.051  1.1065 -0.3742 -0.2081
 1767TIP3    H226717   3.919   4.233  11.944  0.1109 -1.2013 -1.2167
 1768TIP3   OH226718   1.278   3.859   1.837 -0.0074  0.3607 -0.4713
 1768TIP3    H126719   1.354   3.902   1.875 -0.2360  1.0419 -0.7621
 1768TIP3    H226720   1.240   3.809   1.909  0.4119  0.4406 -0.1917
 1769TIP3   OH226721   6.139   6.387  13.539 -0.0355 -0.3506 -0.4445
 1769TIP3    H126722   6.048   6.414  13.544  0.1078  0.0263  0.3377
 1769TIP3    H226723   6.149   6.323  13.610 -0.3806 -2.5605 -2.2667
 1770TIP3   OH226724   0.454   1.592  16.079 -0.2217 -0.2107 -0.7178
 1770TIP3    H126725   0.390   1.640  16.132  0.0407  0.4319 -0.9646
 1770TIP3    H226726   0.485   1.657  16.016  2.2692  0.1611  0.7517
 1771TIP3   OH226727   6.387   5.381   5.752 -0.3391 -0.1987 -0.9905
 1771TIP3    H126728   6.437   5.453   5.791  1.4313  0.0492 -3.4846
 1771TIP3    H226729   6.332   5.423   5.686 -0.9249 -0.9127 -0.9710
 1772TIP3   OH226730   3.885   4.579  16.216 -0.1115  0.0993  0.1141
 1772TIP3    H126731   3.927   4.495  16.195  0.5530  0.4008  0.1962
 1772TIP3    H226732   3.792   4.563  16.203  0.1662  0.0043 -2.1743
 1773TIP3   OH226733   0.575   6.168  12.801 -0.1775 -0.1946  0.1839
 1773TIP3    H126734   0.612   6.240  12.852 -2.2977  0.9252  0.2347
 1773TIP3    H226735   0.553   6.207  12.717 -3.0095 -0.2378  0.8093
 1774TIP3   OH226736   5.489   1.405  12.297  0.3500  0.2305  0.5525
 1774TIP3    H126737   5.520   1.338  12.237 -0.4393  0.1116  0.2665
 1774TIP3    H226738   5.561   1.417  12.359 -0.0317 -1.9364  1.4951
 1775TIP3   OH226739   6.251   1.003   5.229  0.7960 -0.2622  0.4854
 1775TIP3    H126740   6.311   1.053   5.284  0.9820 -1.6697  1.6005
 1775TIP3    H226741   6.164   1.028   5.260  0.8938 -0.8240  1.2190
 1776TIP3   OH226742   1.986   4.870  14.538  0.1176 -0.5397  0.5026
 1776TIP3    H126743   1.990   4.954  14.584  0.4244 -0.5173  0.4367
 1776TIP3    H226744   2.004   4.892  14.446  1.0470 -0.7823  0.6151
 1777TIP3   OH226745   3.508   0.158  11.495 -0.1410  0.1845 -0.3420
 1777TIP3    H126746   3.481   0.245  11.526 -0.1179  0.4708 -1.1134
 1777TIP3    H226747   3.528   0.110  11.576  3.1259  1.9130  0.0814
 1778TIP3   OH226748   5.672   2.283  13.458 -0.0090 -0.1368  0.1759
 1778TIP3    H126749   5.602   2.345  13.479  0.1145 -0.6518  2.3726
 1778TIP3    H226750   5.753   2.334  13.468  0.0064  0.3750 -2.0574
 1779TIP3   OH226751   3.713   0.164  16.916 -0.3753 -0.1669 -0.6345
 1779TIP3    H126752   3.686   0.141  17.005  0.0841  2.2546  0.2022
 1779TIP3    H226753   3.797   0.120  16.903  0.4351  0.8646  0.8555
 1780TIP3   OH226754   6.208   1.854  14.507  0.2460 -0.0412  0.1477
 1780TIP3    H126755   6.142   1.916  14.478  0.1455  0.8752  2.1408
 1780TIP3    H226756   6.206   1.783  14.442 -1.0820  1.0458 -1.0440
 1781TIP3   OH226757   3.395   4.673   3.154  0.3019 -0.3839 -0.1853
 1781TIP3    H126758   3.375   4.656   3.062  0.1198 -1.2320  0.0012
 1781TIP3    H226759   3.316   4.645   3.201  1.3274 -2.4344  0.4448
 1782TIP3   OH226760   1.585   1.912   0.035 -0.4518  0.0846 -0.6824
 1782TIP3    H126761   1.564   2.000   0.064 -1.2086  0.2369 -1.6136
 1782TIP3    H226762   1.521   1.856   0.079 -0.2182  0.0477 -0.3895
 1783TIP3   OH226763   3.099   1.401   6.234 -0.1223  0.1079 -0.2962
 1783TIP3    H126764   3.193   1.382   6.231  0.0550  0.3992  1.9962
 1783TIP3    H226765   3.057   1.317   6.213  0.6066  0.0997 -1.8797
 1784TIP3   OH226766   6.620   1.910   5.253 -0.0130  0.0669  0.0292
 1784TIP3    H126767   6.665   1.975   5.199 -1.6066  0.4947 -0.8563
 1784TIP3    H226768   6.677   1.897   5.329  0.0442  2.9973  0.5787
 1785TIP3   OH226769   6.301   1.576  11.122  0.0121 -0.0494 -0.1651
 1785TIP3    H126770   6.282   1.602  11.032  0.1477 -1.0864 -0.5087
 1785TIP3    H226771   6.284   1.655  11.174  1.3299  1.0086 -1.2513
 1786TIP3   OH226772   4.259   3.599  15.673 -1.1692  0.0573 -0.3658
 1786TIP3    H126773   4.328   3.537  15.649  1.3990  2.3034  0.7547
 1786TIP3    H226774   4.249   3.588  15.767  0.0484  1.9435  0.0281
 1787TIP3   OH226775   4.759   3.635  13.717 -0.2146  0.4755  0.2568
 1787TIP3    H126776   4.765   3.543  13.691  0.9069 -0.4339  3.2772
 1787TIP3    H226777   4.682   3.669  13.671 -0.0132 -1.6285 -1.7907
 1788TIP3   OH226778   4.228   2.921   0.560 -0.5441 -0.0570 -0.0970
 1788TIP3    H126779   4.193   2.868   0.631  0.9247  0.9140  1.4270
 1788TIP3    H226780   4.288   2.863   0.513  0.9657  0.1313  1.4903
 1789TIP3   OH226781   6.435   5.967  12.133  0.1080 -0.0768  0.6186
 1789TIP3    H126782   6.487   5.900  12.088  0.9426  2.1031 -1.8346
 1789TIP3    H226783   6.500   6.020  12.179 -0.1657  1.0710 -0.2854
 1790TIP3   OH226784   0.283   5.505  13.297 -0.0439  0.3218  0.1256
 1790TIP3    H126785   0.252   5.444  13.364 -0.7208  0.4368 -0.0763
 1790TIP3    H226786   0.314   5.581  13.347  1.1876 -0.3346  0.3984
 1791TIP3   OH226787   0.819   5.366  15.059  0.2282  0.1611  0.3881
 1791TIP3    H126788   0.901   5.409  15.083 -0.9393  1.0130  3.2331
 1791TIP3    H226789   0.781   5.423  14.992 -0.2433  2.5020  2.5058
 1792TIP3   OH226790   2.249   0.435   0.856  0.1929 -0.0898 -0.3080
 1792TIP3    H126791   2.282   0.346   0.872 -0.8295 -0.3382  0.5114
 1792TIP3    H226792   2.269   0.483   0.936 -0.7536 -0.0457 -0.0901
 1793TIP3   OH226793   2.579   1.720   1.075  0.5152 -0.2371  0.1947
 1793TIP3    H126794   2.609   1.715   1.166  0.4408 -2.1426  0.1517
 1793TIP3    H226795   2.569   1.814   1.059  2.5373  0.2775  1.4808
 1794TIP3   OH226796   5.689   5.825   0.537 -0.0250 -0.1765 -0.2135
 1794TIP3    H126797   5.704   5.745   0.487 -0.5830 -1.0541  0.9753
 1794TIP3    H226798   5.672   5.795   0.626  0.5521  1.3226  0.4356
 1795TIP3   OH226799   5.719   2.461  14.486  0.5523  0.4846  0.1202
 1795TIP3    H126800   5.635   2.421  14.507  0.5094  1.6853  2.6628
 1795TIP3    H226801   5.784   2.401  14.522  0.6335  0.9811  0.8199
 1796TIP3   OH226802   3.576   6.644  12.093  0.6992 -0.3448  0.6242
 1796TIP3    H126803   3.589   6.698  12.171 -0.0650  0.5735  0.1439
 1796TIP3    H226804   3.624   6.564  12.111  0.5496 -0.1490  2.0338
 1797TIP3   OH226805   6.165   1.558  15.984 -0.0701  0.3528 -0.3328
 1797TIP3    H126806   6.109   1.496  16.031 -0.0787  0.9473  0.4560
 1797TIP3    H226807   6.208   1.505  15.917  0.5381 -0.6951  0.8394
 1798TIP3   OH226808   5.735   2.049   5.480 -0.4176 -0.0119  0.0866
 1798TIP3    H126809   5.707   2.133   5.515 -1.0571  0.9133 -2.4673
 1798TIP3    H226810   5.653   2.001   5.464 -0.0424 -1.5207  2.2697
 1799TIP3   OH226811   2.099   2.297   1.958  0.6935  0.0137 -0.2796
 1799TIP3    H126812   2.048   2.228   1.999  1.1276 -1.1158 -1.5966
 1799TIP3    H226813   2.184   2.294   2.003  0.5712 -0.0206 -0.0508
 1800TIP3   OH226814   1.792   0.788  11.503 -0.0185 -0.5195 -0.3502
 1800TIP3    H126815   1.882   0.791  11.469  0.0758 -0.5300 -0.1080
 1800TIP3    H226816   1.775   0.878  11.532  0.7588 -0.9822  1.7318
 1801TIP3   OH226817   4.827   5.876   0.047 -0.4268 -0.3345 -0.8351
 1801TIP3    H126818   4.903   5.870  -0.012 -0.1974  2.3306 -0.9429
 1801TIP3    H226819   4.757   5.830   0.000  0.6952 -1.4681 -1.4609
 1802TIP3   OH226820   0.979   0.731   5.364 -0.5107 -0.2199  0.5615
 1802TIP3    H126821   0.989   0.636   5.358  0.4538 -0.2017  1.5447
 1802TIP3    H226822   0.958   0.759   5.275 -0.9736 -1.3710  0.2938
 1803TIP3   OH226823   4.541   5.225   3.962  0.0367  0.0361  0.2651
 1803TIP3    H126824   4.620   5.176   3.983 -0.0122  0.4445  1.4867
 1803TIP3    H226825   4.569   5.316   3.958 -0.1462  0.0678 -0.5596
 1804TIP3   OH226826   1.855   4.647  13.304  0.4148  0.3461  0.1548
 1804TIP3    H126827   1.775   4.626  13.256  0.6566 -0.7714  0.2202
 1804TIP3    H226828   1.853   4.743  13.313 -0.4437  0.4153 -0.6453
 1805TIP3   OH226829   6.468   5.996   4.335  0.1045  0.0244  0.7854
 1805TIP3    H126830   6.543   5.937   4.345  0.2661  0.1546  0.3615
 1805TIP3    H226831   6.456   6.003   4.241  0.9721  1.7674  0.7570
 1806TIP3   OH226832   5.333   3.863  12.680 -0.4941 -0.1075 -0.6150
 1806TIP3    H126833   5.389   3.788  12.662  1.0644  0.6230  0.9754
 1806TIP3    H226834   5.393   3.936  12.695 -1.9279  1.1571 -0.7452
 1807TIP3   OH226835   5.212   6.500  13.607 -0.2000 -0.6260 -0.0788
 1807TIP3    H126836   5.238   6.412  13.578  1.9664 -0.6803  1.8148
 1807TIP3    H226837   5.149   6.484  13.677 -1.1082 -0.6058 -0.8754
 1808TIP3   OH226838   4.699   5.854   3.397  0.2052 -0.3962 -0.2694
 1808TIP3    H126839   4.725   5.939   3.362  0.4600 -0.0966  0.6164
 1808TIP3    H226840   4.769   5.795   3.370 -0.0710 -0.3790 -1.0598
 1809TIP3   OH226841   5.868   4.303   3.797  0.6276  0.3123 -0.2868
 1809TIP3    H126842   5.889   4.316   3.705 -1.8680  0.9444 -0.8577
 1809TIP3    H226843   5.789   4.355   3.811  0.3624 -0.5735  1.9569
 1810TIP3   OH226844   6.170   5.824  16.144 -0.1106  0.2790  0.4872
 1810TIP3    H126845   6.110   5.848  16.214 -0.8278  0.5874 -0.2163
 1810TIP3    H226846   6.145   5.735  16.120  0.1852  0.1445  0.6669
 1811TIP3   OH226847   2.049   3.451  14.183  0.6716  0.8048  0.1365
 1811TIP3    H126848   2.028   3.387  14.251  1.0980  0.7556  0.2232
 1811TIP3    H226849   2.061   3.399  14.103  0.6746  0.8143  0.1304
 1812TIP3   OH226850   2.560   6.214   5.996  0.0775  0.1959 -0.2266
 1812TIP3    H126851   2.578   6.127   6.030  0.7215  1.0179  1.6961
 1812TIP3    H226852   2.465   6.220   5.994 -0.0125  0.2079  1.8672
 1813TIP3   OH226853   4.093   6.340   1.338  1.1581 -0.3776  0.0473
 1813TIP3    H126854   4.091   6.272   1.405 -0.1753 -2.1532 -1.6874
 1813TIP3    H226855   4.033   6.407   1.371  1.3246 -0.7076  1.0824
 1814TIP3   OH226856   0.989   0.468   1.018  1.3483  0.4945 -0.3551
 1814TIP3    H126857   1.073   0.456   0.973  0.6011 -1.8075 -1.3044
 1814TIP3    H226858   0.932   0.506   0.952  0.8885 -0.6735 -0.6510
 1815TIP3   OH226859   3.415   1.767   4.351 -0.4141 -0.1579 -0.8523
 1815TIP3    H126860   3.348   1.778   4.283  0.3350  0.5012 -1.5059
 1815TIP3    H226861   3.497   1.757   4.303  0.2038  0.8038 -0.0497
 1816TIP3   OH226862   2.733   4.693   6.775  0.2295  0.4333 -0.0024
 1816TIP3    H126863   2.733   4.625   6.843  1.6706 -0.9371 -1.2890
 1816TIP3    H226864   2.811   4.745   6.794  1.3127 -0.6831 -1.2472
 1817TIP3   OH226865   1.097   3.197  10.930  0.3685 -0.2709 -0.1561
 1817TIP3    H126866   1.059   3.144  10.859  1.9492 -0.3666 -0.9770
 1817TIP3    H226867   1.031   3.264  10.947 -0.7257 -1.1865 -0.6148
 1818TIP3   OH226868   4.921   2.560   5.860  0.1295 -0.3013  0.2104
 1818TIP3    H126869   4.853   2.625   5.879 -1.5120 -1.5440 -1.1244
 1818TIP3    H226870   4.960   2.591   5.778  1.0204  0.2547  0.8255
 1819TIP3   OH226871   2.313   1.520   4.570  0.1225 -0.3205 -0.3555
 1819TIP3    H126872   2.301   1.596   4.627  0.3382  1.0725 -2.0921
 1819TIP3    H226873   2.408   1.508   4.567  0.0957 -0.5863 -0.2010
 1820TIP3   OH226874   5.000   5.395   5.007  0.1392  0.5577  0.2228
 1820TIP3    H126875   5.046   5.319   4.971  0.6800  0.4267  1.1759
 1820TIP3    H226876   4.909   5.383   4.979  0.2468 -0.3653  0.2375
 1821TIP3   OH226877   4.002   4.084  12.220 -0.0626  0.0803  0.9642
 1821TIP3    H126878   4.028   4.176  12.212 -2.9156  1.0754  1.8436
 1821TIP3    H226879   4.053   4.051  12.295  1.7149  0.5979  0.0403
 1822TIP3   OH226880   4.187   2.581   4.700  0.6227  0.5400 -0.5845
 1822TIP3    H126881   4.272   2.559   4.739 -0.0891 -4.3005 -1.0884
 1822TIP3    H226882   4.127   2.585   4.774  0.6130 -0.6330 -0.5038
 1823TIP3   OH226883   3.057   6.639   4.098 -0.4756 -0.1940 -0.1955
 1823TIP3    H126884   3.106   6.638   4.180 -1.2983 -1.2588  0.3124
 1823TIP3    H226885   2.965   6.640   4.126 -0.7742  0.8613 -1.1230
 1824TIP3   OH226886   0.016   0.616  12.565  0.1816 -0.0073 -1.1319
 1824TIP3    H126887   0.001   0.691  12.622 -1.6168 -0.9070 -0.3404
 1824TIP3    H226888   0.104   0.630  12.530  1.9342  0.0771  2.7419
 1825TIP3   OH226889   6.293   1.328  15.838 -0.8010  0.3985 -0.3821
 1825TIP3    H126890   6.382   1.359  15.855 -1.0435  0.8225  0.1498
 1825TIP3    H226891   6.289   1.318  15.743 -0.6851  1.9481 -0.5784
 1826TIP3   OH226892   1.911   1.719  14.238  0.3382  0.7240 -0.0180
 1826TIP3    H126893   1.818   1.699  14.223  0.5705  0.1257 -0.7101
 1826TIP3    H226894   1.949   1.637  14.270  1.3515 -0.1421 -3.1323
 1827TIP3   OH226895   2.370   5.624   4.596  0.3387  0.6165  0.1328
 1827TIP3    H126896   2.325   5.705   4.620  0.3924  0.7802 -0.3047
 1827TIP3    H226897   2.331   5.598   4.513  1.0402  0.7653 -0.2596
 1828TIP3   OH226898   0.995   3.101  12.423  0.8474 -0.5850 -0.3569
 1828TIP3    H126899   1.058   3.131  12.489 -0.2096  0.3561  0.2667
 1828TIP3    H226900   1.043   3.104  12.341  1.4536  0.6646  0.0230
 1829TIP3   OH226901   3.905   0.091  14.984  0.0525  0.0499  0.3544
 1829TIP3    H126902   3.922   0.156  15.051 -1.0662  0.9105 -0.1692
 1829TIP3    H226903   3.986   0.041  14.978  0.3677  0.3239  1.9241
 1830TIP3   OH226904   2.095   3.882   5.922  0.1874 -0.4158  0.2093
 1830TIP3    H126905   2.093   3.866   5.827  1.7649 -1.8806  0.3726
 1830TIP3    H226906   2.004   3.901   5.945 -0.3484 -0.7365 -1.4802
 1831TIP3   OH226907   0.278   3.664  12.715 -0.1443  0.2323  0.3471
 1831TIP3    H126908   0.192   3.627  12.732  0.3911 -1.6596 -0.7250
 1831TIP3    H226909   0.261   3.755  12.689 -1.8390 -0.1845 -0.1422
 1832TIP3   OH226910   6.705   5.723   3.360 -0.2942  0.1452  0.5980
 1832TIP3    H126911   6.725   5.634   3.389 -0.0828 -0.4618 -1.2527
 1832TIP3    H226912   6.783   5.774   3.383 -0.2955 -0.1918  1.3954
 1833TIP3   OH226913   6.201   1.592   0.609 -0.0419 -0.1202 -0.0781
 1833TIP3    H126914   6.279   1.597   0.554 -0.7511 -0.1522 -1.1205
 1833TIP3    H226915   6.138   1.541   0.558 -0.1646 -1.6458  1.4943
 1834TIP3   OH226916   6.356   1.676   5.208  0.3888 -0.0195 -0.0156
 1834TIP3    H126917   6.300   1.714   5.276  0.2997 -1.3028  0.6607
 1834TIP3    H226918   6.334   1.725   5.129  1.5416  2.5328  1.1120
 1835TIP3   OH226919   0.134   4.997  14.013 -0.3573 -0.2050 -0.2371
 1835TIP3    H126920   0.175   4.975  14.096  1.1417  0.2837 -0.8048
 1835TIP3    H226921   0.192   4.960  13.947 -2.6585 -2.5265 -1.1099
 1836TIP3   OH226922   0.129   1.945  16.168 -0.4407  0.1806 -0.3411
 1836TIP3    H126923   0.044   1.948  16.214  0.4787 -3.1655  1.9612
 1836TIP3    H226924   0.107   1.918  16.079 -1.8215 -2.3221  0.6521
 1837TIP3   OH226925   2.369   5.568  16.432  0.0927  0.0972 -0.0027
 1837TIP3    H126926   2.418   5.582  16.513  1.1140 -2.6399 -0.0385
 1837TIP3    H226927   2.381   5.649  16.383  0.8997  1.1686  1.8377
 1838TIP3   OH226928   0.851   5.365   0.560 -0.2728  0.4559  0.4840
 1838TIP3    H126929   0.762   5.343   0.535  0.4110 -1.5836 -0.2911
 1838TIP3    H226930   0.841   5.438   0.622 -2.2945  2.0452 -1.5454
 1839TIP3   OH226931   4.420   5.876   2.559  0.1521  0.2883 -0.2282
 1839TIP3    H126932   4.481   5.912   2.495 -0.5448 -1.2975 -1.8694
 1839TIP3    H226933   4.467   5.803   2.600 -0.2925 -0.3307 -0.8069
 1840TIP3   OH226934   1.372   6.396  14.120  0.0134  0.2640 -0.0809
 1840TIP3    H126935   1.312   6.405  14.194 -0.2818 -1.9117 -0.0039
 1840TIP3    H226936   1.348   6.313  14.079 -0.4624  1.8044 -3.2251
 1841TIP3   OH226937   1.828   4.534  12.267 -0.1464  0.7433 -0.2212
 1841TIP3    H126938   1.808   4.459  12.323  0.0261  0.8665  0.0119
 1841TIP3    H226939   1.782   4.517  12.185 -0.4094  0.5621 -0.0383
 1842TIP3   OH226940   5.361   1.652  12.232  0.6809 -0.3491 -0.3980
 1842TIP3    H126941   5.406   1.569  12.242  0.7330 -0.5570 -1.9995
 1842TIP3    H226942   5.420   1.705  12.178 -0.9646 -0.6799 -2.6687
 1843TIP3   OH226943   1.411   3.599  15.672  0.2757 -0.2098 -0.1312
 1843TIP3    H126944   1.316   3.597  15.685  0.2382 -3.0353 -0.1957
 1843TIP3    H226945   1.423   3.594  15.578  0.5359  1.4642 -0.2137
 1844TIP3   OH226946   4.171   3.326   1.945  0.1472  0.2051  0.0645
 1844TIP3    H126947   4.126   3.274   1.878 -0.4118 -0.5103  0.9843
 1844TIP3    H226948   4.252   3.279   1.961 -0.3986 -0.4383  0.9607
 1845TIP3   OH226949   2.426   6.445   0.731 -0.0437 -0.2934  0.1452
 1845TIP3    H126950   2.403   6.537   0.723  1.8562  0.1902 -0.0627
 1845TIP3    H226951   2.375   6.414   0.807  1.3470  1.6610  2.0034
 1846TIP3   OH226952   1.779   2.475  15.973 -0.1439  0.3298  0.1040
 1846TIP3    H126953   1.848   2.506  16.032 -0.7807 -0.8478  1.5481
 1846TIP3    H226954   1.825   2.448  15.894  0.9032  0.6684  0.5784
 1847TIP3   OH226955   2.194   2.352   2.444  0.3368  0.0497 -0.3982
 1847TIP3    H126956   2.179   2.425   2.505 -1.5830 -1.8704  1.6300
 1847TIP3    H226957   2.289   2.343   2.439  0.6743  3.1380 -1.3847
 1848TIP3   OH226958   1.077   0.778   0.246  0.6914 -0.0010 -0.2223
 1848TIP3    H126959   1.046   0.844   0.308  0.9625  0.5488 -0.6690
 1848TIP3    H226960   1.171   0.772   0.261  0.5984 -0.6290  0.1392
 1849TIP3   OH226961   5.199   0.123   5.678  0.5103 -0.0154  0.3962
 1849TIP3    H126962   5.113   0.162   5.689  1.0201  0.7754  1.9164
 1849TIP3    H226963   5.199   0.049   5.739  0.4687 -0.8353 -0.5654
 1850TIP3   OH226964   3.217   6.581   5.161  0.0328  0.1773  0.1859
 1850TIP3    H126965   3.263   6.564   5.242 -1.0121 -0.5530  0.6479
 1850TIP3    H226966   3.252   6.517   5.099 -1.1930 -1.2130  0.8756
 1851TIP3   OH226967   0.902   6.445   1.638  0.3622  0.2713  0.1669
 1851TIP3    H126968   0.986   6.406   1.614  0.6952  1.9698 -1.5989
 1851TIP3    H226969   0.911   6.464   1.731  0.6154 -2.6351  0.8511
 1852TIP3   OH226970   4.717   3.416  14.834 -0.0655  0.6261 -0.6569
 1852TIP3    H126971   4.762   3.484  14.884  0.3031  0.4846 -0.7914
 1852TIP3    H226972   4.778   3.394  14.763  0.5914 -1.0546  0.3622
 1853TIP3   OH226973   2.106   2.804  11.923  0.0081  0.1692 -0.0312
 1853TIP3    H126974   2.067   2.880  11.966 -0.5356 -0.4155  0.5412
 1853TIP3    H226975   2.135   2.837  11.838 -0.0040  1.0663  0.3026
 1854TIP3   OH226976   2.091   5.368   4.270  0.2047  1.1032  0.3141
 1854TIP3    H126977   2.127   5.365   4.181  0.8996 -0.3799  0.6147
 1854TIP3    H226978   1.997   5.377   4.258  0.1398 -0.5417 -0.6223
 1855TIP3   OH226979   5.786   3.447  10.752 -0.3024  0.5702 -0.0757
 1855TIP3    H126980   5.787   3.355  10.725 -2.3482  1.1882 -2.7691
 1855TIP3    H226981   5.694   3.464  10.774 -0.1139  2.1388 -0.4285
 1856TIP3   OH226982   2.040   5.290  11.650 -0.2818  0.2274 -0.6007
 1856TIP3    H126983   1.962   5.333  11.613 -0.1859  0.1524 -0.8911
 1856TIP3    H226984   2.008   5.204  11.677 -0.0643 -0.2125 -1.7060
 1857TIP3   OH226985   0.671   1.087  16.377 -0.5285 -0.2917  0.3169
 1857TIP3    H126986   0.660   1.056  16.467 -1.7184  0.3762  0.4107
 1857TIP3    H226987   0.623   1.023  16.324 -0.4457 -0.2745  0.2223
 1858TIP3   OH226988   3.513   0.678   2.857 -0.0555 -0.4471  0.0896
 1858TIP3    H126989   3.519   0.621   2.933  1.6471  0.7744  0.9055
 1858TIP3    H226990   3.601   0.712   2.844 -0.5011  0.0977 -1.8759
 1859TIP3   OH226991   4.752   0.170   5.204  0.5462  0.1376  0.2369
 1859TIP3    H126992   4.691   0.181   5.277 -0.1647  1.7957 -0.5327
 1859TIP3    H226993   4.838   0.191   5.240  0.1711  1.1564  0.5817
 1860TIP3   OH226994   0.699   3.117   6.351  0.1185  0.1153  1.1294
 1860TIP3    H126995   0.621   3.095   6.401  0.0007  1.2924  1.4817
 1860TIP3    H226996   0.771   3.074   6.397 -0.4287 -2.0908  0.0679
 1861TIP3   OH226997   0.394   4.621  11.490  0.6483 -0.1628 -0.3986
 1861TIP3    H126998   0.475   4.578  11.462  1.6253  1.1293  0.3808
 1861TIP3    H226999   0.419   4.672  11.567 -0.5378  1.5696 -1.1185
 1862TIP3   OH227000   0.087   0.538   1.366 -0.3811  0.2827  0.0668
 1862TIP3    H127001   0.143   0.560   1.291 -1.5938 -1.5014 -1.4468
 1862TIP3    H227002   0.041   0.620   1.386 -1.0543  0.4915 -2.0698
 1863TIP3   OH227003   2.133   6.785  13.985 -0.2204 -0.1905  0.4065
 1863TIP3    H127004   2.116   6.879  13.971 -2.2292 -0.6505 -0.6288
 1863TIP3    H227005   2.058   6.754  14.036 -0.1330 -1.4326 -0.1790
 1864TIP3   OH227006   5.652   2.708  14.400 -0.2718 -0.0260 -0.3291
 1864TIP3    H127007   5.676   2.616  14.396  2.5728  0.6598 -2.2185
 1864TIP3    H227008   5.660   2.731  14.492 -0.6447 -1.5600  0.1096
 1865TIP3   OH227009   4.287   4.062  15.906  0.4997  0.6173 -0.7002
 1865TIP3    H127010   4.200   4.061  15.946  0.6248 -0.5158 -0.4432
 1865TIP3    H227011   4.285   4.138  15.848 -0.5285  0.8314 -0.4109
 1866TIP3   OH227012   3.681   0.480   5.156  0.4390  0.3407 -0.0013
 1866TIP3    H127013   3.594   0.439   5.160  0.8483 -0.6354 -0.7488
 1866TIP3    H227014   3.679   0.533   5.076 -0.2594  2.2424  1.2187
 1867TIP3   OH227015   3.359   4.363   3.857 -0.4936 -0.0020 -0.1470
 1867TIP3    H127016   3.282   4.308   3.874 -0.9817  0.8714  0.6341
 1867TIP3    H227017   3.401   4.371   3.942  0.1285  0.0229 -0.4546
 1868TIP3   OH227018   3.240   3.530   6.083  0.0964  0.0961 -0.0996
 1868TIP3    H127019   3.280   3.516   6.169  0.6213  3.7555  0.3999
 1868TIP3    H227020   3.175   3.599   6.097 -2.6284 -1.8620 -1.9939
 1869TIP3   OH227021   5.981   4.561   0.864 -0.0863  0.0349  0.2351
 1869TIP3    H127022   5.964   4.578   0.957 -0.7307 -0.2411  0.1774
 1869TIP3    H227023   5.897   4.577   0.821 -0.0573 -0.8151 -0.1607
 1870TIP3   OH227024   0.189   5.979   3.214  0.1687  0.0629  0.0939
 1870TIP3    H127025   0.273   5.941   3.187 -0.2172 -0.3033 -0.6081
 1870TIP3    H227026   0.211   6.068   3.244  0.5213  0.8436 -2.2834
 1871TIP3   OH227027   4.435   4.326   4.531  0.7368  0.5199 -0.0198
 1871TIP3    H127028   4.473   4.310   4.617  0.5952  0.2528 -0.0062
 1871TIP3    H227029   4.508   4.317   4.470  0.6123 -0.4658 -0.0407
 1872TIP3   OH227030   2.565   1.808   1.536 -0.1030 -0.2346  0.4199
 1872TIP3    H127031   2.481   1.767   1.560  0.3638 -0.6325  1.4240
 1872TIP3    H227032   2.569   1.888   1.588 -0.2357  0.2398 -0.2760
 1873TIP3   OH227033   1.706   4.339  12.541 -0.3881 -0.0448 -0.2178
 1873TIP3    H127034   1.766   4.372  12.608 -0.1485  1.9282 -1.3565
 1873TIP3    H227035   1.763   4.305  12.472 -0.6379 -1.7424  0.3521
 1874TIP3   OH227036   1.766   1.541   2.162 -0.7302 -0.6463 -0.1942
 1874TIP3    H127037   1.762   1.458   2.209 -1.4259 -0.4123  0.1689
 1874TIP3    H227038   1.849   1.580   2.189 -0.1241 -1.4775 -0.8105
 1875TIP3   OH227039   3.250   2.896  13.350 -0.9165  0.5142 -0.1492
 1875TIP3    H127040   3.283   2.820  13.398 -1.1723 -0.0856 -0.9028
 1875TIP3    H227041   3.276   2.972  13.403  0.2586 -0.0331  0.0753
 1876TIP3   OH227042   4.797   2.741  16.614  0.2832 -0.4605 -0.0634
 1876TIP3    H127043   4.771   2.747  16.706  0.1486 -0.4968 -0.0984
 1876TIP3    H227044   4.761   2.820  16.574  1.6275  0.3268  0.2243
 1877TIP3   OH227045   0.925   3.799  11.281  0.1851  0.2429  0.2160
 1877TIP3    H127046   0.998   3.738  11.287  1.3108  1.3569 -1.4272
 1877TIP3    H227047   0.848   3.747  11.307  0.9862 -2.0247 -1.5897
 1878TIP3   OH227048   0.623   6.281  10.370  0.0825 -0.3974  0.0625
 1878TIP3    H127049   0.588   6.367  10.348 -1.1129 -0.9349 -0.1836
 1878TIP3    H227050   0.560   6.219  10.334  1.0630 -1.3907  0.0112
 1879TIP3   OH227051   6.015   1.139  16.161  0.1483 -0.0190 -0.5069
 1879TIP3    H127052   6.010   1.230  16.191 -1.1423  0.2775 -1.5409
 1879TIP3    H227053   6.070   1.143  16.083  2.4654 -0.6047  0.9846
 1880TIP3   OH227054   2.851   0.746  16.111  0.2526 -0.4424  0.0147
 1880TIP3    H127055   2.840   0.696  16.030 -1.4217  0.2734 -0.2445
 1880TIP3    H227056   2.783   0.712  16.169  0.9090 -0.3809  0.8358
 1881TIP3   OH227057   2.780   2.577   5.189  0.3256  0.1708  0.4214
 1881TIP3    H127058   2.768   2.488   5.155 -1.9951  1.1959 -1.8064
 1881TIP3    H227059   2.801   2.565   5.281 -1.1816 -2.6620  0.5059
 1882TIP3   OH227060   0.444   0.496  16.214 -0.2334 -0.4594 -0.0126
 1882TIP3    H127061   0.496   0.509  16.293 -1.5957 -1.2857  1.0664
 1882TIP3    H227062   0.371   0.557  16.224  0.3639  0.5144 -1.3851
 1883TIP3   OH227063   6.257   6.301   0.924 -0.6271 -0.4650 -0.8542
 1883TIP3    H127064   6.214   6.346   0.851 -3.2946  1.1493  1.5448
 1883TIP3    H227065   6.324   6.362   0.954 -1.2366 -0.0270 -0.3807
 1884TIP3   OH227066   5.810   0.799   3.747  0.1071 -0.2387 -0.3479
 1884TIP3    H127067   5.772   0.713   3.732 -0.0886  0.0166 -1.3854
 1884TIP3    H227068   5.889   0.782   3.799  0.1031 -1.0449 -0.5944
 1885TIP3   OH227069   6.756   6.372  14.457 -0.3230  0.6053  0.3320
 1885TIP3    H127070   6.681   6.316  14.477 -0.1219 -0.4769 -1.7114
 1885TIP3    H227071   6.740   6.404  14.369  0.8228  1.7190  0.5049
 1886TIP3   OH227072   4.390   5.035   1.095 -0.1951  0.1075 -0.3119
 1886TIP3    H127073   4.297   5.020   1.114 -0.0310  0.8075  1.1321
 1886TIP3    H227074   4.402   5.129   1.104  0.1289  0.4176 -3.1026
 1887TIP3   OH227075   4.477   3.169   6.131 -0.5092  0.5105  0.7611
 1887TIP3    H127076   4.425   3.187   6.209  0.8031 -1.2291  2.1321
 1887TIP3    H227077   4.556   3.223   6.142  0.1702 -0.5508  1.2258
 1888TIP3   OH227078   2.782   6.573   0.124  0.3590  0.1504 -0.2434
 1888TIP3    H127079   2.819   6.505   0.180 -0.1362  0.0650 -0.0237
 1888TIP3    H227080   2.854   6.596   0.065  0.4906 -0.6498 -0.4073
 1889TIP3   OH227081   3.291   4.944   0.394  0.1566 -0.0112 -0.1618
 1889TIP3    H127082   3.364   4.910   0.447 -0.0125  0.1152  0.1547
 1889TIP3    H227083   3.327   4.951   0.306  0.1074 -1.2910 -0.2961
 1890TIP3   OH227084   1.740   0.752  11.939  0.4435 -0.0146  0.5372
 1890TIP3    H127085   1.788   0.824  11.897 -0.9804  0.6774  0.0274
 1890TIP3    H227086   1.703   0.702  11.866  2.9089 -2.4422  0.7805
 1891TIP3   OH227087   2.981   2.794  14.923  0.5163 -0.1954 -0.0788
 1891TIP3    H127088   3.062   2.764  14.884  0.2161 -0.5352 -0.4426
 1891TIP3    H227089   2.920   2.721  14.912  0.8036 -0.8980  2.2803
 1892TIP3   OH227090   5.513   5.265   2.472  0.3505  0.4734  0.6450
 1892TIP3    H127091   5.583   5.204   2.496 -1.1062 -0.8125  1.8480
 1892TIP3    H227092   5.468   5.223   2.399 -0.2078  0.4582  0.9925
 1893TIP3   OH227093   1.909   1.253   1.745  0.2747  0.2496  0.4917
 1893TIP3    H127094   1.869   1.333   1.778  1.2794  0.7430  0.5816
 1893TIP3    H227095   1.837   1.204   1.705 -0.3132  1.3371  0.1747
 1894TIP3   OH227096   6.641   3.280  15.765 -0.6038 -0.2379  0.2343
 1894TIP3    H127097   6.549   3.291  15.745 -0.6561 -1.8570 -0.5767
 1894TIP3    H227098   6.643   3.251  15.856 -0.8705 -0.0768  0.2914
 1895TIP3   OH227099   5.273   2.603  12.913  0.2014 -0.2257 -0.4768
 1895TIP3    H127100   5.260   2.661  12.988  1.5210 -0.4059 -0.0829
 1895TIP3    H227101   5.222   2.525  12.934  0.9010 -0.4501  0.4431
 1896TIP3   OH227102   0.532   4.292  12.567  0.6432  0.1993 -0.6676
 1896TIP3    H127103   0.437   4.301  12.578  0.7263  1.4138 -0.7188
 1896TIP3    H227104   0.551   4.343  12.488  1.2005 -0.9684 -1.3097
 1897TIP3   OH227105   1.311   6.168  15.200 -0.5146 -0.0822 -0.0490
 1897TIP3    H127106   1.378   6.103  15.179 -1.7398 -1.6203  0.5861
 1897TIP3    H227107   1.351   6.221  15.270 -0.2295 -1.5064  0.9193
 1898TIP3   OH227108   3.819   1.651  12.109  0.3119  0.1754 -0.3402
 1898TIP3    H127109   3.771   1.584  12.157  2.2113 -0.1757  1.1811
 1898TIP3    H227110   3.894   1.606  12.072  0.6744  1.1261 -0.8104
 1899TIP3   OH227111   1.794   4.229   3.539 -1.1115 -0.4910 -0.1088
 1899TIP3    H127112   1.795   4.151   3.483  1.4598 -1.4857  1.1825
 1899TIP3    H227113   1.732   4.207   3.609 -1.3615 -0.8376 -0.4347
 1900TIP3   OH227114   3.438   3.229  11.153  0.2737 -0.3993 -0.2658
 1900TIP3    H127115   3.519   3.278  11.169 -0.7370  0.9340  1.0882
 1900TIP3    H227116   3.408   3.202  11.240 -0.0548 -2.0468 -0.8622
 1901TIP3   OH227117   1.882   4.412  14.815  0.6648 -0.3696 -0.2123
 1901TIP3    H127118   1.972   4.381  14.804  1.0084 -0.1116  1.4679
 1901TIP3    H227119   1.878   4.494  14.765  2.3936  1.2972  2.1360
 1902TIP3   OH227120   0.477   5.210   4.436 -0.1760 -0.6530  0.3218
 1902TIP3    H127121   0.383   5.196   4.450 -0.7302  1.4704 -0.8335
 1902TIP3    H227122   0.484   5.225   4.342  1.0698  0.7656  0.6077
 1903TIP3   OH227123   2.045   2.149   4.608 -0.3170 -0.3648 -0.2120
 1903TIP3    H127124   2.122   2.097   4.585  0.2225  0.1188  0.4605
 1903TIP3    H227125   1.998   2.160   4.525 -0.0644 -1.3029 -0.4894
 1904TIP3   OH227126   5.626   1.493   6.538 -0.2457 -0.2431 -0.1801
 1904TIP3    H127127   5.538   1.508   6.574 -0.6263 -1.8593 -0.3392
 1904TIP3    H227128   5.639   1.564   6.475 -0.7490  0.9681  1.0143
 1905TIP3   OH227129   5.914   1.474   4.073 -0.2974 -0.0424 -0.0617
 1905TIP3    H127130   5.966   1.548   4.042 -0.8023  1.2415  1.9344
 1905TIP3    H227131   5.977   1.420   4.121 -0.1559 -0.2741 -0.5080
 1906TIP3   OH227132   1.379   0.267  16.662  0.0769 -0.4131 -0.4671
 1906TIP3    H127133   1.293   0.261  16.620  0.5439 -0.7873 -1.3918
 1906TIP3    H227134   1.379   0.352  16.706 -0.5478 -0.1627 -0.9456
 1907TIP3   OH227135   5.105   3.993   3.748  0.5164  0.0477 -0.0751
 1907TIP3    H127136   5.191   4.031   3.736  1.0624 -1.3989 -1.1044
 1907TIP3    H227137   5.060   4.009   3.665  1.2628 -2.6245 -1.1083
 1908TIP3   OH227138   3.120   5.859  15.323 -0.1298 -0.5183  0.7649
 1908TIP3    H127139   3.125   5.771  15.286  1.7497 -1.1032  2.2624
 1908TIP3    H227140   3.058   5.851  15.395 -2.2076  0.1456 -0.8323
 1909TIP3   OH227141   3.282   4.377  12.913 -0.7260 -0.0673  0.1315
 1909TIP3    H127142   3.320   4.299  12.873 -0.4060 -0.5530  1.3320
 1909TIP3    H227143   3.297   4.366  13.007 -1.0331  1.2559  0.3629
 1910TIP3   OH227144   5.720   6.509   3.301  0.4156 -0.7710  0.1545
 1910TIP3    H127145   5.804   6.556   3.304  0.6635 -0.9452 -2.4461
 1910TIP3    H227146   5.741   6.421   3.332  1.2666 -0.8961 -0.7426
 1911TIP3   OH227147   3.447   5.662  14.007  0.3884 -0.5415  0.0275
 1911TIP3    H127148   3.376   5.726  14.015  0.3074 -0.7409  0.9822
 1911TIP3    H227149   3.449   5.640  13.914 -0.0640  0.3019 -0.1841
 1912TIP3   OH227150   6.042   3.137  14.032  0.4990 -0.2432 -0.5257
 1912TIP3    H127151   5.961   3.105  14.070  1.7954 -0.5677  2.2259
 1912TIP3    H227152   6.096   3.059  14.020  0.3616 -0.0741 -2.6260
 1913TIP3   OH227153   2.612   2.390   1.868 -0.4801  0.1360  0.4033
 1913TIP3    H127154   2.546   2.340   1.820 -1.2654  1.7315 -0.2317
 1913TIP3    H227155   2.563   2.460   1.910  0.5106  0.0190  1.8198
 1914TIP3   OH227156   4.891   3.615  15.213  0.3174 -0.0902 -0.5816
 1914TIP3    H127157   4.936   3.605  15.129 -2.0410  1.1836 -2.1277
 1914TIP3    H227158   4.949   3.671  15.265  0.9343  0.7851 -2.1385
 1915TIP3   OH227159   2.659   3.812  14.563 -0.5891 -0.1369 -0.2145
 1915TIP3    H127160   2.630   3.888  14.514  0.5195 -0.5184 -1.5189
 1915TIP3    H227161   2.581   3.781  14.609 -1.1900  1.3898 -0.1619
 1916TIP3   OH227162   3.399   2.008   3.353 -0.1534  0.4845 -0.0126
 1916TIP3    H127163   3.371   2.012   3.261  0.0317 -0.7515 -0.1358
 1916TIP3    H227164   3.443   2.092   3.368 -0.3522  0.7771 -0.9907
 1917TIP3   OH227165   2.575   3.397  16.062  0.6091 -0.4687  0.0554
 1917TIP3    H127166   2.658   3.402  16.014  0.8139  0.0880  0.4580
 1917TIP3    H227167   2.533   3.481  16.046 -0.1020 -0.9235 -0.5322
 1918TIP3   OH227168   6.376   0.253   5.132 -0.0218 -0.2384 -0.1480
 1918TIP3    H127169   6.357   0.277   5.223  0.8924  0.8454 -0.2195
 1918TIP3    H227170   6.441   0.316   5.104  1.3879 -1.9178 -0.8554
 1919TIP3   OH227171   4.129   1.787  17.129  0.2417 -0.3468  0.4098
 1919TIP3    H127172   4.164   1.701  17.151 -1.1804 -0.6492  1.6905
 1919TIP3    H227173   4.101   1.823  17.212 -1.3581  0.3406 -0.3845
 1920TIP3   OH227174   5.993   4.095  16.408 -0.2273 -0.0316  0.1244
 1920TIP3    H127175   5.976   4.189  16.416 -0.4232 -0.1236  0.8960
 1920TIP3    H227176   6.035   4.072  16.491 -0.6823 -0.7264  0.1655
 1921TIP3   OH227177   1.556   6.401  10.595 -0.1799 -0.5516 -0.0114
 1921TIP3    H127178   1.614   6.472  10.568  0.2374 -1.1648 -0.7586
 1921TIP3    H227179   1.603   6.358  10.667 -0.9705  0.6374  1.2726
 1922TIP3   OH227180   1.631   1.941   4.277  0.0953 -0.8352  0.7994
 1922TIP3    H127181   1.643   1.948   4.182  1.5972  0.3095  1.0325
 1922TIP3    H227182   1.544   1.902   4.287 -0.8742  0.6364 -1.0364
 1923TIP3   OH227183   1.027   5.053   2.513  0.0393  0.0232 -0.4386
 1923TIP3    H127184   1.024   5.049   2.609  1.1874  0.6398 -0.3618
 1923TIP3    H227185   1.017   5.146   2.492 -0.2646 -0.1141 -0.9201
 1924TIP3   OH227186   0.489   5.634   4.694  0.4145  0.2383  0.5267
 1924TIP3    H127187   0.446   5.711   4.731  1.0750  0.8570  0.0232
 1924TIP3    H227188   0.501   5.654   4.602  1.1271 -0.2257  0.5099
 1925TIP3   OH227189   6.240   3.628  16.601 -0.3003  0.3882  0.5701
 1925TIP3    H127190   6.173   3.595  16.661 -0.3385  0.8830  0.8022
 1925TIP3    H227191   6.315   3.570  16.614 -1.3512 -1.5178 -1.1994
 1926TIP3   OH227192   5.377   3.611   0.082  0.1861  0.0248  0.0040
 1926TIP3    H127193   5.342   3.539   0.029  1.9275 -0.5781 -0.4005
 1926TIP3    H227194   5.448   3.571   0.133  1.2036  1.4406 -0.2347
 1927TIP3   OH227195   3.162   2.175  16.054 -0.6254 -0.3718 -0.3502
 1927TIP3    H127196   3.195   2.159  15.965 -0.8138 -0.3118 -0.4320
 1927TIP3    H227197   3.146   2.088  16.090 -0.3428 -0.4009 -0.2962
 1928TIP3   OH227198   3.432   0.716  14.408 -0.6269  0.2914 -0.5887
 1928TIP3    H127199   3.527   0.719  14.403 -0.6287  0.9358 -0.2791
 1928TIP3    H227200   3.412   0.623  14.424  0.1655  0.5606  3.0132
 1929TIP3   OH227201   4.721   3.835  16.395 -0.0289 -0.4223 -0.5314
 1929TIP3    H127202   4.694   3.917  16.435  0.1321 -0.0880 -1.0947
 1929TIP3    H227203   4.639   3.790  16.373 -0.1153 -0.5592  0.0683
 1930TIP3   OH227204   1.055   5.262   6.164 -0.4829 -0.2529 -0.1745
 1930TIP3    H127205   1.074   5.175   6.199  1.9687  0.1427 -0.3300
 1930TIP3    H227206   1.059   5.320   6.240 -1.1799 -0.1498 -0.2140
 1931TIP3   OH227207   2.600   2.410  12.966 -0.4945 -0.2350  0.5846
 1931TIP3    H127208   2.567   2.412  13.056  1.5639 -1.5629  1.4362
 1931TIP3    H227209   2.695   2.418  12.975 -0.3440  1.6282 -1.6401
 1932TIP3   OH227210   1.882   5.499   1.071 -0.3069  0.2813  0.4066
 1932TIP3    H127211   1.815   5.434   1.054 -2.1975  2.0795  0.5219
 1932TIP3    H227212   1.859   5.573   1.015  0.8273  1.4466  1.3867
 1933TIP3   OH227213   4.781   1.752  13.034 -0.2539 -0.1194  0.4471
 1933TIP3    H127214   4.778   1.720  13.124 -1.8324 -0.9743  0.1216
 1933TIP3    H227215   4.835   1.687  12.988 -1.0148 -0.7302  0.3979
 1934TIP3   OH227216   5.404   1.771   3.205  0.0202  0.3535 -0.2484
 1934TIP3    H127217   5.483   1.771   3.150  1.0077  2.5068  1.0276
 1934TIP3    H227218   5.332   1.776   3.142  0.6941 -3.1418 -1.5120
 1935TIP3   OH227219   3.161   5.645  11.457 -0.0937 -0.2636  0.0210
 1935TIP3    H127220   3.170   5.684  11.371  0.8394  0.0776  0.2659
 1935TIP3    H227221   3.158   5.720  11.517  1.5582 -0.5449  0.4811
 1936TIP3   OH227222   0.553   0.217   3.635  0.0077  0.4532 -0.3205
 1936TIP3    H127223   0.625   0.159   3.610  0.3362  1.0512 -0.7834
 1936TIP3    H227224   0.520   0.251   3.552  0.4942  1.7272 -0.0158
 1937TIP3   OH227225   3.425   3.041   6.317 -0.0094  0.0225 -0.4202
 1937TIP3    H127226   3.479   2.967   6.344  0.8052 -0.3760 -2.8652
 1937TIP3    H227227   3.488   3.108   6.289 -0.7112 -0.1099 -2.4814
 1938TIP3   OH227228   1.151   2.698  13.084  0.2310  0.2090 -0.1375
 1938TIP3    H127229   1.147   2.781  13.037  1.3424 -0.6704 -1.9309
 1938TIP3    H227230   1.106   2.636  13.026 -0.8610 -0.3939  1.3139
 1939TIP3   OH227231   0.670   2.899  15.393 -0.1570 -0.2760 -0.0083
 1939TIP3    H127232   0.685   2.885  15.300  0.5697  0.2706  0.0182
 1939TIP3    H227233   0.591   2.849  15.413 -0.3368 -0.3592 -0.9235
 1940TIP3   OH227234   5.993   4.175  13.260 -0.0656 -0.1661  0.6753
 1940TIP3    H127235   5.936   4.158  13.185  1.6669 -3.1333 -0.1628
 1940TIP3    H227236   6.074   4.209  13.222  0.0026  0.5642  1.4541
 1941TIP3   OH227237   2.684   5.414   5.702  0.0093 -0.1287 -0.5252
 1941TIP3    H127238   2.627   5.450   5.770  0.6832 -0.8725  0.4514
 1941TIP3    H227239   2.758   5.377   5.749  0.2757 -1.0681 -1.6269
 1942TIP3   OH227240   4.425   4.108   1.888 -0.2336 -0.5455 -0.6469
 1942TIP3    H127241   4.477   4.118   1.808  2.5668 -0.3979  1.0322
 1942TIP3    H227242   4.386   4.194   1.902  0.6885 -0.0611 -0.9561
 1943TIP3   OH227243   1.743   3.856  12.611 -0.5533  0.4390  0.2438
 1943TIP3    H127244   1.732   3.764  12.589 -3.1815  0.8362 -0.4930
 1943TIP3    H227245   1.784   3.856  12.697 -1.2062 -1.4449  0.6015
 1944TIP3   OH227246   6.579   2.869  16.168 -0.4802 -0.2890  0.2953
 1944TIP3    H127247   6.669   2.884  16.198 -0.8067  2.5175  0.1979
 1944TIP3    H227248   6.527   2.871  16.249 -0.6896  0.7268  0.1492
 1945TIP3   OH227249   3.538   4.769  16.917  0.2920  0.0991 -0.1715
 1945TIP3    H127250   3.533   4.679  16.951 -0.0516  0.0443 -0.3665
 1945TIP3    H227251   3.620   4.771  16.867  1.3423  0.4667  1.4689
 1946TIP3   OH227252   5.734   6.295  10.477 -0.1467  0.0989 -0.2049
 1946TIP3    H127253   5.830   6.296  10.485  0.1254 -0.0957 -2.6852
 1946TIP3    H227254   5.710   6.387  10.465 -0.1793  0.0782 -0.3006
 1947TIP3   OH227255   2.514   4.465  11.517  0.3151 -0.8114  0.5031
 1947TIP3    H127256   2.569   4.493  11.444 -1.8562 -2.6078 -2.0136
 1947TIP3    H227257   2.546   4.377  11.539 -0.4186 -1.1931  0.1209
 1948TIP3   OH227258   4.796   4.832   5.060  0.2878  0.7434  0.5976
 1948TIP3    H127259   4.704   4.830   5.086  0.6556  2.8423  2.3264
 1948TIP3    H227260   4.799   4.897   4.989  0.4811  1.0086  0.8447
 1949TIP3   OH227261   4.333   6.717  17.016 -0.5525  0.5745 -0.3747
 1949TIP3    H127262   4.352   6.636  16.967 -0.6999  1.3122 -1.6942
 1949TIP3    H227263   4.378   6.785  16.966 -2.9667  1.7550 -1.0664
 1950TIP3   OH227264   5.593   0.819   2.377  0.0668 -0.6631  0.5198
 1950TIP3    H127265   5.517   0.773   2.341 -0.6010  0.6108  0.2569
 1950TIP3    H227266   5.668   0.778   2.332 -0.5605 -0.9697 -0.2837
 1951TIP3   OH227267   2.932   1.640  11.026 -0.1922 -1.1808  0.0234
 1951TIP3    H127268   2.855   1.587  11.008 -0.2764 -0.2393 -3.0218
 1951TIP3    H227269   2.912   1.725  10.987  1.1935  0.0934  1.9331
 1952TIP3   OH227270   5.546   5.575  11.371 -0.0014 -0.2853 -0.2749
 1952TIP3    H127271   5.532   5.613  11.284  1.3263  1.0517  0.0436
 1952TIP3    H227272   5.627   5.615  11.401  0.8373 -2.5306  0.6312
 1953TIP3   OH227273   4.330   2.254  12.034 -0.6356  0.3035 -0.4890
 1953TIP3    H127274   4.336   2.229  11.942  0.3118 -0.0850 -0.3331
 1953TIP3    H227275   4.395   2.323  12.044  1.3696 -1.6207  0.5119
 1954TIP3   OH227276   0.948   1.651   1.025 -0.1491 -0.4841  0.1575
 1954TIP3    H127277   0.872   1.700   1.056 -0.4020 -0.3910 -0.5755
 1954TIP3    H227278   1.019   1.677   1.083 -0.2519  0.8224 -0.2676
 1955TIP3   OH227279   0.441   3.403   2.963  0.1293 -0.6915  0.1172
 1955TIP3    H127280   0.517   3.344   2.971  1.1260  0.4324 -0.7095
 1955TIP3    H227281   0.479   3.487   2.935 -1.2858  0.2720  0.9853
 1956TIP3   OH227282   3.491   5.699  11.465  0.4580 -0.5721  0.8226
 1956TIP3    H127283   3.576   5.742  11.454  0.6801 -1.2105 -0.1202
 1956TIP3    H227284   3.430   5.755  11.417  0.1911  0.2713  2.0894
 1957TIP3   OH227285   6.348   1.987   5.240 -0.6068  0.8075 -0.0823
 1957TIP3    H127286   6.432   1.946   5.260 -1.5630 -1.3201 -0.1580
 1957TIP3    H227287   6.367   2.047   5.167  0.7312 -0.0639 -0.4775
 1958TIP3   OH227288   1.380   0.985  11.852 -0.3369 -0.3963  0.5261
 1958TIP3    H127289   1.421   0.993  11.938  0.9722 -2.6363  0.1906
 1958TIP3    H227290   1.448   1.012  11.791 -1.0120  0.4626  0.1328
 1959TIP3   OH227291   0.635   5.749   5.695  0.2125  0.1623 -0.6676
 1959TIP3    H127292   0.698   5.820   5.702  1.5526 -0.9589 -0.9937
 1959TIP3    H227293   0.681   5.672   5.729 -1.1966 -0.5573 -0.3128
 1960TIP3   OH227294   4.697   4.106  16.232  0.3916 -0.2859 -0.5994
 1960TIP3    H127295   4.749   4.044  16.181 -0.0481  0.1739 -1.6367
 1960TIP3    H227296   4.618   4.119  16.180 -0.4543 -0.4217  0.6003
 1961TIP3   OH227297   4.492   0.024   2.794 -0.3527  0.4222 -0.4900
 1961TIP3    H127298   4.413   0.042   2.744 -0.8450  0.8571  0.4283
 1961TIP3    H227299   4.468  -0.048   2.852 -1.1470  2.5551  2.0715
 1962TIP3   OH227300   2.619   4.132   1.864  0.2819 -0.2207 -0.0655
 1962TIP3    H127301   2.580   4.047   1.847  0.3818  0.1670 -2.5864
 1962TIP3    H227302   2.714   4.117   1.858  0.3199 -0.0398  0.0628
 1963TIP3   OH227303   2.075   0.611   2.682  0.4404  0.2707 -0.5020
 1963TIP3    H127304   2.007   0.543   2.683 -0.3496  1.0515  0.2492
 1963TIP3    H227305   2.152   0.566   2.647 -0.3917 -0.6921 -1.1809
 1964TIP3   OH227306   1.688   4.987  10.662  0.0631  0.2891 -0.2383
 1964TIP3    H127307   1.713   5.031  10.743  0.2869  0.9375 -0.6529
 1964TIP3    H227308   1.771   4.968  10.618 -0.0435 -0.3334 -0.1801
 1965TIP3   OH227309   5.495   4.855   3.990 -0.2297 -0.0826 -0.0898
 1965TIP3    H127310   5.515   4.886   3.902 -0.4231  4.0596  1.0884
 1965TIP3    H227311   5.580   4.857   4.036 -0.5224  0.4351  0.4510
 1966TIP3   OH227312   0.281   6.652  12.281  0.5235  0.1969 -0.1073
 1966TIP3    H127313   0.281   6.557  12.284 -1.1810  0.1599 -0.6118
 1966TIP3    H227314   0.354   6.678  12.338 -0.9345 -1.3410  2.6300
 1967TIP3   OH227315   6.499   1.416  13.109 -0.4346 -0.8457 -0.3805
 1967TIP3    H127316   6.408   1.405  13.083 -0.7198  1.9397 -0.8950
 1967TIP3    H227317   6.548   1.413  13.026 -0.1458 -1.5066 -0.1908
 1968TIP3   OH227318   0.531   5.382   2.344 -0.3593  0.5016  0.3689
 1968TIP3    H127319   0.543   5.476   2.355 -0.8914  0.6593 -0.3455
 1968TIP3    H227320   0.441   5.366   2.375 -0.1731  0.1735  0.7644
 1969TIP3   OH227321   5.349   4.628  14.264 -0.0089 -0.1250 -0.9912
 1969TIP3    H127322   5.436   4.595  14.242  0.7168  1.0165  0.0378
 1969TIP3    H227323   5.329   4.690  14.193  1.4409  2.0038  0.3358
 1970TIP3   OH227324   6.200   0.564  12.263  0.2697 -0.1391  0.0752
 1970TIP3    H127325   6.183   0.470  12.268 -0.6359 -0.0449 -0.8067
 1970TIP3    H227326   6.143   0.595  12.192  2.3848  0.6706 -1.3592
 1971TIP3   OH227327   6.243   0.863  16.575  0.3024 -0.3566 -0.2394
 1971TIP3    H127328   6.255   0.771  16.598  0.2658 -0.3840 -0.3265
 1971TIP3    H227329   6.185   0.898  16.643  0.4206 -0.3659 -0.1348
 1972TIP3   OH227330   5.011   3.889  16.346 -0.0986 -0.5101 -0.5063
 1972TIP3    H127331   4.923   3.852  16.344 -1.3641  2.2937 -0.3684
 1972TIP3    H227332   5.002   3.977  16.310  2.3414  0.4867  1.0190
 1973TIP3   OH227333   5.261   1.378  11.360  0.4182  0.4494  0.7402
 1973TIP3    H127334   5.345   1.346  11.329 -0.2838 -1.3489  0.5851
 1973TIP3    H227335   5.270   1.474  11.359  2.1442  0.3157 -0.0925
 1974TIP3   OH227336   5.101   4.541   6.024 -0.2561 -0.4852  0.2865
 1974TIP3    H127337   5.123   4.483   6.096  1.7335 -0.1207  0.0570
 1974TIP3    H227338   5.044   4.608   6.062  1.1930  0.0158  1.6862
 1975TIP3   OH227339   3.936   1.175   1.355 -0.3921  0.3594 -0.4561
 1975TIP3    H127340   4.003   1.118   1.318 -0.1902  1.0941 -1.2501
 1975TIP3    H227341   3.889   1.211   1.279 -0.8339  0.8609  0.0396
 1976TIP3   OH227342   2.195   0.259  15.719 -0.3342 -0.7122 -0.4327
 1976TIP3    H127343   2.141   0.310  15.659 -0.1955 -0.1571 -0.0835
 1976TIP3    H227344   2.156   0.272  15.805  0.3640 -0.2833 -0.1702
 1977TIP3   OH227345   6.424   2.754   0.462 -0.2117 -0.1201  0.2341
 1977TIP3    H127346   6.487   2.810   0.507 -0.0718 -0.3581  0.3363
 1977TIP3    H227347   6.397   2.805   0.386  0.0011  0.0391  0.2633
 1978TIP3   OH227348   3.975   1.423  15.786 -0.3899  0.1057  0.0263
 1978TIP3    H127349   4.055   1.436  15.735 -0.5626  0.1555 -0.2328
 1978TIP3    H227350   3.988   1.340  15.831  0.8889  1.2731  1.9871
 1979TIP3   OH227351   2.264   5.295   4.050  0.1350 -0.6176  0.8072
 1979TIP3    H127352   2.357   5.301   4.028  0.4139 -1.5482  1.7084
 1979TIP3    H227353   2.228   5.236   3.985  0.1275 -0.1206  0.3500
 1980TIP3   OH227354   0.272   4.143   4.946 -0.1485 -0.0889 -0.3818
 1980TIP3    H127355   0.237   4.060   4.980 -0.5599  0.4283  0.5011
 1980TIP3    H227356   0.234   4.152   4.859 -1.9728  0.2808  0.4123
 1981TIP3   OH227357   2.913   3.101  17.130 -0.3251 -0.0963  0.3611
 1981TIP3    H127358   2.855   3.160  17.080  0.8842  0.3968 -0.4968
 1981TIP3    H227359   2.885   3.112  17.221 -1.2722  0.4749  0.0198
 1982TIP3   OH227360   4.003   2.723   1.219  0.6286 -0.1867  0.1278
 1982TIP3    H127361   3.991   2.729   1.124  0.2242 -2.3372 -0.0113
 1982TIP3    H227362   4.029   2.811   1.246  0.3869  0.5575 -1.9200
 1983TIP3   OH227363   2.785   2.222  11.679 -0.4353  0.5895  0.0923
 1983TIP3    H127364   2.737   2.139  11.683 -0.8403  0.8317  0.2880
 1983TIP3    H227365   2.854   2.214  11.745  0.6167 -0.2600 -1.0394
 1984TIP3   OH227366   0.850   0.771   1.402 -0.1317  0.6998 -0.1805
 1984TIP3    H127367   0.820   0.783   1.492 -0.8560 -1.2258 -0.1328
 1984TIP3    H227368   0.858   0.676   1.392 -0.5069  0.8586 -2.2987
 1985TIP3   OH227369   1.596   1.841  12.585 -0.4753 -0.3871 -0.0047
 1985TIP3    H127370   1.677   1.851  12.535 -0.4444  0.7628  0.2596
 1985TIP3    H227371   1.527   1.841  12.519 -0.2727 -1.2814 -0.2236
 1986TIP3   OH227372   2.598   0.074   5.023  0.1606  0.9204 -0.7615
 1986TIP3    H127373   2.525   0.014   5.006 -0.0976  0.8216  0.5614
 1986TIP3    H227374   2.665   0.020   5.063  0.7724  1.1175 -1.4970
 1987TIP3   OH227375   6.032   2.138   2.558 -0.7609  0.3639 -0.6505
 1987TIP3    H127376   6.017   2.200   2.629  0.3644 -0.9793  0.8224
 1987TIP3    H227377   5.992   2.179   2.481 -0.8870  2.4369  0.4696
 1988TIP3   OH227378   6.328   5.405   4.897 -0.5623 -0.5766 -0.3717
 1988TIP3    H127379   6.267   5.431   4.965  0.1161  1.2191 -0.3952
 1988TIP3    H227380   6.326   5.477   4.833  3.0190  0.6411  0.6183
 1989TIP3   OH227381   0.892   2.330  12.801 -0.2684 -0.7718 -0.1256
 1989TIP3    H127382   0.870   2.346  12.709  1.4255  0.2934 -0.3840
 1989TIP3    H227383   0.834   2.387  12.850  0.3582  0.3679 -0.6746
 1990TIP3   OH227384   5.632   4.877   1.692 -0.2298 -0.2694 -0.2579
 1990TIP3    H127385   5.707   4.828   1.657  0.1914 -0.0963  0.3819
 1990TIP3    H227386   5.672   4.947   1.743 -0.8338  0.2615 -0.5115
 1991TIP3   OH227387   6.791   1.043   3.055 -0.4400  0.2204  0.1446
 1991TIP3    H127388   6.809   1.053   2.962 -2.8853  0.1184 -0.4110
 1991TIP3    H227389   6.725   1.109   3.074 -0.4426 -0.1842  1.6649
 1992TIP3   OH227390   5.846   4.142  16.737  0.3482 -0.2610  0.1380
 1992TIP3    H127391   5.840   4.056  16.779  0.6609  0.9138  2.8205
 1992TIP3    H227392   5.935   4.145  16.702  0.2974 -1.0599 -0.0769
 1993TIP3   OH227393   1.811   2.358  17.199 -0.3560 -0.0658  0.3656
 1993TIP3    H127394   1.734   2.384  17.249  0.7747  0.4424  1.9023
 1993TIP3    H227395   1.779   2.288  17.141 -2.2091  0.9184  0.1120
 1994TIP3   OH227396   4.883   0.944   4.341 -0.1321  0.1693  0.1399
 1994TIP3    H127397   4.898   0.894   4.421 -1.3545  0.7417  0.7592
 1994TIP3    H227398   4.963   0.996   4.330  0.1292 -0.0607  0.8782
 1995TIP3   OH227399   4.873   5.082   4.433 -0.5515 -0.2154 -1.1093
 1995TIP3    H127400   4.943   5.042   4.381 -0.9858 -0.7768 -1.2757
 1995TIP3    H227401   4.811   5.010   4.449  0.2968 -0.4889  1.5039
 1996TIP3   OH227402   1.890   0.416   3.893  0.1950 -0.0536  0.6282
 1996TIP3    H127403   1.799   0.387   3.886 -0.0278  1.0236 -2.4001
 1996TIP3    H227404   1.885   0.511   3.892  1.3554  0.0281  1.0658
 1997TIP3   OH227405   2.914   6.137  12.682  0.3409  0.2685 -0.0402
 1997TIP3    H127406   2.830   6.161  12.644  0.2777  1.0077  0.5513
 1997TIP3    H227407   2.891   6.088  12.761  0.4629 -1.8978 -1.2641
 1998TIP3   OH227408   0.780   3.478   1.482 -0.3132  0.4441  0.3451
 1998TIP3    H127409   0.867   3.510   1.458 -1.0299  1.6160 -0.8199
 1998TIP3    H227410   0.758   3.525   1.562  0.0283  0.3275  0.5065
 1999TIP3   OH227411   5.778   5.700  12.791  0.0738  0.5346  0.1408
 1999TIP3    H127412   5.772   5.620  12.740  0.5660 -0.4336  1.5562
 1999TIP3    H227413   5.867   5.733  12.776 -0.2895  1.1178 -0.8365
 2000TIP3   OH227414   1.865   0.853   3.274  0.2321 -0.3678  0.6363
 2000TIP3    H127415   1.923   0.813   3.338 -0.2733 -0.2556  1.1685
 2000TIP3    H227416   1.924   0.893   3.210  0.7387 -0.4326  1.0560
 2001TIP3   OH227417   2.773   4.760  12.820 -0.3537  0.2140  0.0032
 2001TIP3    H127418   2.819   4.844  12.823 -0.9985  0.5616  0.9266
 2001TIP3    H227419   2.805   4.717  12.741  1.0184  0.7389  0.2457
 2002TIP3   OH227420   0.759   0.680   5.756  0.1309  0.0545  0.2452
 2002TIP3    H127421   0.698   0.636   5.815 -0.5164 -0.5375 -0.8169
 2002TIP3    H227422   0.835   0.700   5.810 -0.2106 -0.9506  1.1405
 2003TIP3   OH227423   4.201   5.269   4.273 -0.1439 -0.0729  0.0888
 2003TIP3    H127424   4.241   5.183   4.275 -0.6141 -0.2958  1.9440
 2003TIP3    H227425   4.111   5.255   4.302 -0.8330  0.7950 -1.4715
 2004TIP3   OH227426   2.115   5.697  12.581 -0.4015 -0.1726  0.0385
 2004TIP3    H127427   2.044   5.707  12.518 -1.1493  0.5402  0.9763
 2004TIP3    H227428   2.106   5.772  12.640  1.9339  0.7090 -0.6018
 2005TIP3   OH227429   5.432   6.153   4.218 -0.4589  0.4531  0.5169
 2005TIP3    H127430   5.516   6.164   4.173 -0.3639  1.1302  0.8462
 2005TIP3    H227431   5.456   6.137   4.309 -0.6858  0.5219  0.5889
 2006TIP3   OH227432   0.891   3.775  13.947  0.0003  0.1855 -0.3562
 2006TIP3    H127433   0.805   3.746  13.977  0.3829  0.0676  0.6535
 2006TIP3    H227434   0.899   3.864  13.979  0.6193 -0.1157  0.3581
 2007TIP3   OH227435   1.309   6.163  13.962 -0.0839 -0.4654 -0.1268
 2007TIP3    H127436   1.285   6.170  13.869 -1.5375  0.2183  0.2708
 2007TIP3    H227437   1.241   6.107  14.000  0.0298 -0.0537  0.6991
 2008TIP3   OH227438   1.950   6.406   4.669  0.0001  0.3548  0.4035
 2008TIP3    H127439   1.905   6.382   4.588  0.4734  0.4330  0.1176
 2008TIP3    H227440   1.985   6.494   4.653 -1.2910  1.0524  1.2737
 2009TIP3   OH227441   5.546   6.699  13.509 -0.1324  0.1973 -0.3775
 2009TIP3    H127442   5.589   6.623  13.549  0.2771 -0.3889 -1.8424
 2009TIP3    H227443   5.500   6.663  13.433  0.7645  1.5203 -1.5962
 2010TIP3   OH227444   3.536   0.222  14.589 -0.1953 -0.0465 -0.1016
 2010TIP3    H127445   3.556   0.279  14.664 -1.0959 -0.7602  0.7148
 2010TIP3    H227446   3.549   0.133  14.623  0.2197 -0.3560 -1.0619
 2011TIP3   OH227447   5.019   3.079   4.896  0.2620 -0.2814 -0.0856
 2011TIP3    H127448   5.087   3.043   4.953  0.2343  0.0932  0.1877
 2011TIP3    H227449   5.006   3.012   4.828  0.0245 -0.9025  0.5552
 2012TIP3   OH227450   2.994   2.468  15.085 -0.1080  0.0573  0.0131
 2012TIP3    H127451   2.984   2.380  15.048  0.4409  0.2212 -0.5459
 2012TIP3    H227452   2.910   2.486  15.127 -0.8114 -0.1012 -1.2724
 2013TIP3   OH227453   0.029   3.117   0.100 -0.5609  0.1671  0.3134
 2013TIP3    H127454   0.106   3.157   0.141 -1.3026  2.6071 -0.5144
 2013TIP3    H227455  -0.043   3.175   0.123 -1.8693 -1.1161 -0.3809
 2014TIP3   OH227456   4.244   5.603  10.915  0.5187  0.2605  0.3534
 2014TIP3    H127457   4.168   5.579  10.862  0.9622  3.8031 -2.2189
 2014TIP3    H227458   4.238   5.546  10.992 -3.8300 -0.7368 -0.4467
 2015TIP3   OH227459   0.503   4.333   2.342  0.2731 -0.0963 -0.5441
 2015TIP3    H127460   0.432   4.270   2.341  1.1972 -1.1993 -2.5219
 2015TIP3    H227461   0.532   4.338   2.251  1.5368  1.7053 -0.1057
 2016TIP3   OH227462   5.194   2.353  12.990  0.0557 -0.6333  0.1061
 2016TIP3    H127463   5.182   2.309  13.075 -0.0284 -1.0477 -0.1156
 2016TIP3    H227464   5.289   2.351  12.976  0.3286  1.5083  1.2641
 2017TIP3   OH227465   4.148   1.959  12.468 -0.1393  0.1912  0.0064
 2017TIP3    H127466   4.199   2.037  12.491  0.1133  0.5204 -1.5582
 2017TIP3    H227467   4.214   1.892  12.449 -0.3401 -0.1302  0.4313
 2018TIP3   OH227468   5.419   5.452  12.005 -0.2934  0.6710 -0.0436
 2018TIP3    H127469   5.369   5.450  12.088  0.2342  0.5218  0.2729
 2018TIP3    H227470   5.391   5.373  11.959 -1.9967  1.6972 -0.8509
 2019TIP3   OH227471   1.789   5.692   2.541 -0.2708 -0.4621 -0.7185
 2019TIP3    H127472   1.865   5.637   2.523  0.4598  0.2981 -0.0417
 2019TIP3    H227473   1.783   5.751   2.466  0.7762  0.5118 -0.0725
 2020TIP3   OH227474   3.801   2.956   4.888  0.1848  0.5347  0.3414
 2020TIP3    H127475   3.710   2.930   4.875  0.7337 -0.5674 -1.5750
 2020TIP3    H227476   3.825   3.000   4.807  0.8911  2.4078  1.4949
 2021TIP3   OH227477   6.397   0.075  17.168  0.0099 -0.2047 -0.1516
 2021TIP3    H127478   6.384   0.166  17.195  3.5216  0.2881  0.4773
 2021TIP3    H227479   6.467   0.080  17.103 -0.0863 -2.4383 -0.5082
 2022TIP3   OH227480   5.944   2.449   4.790 -0.3428 -0.4428 -0.6662
 2022TIP3    H127481   5.904   2.514   4.848 -0.8909 -0.2249 -1.2853
 2022TIP3    H227482   5.939   2.487   4.703 -0.8255 -1.3749 -1.0692
 2023TIP3   OH227483   6.439   2.946   3.660 -0.4676  0.0392 -0.4226
 2023TIP3    H127484   6.350   2.913   3.676 -0.8534  1.8358  1.6271
 2023TIP3    H227485   6.429   3.040   3.653  1.3422  0.3500  0.4766
 2024TIP3   OH227486   4.238   3.949   6.451 -0.3186 -0.4645 -0.1484
 2024TIP3    H127487   4.275   4.021   6.502  0.2535 -0.9925  0.1997
 2024TIP3    H227488   4.150   3.937   6.487  0.9617 -2.6251  2.7125
 2025TIP3   OH227489   4.436   4.298   0.907 -0.0976  0.1278  0.1325
 2025TIP3    H127490   4.444   4.377   0.855 -0.4591 -0.6889 -1.2104
 2025TIP3    H227491   4.439   4.328   0.998  0.4145  1.5948 -0.3545
 2026TIP3   OH227492   1.027   3.535  14.280 -0.4045  0.0468 -0.4556
 2026TIP3    H127493   1.094   3.598  14.305 -0.0811 -0.2008 -0.6870
 2026TIP3    H227494   1.068   3.482  14.211 -0.1917 -1.2764  0.6433
 2027TIP3   OH227495   0.939   4.965   0.199 -0.0531  0.1139  0.0593
 2027TIP3    H127496   0.977   5.053   0.198  0.7365 -0.1923  0.7858
 2027TIP3    H227497   0.981   4.920   0.126 -1.6477  0.7837 -1.3181
 2028TIP3   OH227498   1.677   0.977  12.345 -0.4643 -0.7669  0.1657
 2028TIP3    H127499   1.751   0.917  12.335 -0.4045 -0.4893 -1.2816
 2028TIP3    H227500   1.637   0.953  12.428  2.4721  0.4284  2.0916
 2029TIP3   OH227501   5.067   3.671  13.119 -0.0333 -0.2457 -0.3197
 2029TIP3    H127502   4.975   3.696  13.114 -0.1771 -0.7117 -0.1466
 2029TIP3    H227503   5.099   3.676  13.029  0.1236  1.1502 -0.2102
 2030TIP3   OH227504   6.118   5.750   4.157  0.0194  0.8924 -0.4004
 2030TIP3    H127505   6.187   5.795   4.109  0.0051  0.6589 -0.6422
 2030TIP3    H227506   6.063   5.820   4.191  1.0306  1.1389  0.8053
 2031TIP3   OH227507   1.578   4.256  13.913  0.2730 -0.2010 -0.2068
 2031TIP3    H127508   1.553   4.164  13.911 -0.7414  0.0149  1.0471
 2031TIP3    H227509   1.497   4.304  13.900  0.3814  0.5062  1.3843
 2032TIP3   OH227510   0.059   5.254   1.602  0.0212 -0.2373  0.4014
 2032TIP3    H127511   0.029   5.171   1.566 -1.2609  1.0807 -1.8244
 2032TIP3    H227512   0.053   5.316   1.528  2.0300  1.5896  1.6396
 2033TIP3   OH227513   5.641   6.579   1.910 -0.1231 -0.0380  0.1150
 2033TIP3    H127514   5.663   6.659   1.959  0.6871 -0.8683  1.1490
 2033TIP3    H227515   5.682   6.509   1.960  1.4878 -0.8657 -2.2251
 2034TIP3   OH227516   5.458   5.568  12.958 -0.6957 -0.2606 -0.3307
 2034TIP3    H127517   5.426   5.495  12.905  0.7774 -0.8823 -0.3903
 2034TIP3    H227518   5.553   5.567  12.946 -0.4630  0.4468  1.2399
 2035TIP3   OH227519   1.061   5.333  13.799 -0.2825 -0.0672 -0.1087
 2035TIP3    H127520   1.070   5.418  13.842 -0.5461 -0.5261  0.8785
 2035TIP3    H227521   1.049   5.354  13.706  0.7847  0.9180 -0.0357
 2036TIP3   OH227522   0.805   5.879   3.254  0.4041 -0.2024 -0.4207
 2036TIP3    H127523   0.744   5.824   3.205 -0.5889 -0.0564  0.5944
 2036TIP3    H227524   0.865   5.818   3.295  0.1960 -0.4333 -0.4571
 2037TIP3   OH227525   0.852   4.166  16.737  0.5483 -0.1864  0.2174
 2037TIP3    H127526   0.765   4.205  16.731  1.0631  0.8560 -1.0410
 2037TIP3    H227527   0.890   4.205  16.816 -0.1107 -0.6306  0.7605
 2038TIP3   OH227528   3.897   6.503  14.371 -0.3414 -0.0607  0.0149
 2038TIP3    H127529   3.961   6.542  14.312 -1.1262  0.2953 -0.6171
 2038TIP3    H227530   3.946   6.437  14.419  0.5850  0.4594 -0.1920
 2039TIP3   OH227531   5.018   2.352   5.160 -0.2780 -0.4358  0.0229
 2039TIP3    H127532   5.062   2.277   5.120  0.2844 -0.4532  0.6578
 2039TIP3    H227533   4.957   2.313   5.223  0.6375 -0.3476  0.9802
 2040TIP3   OH227534   0.883   0.467   5.628  0.1735 -0.5305  0.9740
 2040TIP3    H127535   0.821   0.526   5.586 -0.7842 -1.4108  1.1042
 2040TIP3    H227536   0.835   0.431   5.703  0.7888 -1.3432  0.9923
 2041TIP3   OH227537   2.572   3.036  17.047  0.1339 -0.3367  1.0437
 2041TIP3    H127538   2.508   3.069  16.984  0.7535  0.3698  0.7654
 2041TIP3    H227539   2.593   3.113  17.101  0.2675 -0.7189  1.5376
 2042TIP3   OH227540   0.919   3.599  16.487  0.1591 -0.1323  0.2854
 2042TIP3    H127541   0.911   3.691  16.460  0.7796 -0.0896  0.2471
 2042TIP3    H227542   0.834   3.579  16.527 -0.4515  0.0771 -0.8389
 2043TIP3   OH227543   5.465   3.442   5.977 -0.4077 -0.3160  0.1065
 2043TIP3    H127544   5.458   3.352   6.010  0.2136 -0.6067 -0.5336
 2043TIP3    H227545   5.523   3.435   5.901 -1.6404  0.3534 -0.9476
 2044TIP3   OH227546   2.124   2.690   3.413  0.2675 -0.1409  0.1235
 2044TIP3    H127547   2.105   2.604   3.377  1.0025  0.0311 -0.7036
 2044TIP3    H227548   2.143   2.744   3.337 -0.5529  0.8582  0.5979
 2045TIP3   OH227549   6.783   4.253  15.844  0.8875 -0.4453 -0.6365
 2045TIP3    H127550   6.798   4.186  15.910 -1.5163  0.9282  1.4727
 2045TIP3    H227551   6.702   4.225  15.801 -1.2960  1.9102  1.6253
 2046TIP3   OH227552   3.030   3.217  13.040  0.3715 -0.0016  0.0273
 2046TIP3    H127553   3.071   3.260  12.965 -1.5975 -0.5379 -1.4389
 2046TIP3    H227554   3.012   3.128  13.010 -0.7569 -0.1324  0.9939
 2047TIP3   OH227555   2.040   4.376   4.090  0.2023  0.0542  0.0979
 2047TIP3    H127556   1.965   4.374   4.031 -0.8557  1.0670  1.3648
 2047TIP3    H227557   2.072   4.286   4.090 -1.6314 -0.6387  0.3133
 2048TIP3   OH227558   0.244   1.359  11.962 -0.1683 -0.2528  0.0131
 2048TIP3    H127559   0.279   1.366  11.873  0.2282  0.4104  0.2132
 2048TIP3    H227560   0.154   1.388  11.955 -0.9137 -2.4804 -0.6140
 2049TIP3   OH227561   1.673   4.779   6.009  0.0964  0.4177  0.1516
 2049TIP3    H127562   1.680   4.820   5.923  2.0797 -2.2559 -1.1461
 2049TIP3    H227563   1.753   4.806   6.054  0.7980 -0.9243 -0.2423
 2050TIP3   OH227564   2.373   2.254  12.293  0.0295  0.2301 -0.4147
 2050TIP3    H127565   2.289   2.297  12.305  0.5746  2.4539 -3.2116
 2050TIP3    H227566   2.438   2.324  12.309  1.2429 -0.9207 -0.1269
 2051TIP3   OH227567   0.079   2.654  11.050 -0.1660  0.1742  0.2427
 2051TIP3    H127568   0.063   2.746  11.031 -0.8924 -0.1026 -0.5905
 2051TIP3    H227569   0.110   2.618  10.967  3.2658  0.3059  1.3422
 2052TIP3   OH227570   2.738   1.255  16.933 -0.2963 -0.0425  0.2029
 2052TIP3    H127571   2.767   1.324  16.993  0.2221  1.0202 -1.2032
 2052TIP3    H227572   2.742   1.175  16.984  3.0629  0.3330  0.7875
 2053TIP3   OH227573   2.295   6.484   4.457 -0.2761  0.3724 -0.1689
 2053TIP3    H127574   2.372   6.510   4.507  0.4984  0.4420 -1.3762
 2053TIP3    H227575   2.245   6.565   4.446  1.1812  1.0551 -2.2731
 2054TIP3   OH227576   0.294   4.848  16.490 -0.2609  0.4298 -0.1433
 2054TIP3    H127577   0.314   4.777  16.428  0.2872  0.4749 -0.0186
 2054TIP3    H227578   0.303   4.808  16.576  2.0888  1.1370  0.0049
 2055TIP3   OH227579   3.316   3.830   3.945 -0.4426  0.6985  0.6520
 2055TIP3    H127580   3.255   3.827   4.019  0.4329 -0.1942  1.3749
 2055TIP3    H227581   3.260   3.825   3.867 -1.3041  0.1298  1.2874
 2056TIP3   OH227582   1.182   5.232  15.083  0.1965  0.1353 -0.0654
 2056TIP3    H127583   1.202   5.268  15.169  0.9673 -0.4825  0.0219
 2056TIP3    H227584   1.173   5.138  15.097 -0.3955  0.1093 -0.5422
 2057TIP3   OH227585   4.283   2.523   5.962 -0.1583 -0.5469 -0.3260
 2057TIP3    H127586   4.311   2.550   6.049 -0.4352  0.7813 -0.6150
 2057TIP3    H227587   4.187   2.530   5.964 -0.0933  2.7707 -1.6343
 2058TIP3   OH227588   0.339   4.810  13.917 -0.4197  0.5042  0.2000
 2058TIP3    H127589   0.432   4.797  13.935 -0.7120 -0.8759  0.9377
 2058TIP3    H227590   0.302   4.722  13.923 -1.9221  1.1438  0.8653
 2059TIP3   OH227591   5.649   3.267   1.617 -0.0232  0.5885  0.1912
 2059TIP3    H127592   5.725   3.211   1.598 -0.8788 -0.5410 -0.0039
 2059TIP3    H227593   5.671   3.351   1.576  0.3842 -0.2358 -1.3872
 2060TIP3   OH227594   0.347   0.837   0.789  0.4952  0.3117 -0.6125
 2060TIP3    H127595   0.322   0.797   0.873  1.8376 -0.8472 -0.7227
 2060TIP3    H227596   0.281   0.905   0.774 -0.7155 -0.5370  0.5862
 2061TIP3   OH227597   0.380   1.720  12.214 -0.3686 -0.6910 -0.4075
 2061TIP3    H127598   0.296   1.693  12.250 -1.2388  1.9688 -0.1748
 2061TIP3    H227599   0.359   1.794  12.157  1.7547 -0.2861 -0.7639
 2062TIP3   OH227600   5.495   4.318   2.510  0.3667 -0.0849 -0.4425
 2062TIP3    H127601   5.565   4.277   2.459  2.4896  0.2605  1.9887
 2062TIP3    H227602   5.540   4.381   2.566 -2.1641  1.5498 -0.0978
 2063TIP3   OH227603   3.031   2.967   5.458 -0.7993 -0.0511  0.1600
 2063TIP3    H127604   3.014   2.883   5.415  0.5736 -0.5454  0.5293
 2063TIP3    H227605   3.096   3.010   5.402 -0.7658  0.3442  0.4944
 2064TIP3   OH227606   2.671   5.385   0.458 -0.0661 -0.5609 -0.2937
 2064TIP3    H127607   2.744   5.399   0.518 -0.8246  1.8390  0.2100
 2064TIP3    H227608   2.600   5.353   0.514 -1.4198  3.5894  0.7502
 2065TIP3   OH227609   0.620   3.544  14.552  0.3226  0.0045  0.2652
 2065TIP3    H127610   0.655   3.633  14.562 -0.6920  0.5252 -0.6199
 2065TIP3    H227611   0.668   3.507  14.478  0.6114 -0.1150  0.5123
 2066TIP3   OH227612   4.354   1.237  11.469 -0.3802 -0.2240 -0.5384
 2066TIP3    H127613   4.322   1.192  11.391  0.1287 -0.4204 -0.6387
 2066TIP3    H227614   4.449   1.240  11.458 -0.0220 -2.5203  1.2472
 2067TIP3   OH227615   5.032   5.675   0.963  0.7070 -0.5055  0.6253
 2067TIP3    H127616   5.004   5.748   1.019  0.1797 -0.6060  0.4961
 2067TIP3    H227617   5.047   5.716   0.877  2.3379 -0.1945  1.0252
 2068TIP3   OH227618   5.206   6.011  16.883  0.6081 -0.6235  0.6069
 2068TIP3    H127619   5.207   6.068  16.806 -0.9384 -1.0625  0.2309
 2068TIP3    H227620   5.283   5.956  16.873  0.2224 -0.9498 -0.8561
 2069TIP3   OH227621   5.768   2.389  15.300 -0.5450  0.4429 -0.0936
 2069TIP3    H127622   5.732   2.325  15.361 -1.1105  0.9924  0.1563
 2069TIP3    H227623   5.743   2.358  15.214 -0.1790 -0.0679 -0.0186
 2070TIP3   OH227624   4.634   2.414  16.238 -0.3467 -0.3184 -0.4686
 2070TIP3    H127625   4.689   2.431  16.315  1.5975 -0.8352 -1.6918
 2070TIP3    H227626   4.569   2.484  16.240  0.1552  0.1498  1.1943
 2071TIP3   OH227627   1.820   5.497  12.536 -0.0754 -0.4758 -0.0728
 2071TIP3    H127628   1.744   5.457  12.579 -0.6203 -1.3414 -1.7249
 2071TIP3    H227629   1.871   5.534  12.607 -1.6968 -0.4739  1.1578
 2072TIP3   OH227630   2.242   1.116  17.112  0.0026  0.1303  0.3305
 2072TIP3    H127631   2.154   1.084  17.136  0.5705 -2.0973 -0.3195
 2072TIP3    H227632   2.281   1.044  17.064  1.5223  1.8084 -1.0909
 2073TIP3   OH227633   0.646   2.431  12.245 -0.3125  0.6241 -1.1321
 2073TIP3    H127634   0.688   2.351  12.277 -0.7889  0.2758 -1.3587
 2073TIP3    H227635   0.618   2.409  12.156 -1.3320  0.7088 -0.8417
 2074TIP3   OH227636   3.269   5.796   2.872  0.0707 -0.5090 -0.1651
 2074TIP3    H127637   3.331   5.725   2.853 -0.3723 -0.9349 -0.0515
 2074TIP3    H227638   3.289   5.863   2.807  1.1979 -0.2872  0.3740
 2075TIP3   OH227639   0.544   3.644   2.876 -0.8957  0.1744 -0.5012
 2075TIP3    H127640   0.486   3.710   2.915 -1.4787 -1.1345  0.9403
 2075TIP3    H227641   0.616   3.695   2.840 -2.1013  1.7246 -0.8646
 2076TIP3   OH227642   0.897   6.236   2.922  0.1204 -0.0978  0.3412
 2076TIP3    H127643   0.831   6.281   2.975  0.3115  0.8787 -0.2183
 2076TIP3    H227644   0.974   6.292   2.927 -0.4021  1.0684 -2.4107
 2077TIP3   OH227645   1.373   4.617   5.089  0.0127  0.3055 -0.1282
 2077TIP3    H127646   1.286   4.656   5.077  0.1316  0.8463  0.6981
 2077TIP3    H227647   1.429   4.662   5.026 -0.2147  0.2454 -0.3761
 2078TIP3   OH227648   6.237   1.582  17.056  0.2002  0.0887  0.5060
 2078TIP3    H127649   6.300   1.535  17.001 -1.7234 -0.4176 -1.4061
 2078TIP3    H227650   6.222   1.523  17.131  0.4851 -0.7075 -0.0549
 2079TIP3   OH227651   0.587   5.804  16.762 -0.5880  1.1211 -0.1424
 2079TIP3    H127652   0.558   5.777  16.675  0.2108  0.3551 -0.1918
 2079TIP3    H227653   0.627   5.889  16.749  0.0130  0.7743 -0.6338
 2080TIP3   OH227654   2.167   5.135   6.095 -0.5783  0.2542  0.2172
 2080TIP3    H127655   2.206   5.067   6.151 -0.7358 -1.0864 -1.2276
 2080TIP3    H227656   2.177   5.216   6.145  0.0320 -0.7540  1.8069
 2081TIP3   OH227657   4.875   0.469   1.620  0.0537 -0.5872 -0.2727
 2081TIP3    H127658   4.881   0.386   1.666  4.2507  0.8090  2.2602
 2081TIP3    H227659   4.793   0.508   1.651 -1.0441 -2.9047 -0.0773
 2082TIP3   OH227660   6.192   6.461   1.793 -0.2560 -0.5946 -0.0242
 2082TIP3    H127661   6.261   6.424   1.848 -0.4556 -1.1512 -0.1375
 2082TIP3    H227662   6.199   6.555   1.805 -1.1297 -0.7350  1.9787
 2083TIP3   OH227663   4.988   2.651   5.327  0.3458  0.0555  0.1735
 2083TIP3    H127664   4.909   2.599   5.340  0.6373 -0.0069  2.0451
 2083TIP3    H227665   5.048   2.593   5.281 -0.5176 -0.0400 -0.8736
 2084TIP3   OH227666   2.117   1.513  11.929  0.8171 -0.5609 -0.1992
 2084TIP3    H127667   2.022   1.510  11.944  0.8474 -2.2219 -0.1383
 2084TIP3    H227668   2.149   1.573  11.996 -0.0689 -0.9173  0.5818
 2085TIP3   OH227669   2.514   1.850   5.283  0.0562  0.2523 -0.1691
 2085TIP3    H127670   2.458   1.883   5.354  0.7416  0.6378  0.2008
 2085TIP3    H227671   2.464   1.867   5.203  1.0827  3.8754 -0.1895
 2086TIP3   OH227672   4.626   0.509  13.915 -0.3121  0.2900  0.4741
 2086TIP3    H127673   4.581   0.428  13.891 -1.0060  0.7434  0.2043
 2086TIP3    H227674   4.575   0.578  13.872  1.8221  0.6982 -1.6366
 2087TIP3   OH227675   3.614   1.836   2.952  0.2105 -0.1667  0.2133
 2087TIP3    H127676   3.560   1.781   3.008  0.9767 -2.4851 -1.1279
 2087TIP3    H227677   3.552   1.886   2.899 -0.5556 -0.3362  0.9417
 2088TIP3   OH227678   3.569   4.608  11.031  0.1319  0.0520  0.4591
 2088TIP3    H127679   3.623   4.583  11.106  0.8534  0.3154  0.0483
 2088TIP3    H227680   3.570   4.531  10.974  0.8441  0.3613  0.0342
 2089TIP3   OH227681   1.728   4.169   2.264 -0.6664  0.3444  0.2012
 2089TIP3    H127682   1.733   4.173   2.168 -0.6828  0.4011  0.2029
 2089TIP3    H227683   1.671   4.241   2.288 -0.3136  0.5997  0.2852
 2090TIP3   OH227684   0.552   2.708   5.421 -0.0858 -0.4618 -0.0862
 2090TIP3    H127685   0.544   2.644   5.350  0.5225  1.0942 -1.6219
 2090TIP3    H227686   0.466   2.707   5.463 -1.9722  1.5115 -3.5113
 2091TIP3   OH227687   2.274   1.006  13.951 -0.1180 -0.6846  0.1075
 2091TIP3    H127688   2.205   1.046  13.898 -1.2811 -0.4127  1.7568
 2091TIP3    H227689   2.355   1.032  13.908 -0.9526  0.9762 -0.5574
 2092TIP3   OH227690   2.604   4.634  14.763  0.1469  0.3701  0.1701
 2092TIP3    H127691   2.656   4.584  14.825  0.6954 -0.1909 -0.7094
 2092TIP3    H227692   2.537   4.677  14.816  2.1080  1.9731  1.4928
 2093TIP3   OH227693   3.566   5.046  11.497 -0.1591  0.3099  0.4176
 2093TIP3    H127694   3.594   5.136  11.484  0.7729 -0.0441 -0.1673
 2093TIP3    H227695   3.629   5.009  11.558 -0.8190  0.1837  1.0329
 2094TIP3   OH227696   4.714   4.225  13.745  0.8013  0.2527  0.5822
 2094TIP3    H127697   4.753   4.261  13.665  1.3564  0.7761  1.0751
 2094TIP3    H227698   4.788   4.212  13.803  0.3514  0.2933  1.1709
 2095TIP3   OH227699   2.806   3.120   4.628 -0.2858  0.4268  0.4349
 2095TIP3    H127700   2.838   3.210   4.627 -0.5332  0.5442 -1.8902
 2095TIP3    H227701   2.711   3.127   4.641 -0.6440  0.6984 -1.9745
 2096TIP3   OH227702   2.802   5.385  13.213  0.0408 -0.2273  0.5734
 2096TIP3    H127703   2.771   5.334  13.138 -1.3058  0.7890  0.3874
 2096TIP3    H227704   2.890   5.353  13.230 -0.2560 -1.6287 -0.3957
 2097TIP3   OH227705   0.465   4.048   2.993 -0.1018  0.1595  0.4576
 2097TIP3    H127706   0.411   3.969   2.993  0.5287 -0.2911 -0.5195
 2097TIP3    H227707   0.487   4.062   2.901 -1.7006  2.5255  0.3445
 2098TIP3   OH227708   2.199   1.489  16.342 -0.4445 -0.0906 -0.6864
 2098TIP3    H127709   2.156   1.410  16.309 -1.1501  0.3899 -0.9492
 2098TIP3    H227710   2.264   1.510  16.276 -0.4220 -0.3161 -0.7381
 2099TIP3   OH227711   3.337   1.733  13.062 -0.5896  0.3560 -0.5059
 2099TIP3    H127712   3.370   1.763  12.977 -0.9877  0.3225 -0.6728
 2099TIP3    H227713   3.346   1.637  13.059 -2.4634  0.1713 -1.3076
 2100TIP3   OH227714   5.220   0.523  14.566 -0.1831  0.0451 -0.1329
 2100TIP3    H127715   5.255   0.607  14.535  0.0072 -0.3641 -1.0634
 2100TIP3    H227716   5.181   0.483  14.489 -1.1390 -0.3059  0.5139
 2101TIP3   OH227717   0.454   0.819  15.512 -0.4804 -0.4309  0.1543
 2101TIP3    H127718   0.496   0.878  15.449 -1.8935  0.3768 -0.0969
 2101TIP3    H227719   0.407   0.878  15.572 -1.8175 -1.2778 -0.0167
 2102TIP3   OH227720   2.241   3.673   2.307  0.0944  0.6206 -0.9785
 2102TIP3    H127721   2.146   3.677   2.314  0.0112 -0.0171 -1.5785
 2102TIP3    H227722   2.260   3.707   2.220  0.4037  0.6406 -0.9049
 2103TIP3   OH227723   4.299   6.375  14.460  0.1034 -0.3245 -0.3238
 2103TIP3    H127724   4.296   6.355  14.366 -0.0616  0.3118 -0.4628
 2103TIP3    H227725   4.391   6.393  14.477 -0.1873  2.0226 -0.9252
 2104TIP3   OH227726   3.636   1.461   1.463  0.4528 -0.1085 -0.4221
 2104TIP3    H127727   3.713   1.441   1.517 -0.8180  0.3735  1.6751
 2104TIP3    H227728   3.633   1.557   1.461 -0.9302 -0.0991  0.8376
 2105TIP3   OH227729   1.954   5.827   4.417 -0.0230 -0.0849 -0.1228
 2105TIP3    H127730   2.050   5.819   4.418 -0.1067 -1.3437  0.8787
 2105TIP3    H227731   1.923   5.737   4.411 -1.1342  0.0829  2.2085
 2106TIP3   OH227732   0.041   4.295  12.203 -0.0762 -0.1496  0.5782
 2106TIP3    H127733   0.046   4.287  12.108 -1.3096 -0.4316  0.5165
 2106TIP3    H227734   0.055   4.388  12.221  1.0599 -0.2310  0.2117
 2107TIP3   OH227735   3.841   4.908  14.506  0.2071  0.4870 -0.3234
 2107TIP3    H127736   3.835   4.836  14.444  2.9485  0.4556 -0.6974
 2107TIP3    H227737   3.857   4.985  14.452 -1.4071  1.1991  0.1548
 2108TIP3   OH227738   5.283   2.724   6.575 -0.7091  0.2706  0.0783
 2108TIP3    H127739   5.364   2.701   6.621 -0.5660 -2.7157 -1.4584
 2108TIP3    H227740   5.252   2.803   6.620  2.3323  0.7638  1.5565
 2109TIP3   OH227741   3.295   2.338  14.738  0.6842  0.6302  0.3474
 2109TIP3    H127742   3.284   2.361  14.830 -1.4970  2.4014 -0.2718
 2109TIP3    H227743   3.386   2.361  14.717  1.6345 -1.0474  2.3192
 2110TIP3   OH227744   0.303   6.742   5.781  0.1545  0.5080  0.2193
 2110TIP3    H127745   0.239   6.793   5.731 -1.2795 -0.3264  1.1565
 2110TIP3    H227746   0.292   6.772   5.871  0.8022  0.0421  0.4565
 2111TIP3   OH227747   0.911   5.176  11.091  0.1674 -0.3277 -0.0444
 2111TIP3    H127748   0.949   5.088  11.089 -2.2107 -1.4386 -1.1205
 2111TIP3    H227749   0.848   5.176  11.019  0.4954  2.4972 -0.4389
 2112TIP3   OH227750   2.058   4.496  12.443 -0.2446  1.0014  0.0394
 2112TIP3    H127751   2.017   4.467  12.525  0.8221 -1.4720 -0.2346
 2112TIP3    H227752   1.986   4.532  12.392 -1.2489  0.9270  1.3406
 2113TIP3   OH227753   2.551   5.209  11.639  0.1313 -0.3496 -0.4897
 2113TIP3    H127754   2.635   5.167  11.654 -0.5454 -1.0086  1.7805
 2113TIP3    H227755   2.498   5.142  11.596  0.0397 -0.7292  0.2160
 2114TIP3   OH227756   0.461   5.344  14.399 -0.9366  0.1916  0.0554
 2114TIP3    H127757   0.553   5.327  14.417 -0.6764 -0.9998 -2.0418
 2114TIP3    H227758   0.460   5.380  14.310 -2.5098  0.0107 -0.0395
 2115TIP3   OH227759   4.328   3.053   4.060  0.3845  0.0050 -0.2725
 2115TIP3    H127760   4.240   3.084   4.036  0.5788  0.8800  0.1057
 2115TIP3    H227761   4.312   2.988   4.129 -0.0916 -1.5666 -1.7749
 2116TIP3   OH227762   0.838   6.178  10.711  0.6487  0.6409  0.0612
 2116TIP3    H127763   0.867   6.219  10.630 -0.6141 -1.2702 -1.4418
 2116TIP3    H227764   0.743   6.171  10.702  0.5897 -0.4963  1.2476
 2117TIP3   OH227765   4.843   5.259  12.080 -0.2611  0.1993  0.4575
 2117TIP3    H127766   4.935   5.282  12.069 -0.3132  0.6980  0.9883
 2117TIP3    H227767   4.842   5.163  12.079  0.2348  0.1929  0.2373
 2118TIP3   OH227768   1.246   1.915  16.413 -0.3258 -0.3721  0.4549
 2118TIP3    H127769   1.155   1.888  16.429 -0.0824 -0.5706  1.5610
 2118TIP3    H227770   1.298   1.838  16.435  0.1391 -0.1872  0.0305
 2119TIP3   OH227771   4.527   0.747  15.407  0.4679 -0.5159  0.1358
 2119TIP3    H127772   4.448   0.760  15.459  0.0108  2.2369 -1.0413
 2119TIP3    H227773   4.497   0.752  15.316  1.7836 -1.0832 -0.3492
 2120TIP3   OH227774   6.271   0.570   3.475  0.0970  0.5914 -0.2933
 2120TIP3    H127775   6.176   0.577   3.466  0.0675  1.2084  0.4187
 2120TIP3    H227776   6.286   0.565   3.569  0.7855  0.7538 -0.3869
 2121TIP3   OH227777   5.139   1.177   4.748  0.1752  0.1984 -0.3422
 2121TIP3    H127778   5.184   1.247   4.701  1.3091  0.3719  0.9374
 2121TIP3    H227779   5.175   1.096   4.711 -1.3123  0.2340 -1.9924
 2122TIP3   OH227780   2.449   1.145  14.666  0.2350  0.1647  0.3514
 2122TIP3    H127781   2.504   1.130  14.743 -0.5268 -0.2592  0.8369
 2122TIP3    H227782   2.441   1.059  14.625 -0.6178  0.0763  0.6811
 2123TIP3   OH227783   0.078   0.072  15.702 -0.8555 -0.0355 -0.4505
 2123TIP3    H127784   0.058   0.155  15.657 -1.2615  0.1147 -0.0015
 2123TIP3    H227785   0.116   0.017  15.634  0.5627  0.9328 -0.4698
 2124TIP3   OH227786   6.002   0.867   1.156 -0.4561 -0.4657 -0.2217
 2124TIP3    H127787   5.911   0.885   1.134 -0.5227 -0.1547  0.2886
 2124TIP3    H227788   6.003   0.865   1.252 -0.0435 -1.0812 -0.2332
 2125TIP3   OH227789   3.163   5.170  12.621  0.6425  0.3019 -0.1110
 2125TIP3    H127790   3.080   5.199  12.582  1.7537  3.9552 -0.0967
 2125TIP3    H227791   3.146   5.167  12.715 -0.5470 -3.3905 -0.2456
 2126TIP3   OH227792   4.894   3.433   2.737 -0.5940  0.2217  0.2260
 2126TIP3    H127793   4.975   3.396   2.770  0.1527  0.9592 -0.7047
 2126TIP3    H227794   4.866   3.373   2.668 -1.7945 -0.9594  1.6897
 2127TIP3   OH227795   0.519   6.066   4.442 -0.1528  0.6086 -0.5564
 2127TIP3    H127796   0.594   6.121   4.462  2.2444 -1.5384 -2.8727
 2127TIP3    H227797   0.464   6.071   4.521  1.0825  4.2211  0.2782
 2128TIP3   OH227798   3.545   4.447  13.202 -0.0604 -0.6845  0.4023
 2128TIP3    H127799   3.609   4.416  13.266  0.4016  0.0193  0.2985
 2128TIP3    H227800   3.532   4.374  13.142  0.8064 -0.7716  0.3124
 2129TIP3   OH227801   3.696   2.912  13.586 -0.4480  0.2288  0.0746
 2129TIP3    H127802   3.650   2.967  13.522  0.7613  1.1090 -0.0702
 2129TIP3    H227803   3.637   2.907  13.661 -0.8473  1.2236 -0.1553
 2130TIP3   OH227804   0.927   0.089   2.454  0.8092 -0.2725 -0.4789
 2130TIP3    H127805   0.966   0.106   2.368 -0.8059  1.0989 -0.9960
 2130TIP3    H227806   0.849   0.145   2.456  2.3113  2.0099  3.0016
 2131TIP3   OH227807   5.010   2.669  16.461 -0.3059 -0.3251 -0.0494
 2131TIP3    H127808   5.074   2.731  16.497  0.6436  0.2714 -2.5377
 2131TIP3    H227809   4.927   2.693  16.502  0.5794  0.5923  1.2937
 2132TIP3   OH227810   3.617   3.190  15.257 -0.3170 -0.5541  0.3622
 2132TIP3    H127811   3.619   3.260  15.322  1.2276 -1.0098  0.8633
 2132TIP3    H227812   3.705   3.190  15.219 -1.0519 -0.5753 -1.4666
 2133TIP3   OH227813   6.275   3.514  12.799 -0.0960 -0.0779 -0.1056
 2133TIP3    H127814   6.240   3.547  12.716 -0.0044  1.4000  0.4003
 2133TIP3    H227815   6.327   3.438  12.775 -1.5350 -0.7684 -1.1798
 2134TIP3   OH227816   5.103   3.162   5.165 -0.1694 -0.1697  0.1259
 2134TIP3    H127817   5.143   3.076   5.162 -0.4957 -0.3949  1.4847
 2134TIP3    H227818   5.013   3.146   5.195  0.0411  0.6993  1.3288
 2135TIP3   OH227819   3.700   5.711   5.529 -0.0037 -0.3425 -0.5379
 2135TIP3    H127820   3.638   5.766   5.577  1.2768 -0.4492  1.3478
 2135TIP3    H227821   3.739   5.770   5.464 -3.0939 -0.6468 -2.8990
 2136TIP3   OH227822   5.408   0.292   5.079 -0.4108  0.3995 -0.5847
 2136TIP3    H127823   5.387   0.199   5.080 -0.3140  0.3392 -2.1006
 2136TIP3    H227824   5.432   0.312   5.170  0.4483 -1.2540 -0.4055
 2137TIP3   OH227825   0.927   4.820   1.130  0.0008  0.6089 -0.4618
 2137TIP3    H127826   0.949   4.779   1.047 -0.7102 -0.4369 -0.1486
 2137TIP3    H227827   0.872   4.756   1.175 -0.2389  1.4645  0.5015
 2138TIP3   OH227828   4.009   4.341   6.484 -0.2595 -0.0202 -0.0386
 2138TIP3    H127829   4.062   4.421   6.484  0.2401 -0.3364  0.6465
 2138TIP3    H227830   4.061   4.279   6.433 -1.0805  0.3590 -1.3539
 2139TIP3   OH227831   5.916   3.214   4.539 -0.1260  0.0252  0.4817
 2139TIP3    H127832   5.966   3.136   4.563  0.7949  0.3908 -0.1969
 2139TIP3    H227833   5.828   3.182   4.523 -0.0402 -0.6889  1.3703
 2140TIP3   OH227834   0.907   2.431   0.215 -0.0514 -0.4796 -0.5600
 2140TIP3    H127835   0.999   2.408   0.231 -0.1570 -0.2696  0.4302
 2140TIP3    H227836   0.893   2.410   0.123  1.0492 -0.3286 -0.7805
 2141TIP3   OH227837   5.861   2.999  11.646 -0.3377  0.2900 -0.7943
 2141TIP3    H127838   5.823   3.040  11.724 -0.5490 -1.0573 -0.1665
 2141TIP3    H227839   5.803   2.926  11.626 -0.4675  0.8066 -2.4269
 2142TIP3   OH227840   2.933   3.941   6.280  0.3782  0.0289 -0.0051
 2142TIP3    H127841   2.905   3.849   6.287  1.8301 -0.4113  0.5829
 2142TIP3    H227842   2.927   3.974   6.369 -0.8725  0.7578 -0.3459
 2143TIP3   OH227843   3.777   2.114   1.941 -0.0791  0.3579  0.2835
 2143TIP3    H127844   3.711   2.046   1.937  1.3632 -1.1117  0.4079
 2143TIP3    H227845   3.803   2.118   2.033  1.0054 -0.1125  0.0145
 2144TIP3   OH227846   2.522   5.238  11.132  0.1424  0.0976 -0.5553
 2144TIP3    H127847   2.507   5.242  11.227 -0.8900 -0.2664 -0.6887
 2144TIP3    H227848   2.535   5.329  11.106  2.2773  0.0652  0.1809
 2145TIP3   OH227849   2.949   4.172  13.900  0.0814 -0.3173 -0.8290
 2145TIP3    H127850   2.923   4.229  13.972 -1.4948  1.0188 -2.3909
 2145TIP3    H227851   3.045   4.169  13.906  0.0272  0.3006  0.8897
 2146TIP3   OH227852   2.897   0.426   1.556 -0.2363  0.0955 -0.2976
 2146TIP3    H127853   2.883   0.480   1.478  0.2904 -1.6321 -1.6623
 2146TIP3    H227854   2.956   0.478   1.610 -3.0214  2.7180  0.5060
 2147TIP3   OH227855   4.272   4.349   4.804  0.1112 -0.4392  0.3255
 2147TIP3    H127856   4.219   4.294   4.747 -0.5125  0.9295 -0.4626
 2147TIP3    H227857   4.331   4.288   4.848 -0.4849 -1.7117 -0.5797
 2148TIP3   OH227858   2.317   0.469   4.081 -0.1028 -0.0354  0.4616
 2148TIP3    H127859   2.333   0.479   3.987  0.0613 -2.7286  0.0994
 2148TIP3    H227860   2.367   0.539   4.122  0.3039  0.8370 -1.4211
 2149TIP3   OH227861   1.023   0.781  13.998 -0.2394 -0.2506  0.2236
 2149TIP3    H127862   0.984   0.827  13.924  1.5122 -0.0463 -0.6342
 2149TIP3    H227863   1.106   0.746  13.963  0.7492  0.0569  2.1349
 2150TIP3   OH227864   6.363   5.731  14.304 -0.1236 -0.2811 -1.2631
 2150TIP3    H127865   6.293   5.723  14.240 -0.3525 -0.4624 -0.9910
 2150TIP3    H227866   6.334   5.800  14.363 -0.4713 -0.9434 -0.6471
 2151TIP3   OH227867   1.034   3.418  15.196  0.0594  0.2734  0.0526
 2151TIP3    H127868   1.063   3.509  15.193 -1.9134  0.9447 -1.3370
 2151TIP3    H227869   1.111   3.367  15.171  1.2603  1.5277  1.0569
 2152TIP3   OH227870   0.258   0.784   0.137  0.1754  0.0658 -0.1978
 2152TIP3    H127871   0.257   0.871   0.178  1.0560 -0.1729  0.3520
 2152TIP3    H227872   0.319   0.734   0.189 -0.3103 -0.8930 -0.5297
 2153TIP3   OH227873   2.895   0.229   6.167  0.8102 -0.5653 -0.4978
 2153TIP3    H127874   2.854   0.143   6.160 -0.3117 -0.0092 -0.8558
 2153TIP3    H227875   2.824   0.289   6.187  1.8446  0.0323  1.6520
 2154TIP3   OH227876   2.982   6.080  16.360  0.2414  0.1572 -0.2472
 2154TIP3    H127877   2.978   6.116  16.449 -1.1512  2.0164 -1.0216
 2154TIP3    H227878   2.973   5.986  16.372 -1.4156  0.4829  1.5111
 2155TIP3   OH227879   0.255   6.481   5.849  0.6169  0.0777  0.1609
 2155TIP3    H127880   0.277   6.408   5.790 -2.6931 -0.9787  0.0371
 2155TIP3    H227881   0.277   6.559   5.799  2.4106 -0.7590 -0.4814
 2156TIP3   OH227882   5.003   0.333  11.319 -0.2870  0.5564 -0.0935
 2156TIP3    H127883   4.917   0.327  11.277 -0.2974  2.2955 -0.3782
 2156TIP3    H227884   5.065   0.338  11.246 -0.1703  1.9156  0.0781
 2157TIP3   OH227885   6.024   5.554   1.021 -0.2475  0.3367 -0.0813
 2157TIP3    H127886   5.981   5.599   1.094 -0.9825  0.6096 -0.6665
 2157TIP3    H227887   6.099   5.510   1.061 -0.9561  0.0174  0.9336
 2158TIP3   OH227888   3.362   1.249  16.768  0.4112  0.4620  0.2841
 2158TIP3    H127889   3.400   1.167  16.736  1.3044  1.1851 -0.5677
 2158TIP3    H227890   3.269   1.230  16.777  0.8881 -1.2531  2.1155
 2159TIP3   OH227891   3.950   6.553  16.237  0.0271 -0.2005 -0.2522
 2159TIP3    H127892   4.023   6.522  16.290 -0.5680 -0.2476  0.5745
 2159TIP3    H227893   3.917   6.475  16.193  1.3093  0.0546 -1.7070
 2160TIP3   OH227894   1.871   3.032  11.762 -0.4613  0.3524 -0.2303
 2160TIP3    H127895   1.944   3.004  11.705 -1.8544 -0.6209 -1.6336
 2160TIP3    H227896   1.850   3.120  11.732 -0.3999  0.3131 -0.3918
 2161TIP3   OH227897   4.526   5.329   2.627  0.3335  0.1901  0.1421
 2161TIP3    H127898   4.526   5.353   2.534 -0.6229 -2.7335 -0.7184
 2161TIP3    H227899   4.617   5.342   2.655  1.3264 -1.4095 -2.0086
 2162TIP3   OH227900   5.874   1.632   3.355 -0.3776 -0.6991  0.3959
 2162TIP3    H127901   5.917   1.561   3.305  0.3917 -0.3043  0.4833
 2162TIP3    H227902   5.782   1.624   3.332 -0.6014 -2.8357  1.7312
 2163TIP3   OH227903   0.361   6.324  13.072  0.4328  0.1385 -0.5489
 2163TIP3    H127904   0.361   6.328  12.976  0.3582  0.4013 -0.5386
 2163TIP3    H227905   0.454   6.317  13.095  0.3549 -2.4298 -0.7280
 2164TIP3   OH227906   1.699   3.009  17.152  0.2640  0.3557  0.0147
 2164TIP3    H127907   1.754   2.942  17.112  0.3237  0.1142  0.4873
 2164TIP3    H227908   1.682   2.976  17.241 -0.0885  0.7441  0.0974
 2165TIP3   OH227909   5.928   4.531  10.535  0.3976 -0.3593  0.3325
 2165TIP3    H127910   6.011   4.510  10.492 -0.8564  0.3211 -2.6286
 2165TIP3    H227911   5.876   4.451  10.528 -0.1951  0.0768 -0.4328
 2166TIP3   OH227912   2.449   0.975  17.012 -0.2391  0.7382 -0.2523
 2166TIP3    H127913   2.468   0.894  17.059  1.3197  1.1497 -0.1348
 2166TIP3    H227914   2.514   1.038  17.044 -1.1057  1.9010 -0.7030
 2167TIP3   OH227915   2.415   2.235  14.717 -0.1092 -0.0471 -0.1379
 2167TIP3    H127916   2.431   2.143  14.739  0.4671  0.1134  0.1432
 2167TIP3    H227917   2.484   2.256  14.654 -0.3290  0.1511 -0.3119
 2168TIP3   OH227918   6.743   1.927   4.815  0.0046 -0.0664  0.3801
 2168TIP3    H127919   6.668   1.919   4.757  0.1796 -0.1386  0.1602
 2168TIP3    H227920   6.809   1.868   4.778  0.5400  0.7727 -0.0293
 2169TIP3   OH227921   6.403   3.793   4.952 -0.3416  0.1066  0.4244
 2169TIP3    H127922   6.480   3.768   5.003 -1.1157 -0.5289  1.3215
 2169TIP3    H227923   6.330   3.787   5.014 -1.0908  0.8905 -0.3510
 2170TIP3   OH227924   5.834   3.159  16.815 -0.4344  0.2987  0.3853
 2170TIP3    H127925   5.905   3.101  16.844 -0.8519 -0.9040 -0.9041
 2170TIP3    H227926   5.794   3.190  16.896 -1.4602 -2.8056  1.1976
 2171TIP3   OH227927   0.805   1.518   6.096 -0.1367 -0.4914  0.2422
 2171TIP3    H127928   0.812   1.502   6.002  0.5671  0.4133  0.1344
 2171TIP3    H227929   0.895   1.525   6.126 -0.3256 -1.5139  1.1363
 2172TIP3   OH227930   4.957   3.577  14.894  0.2062  0.0962  0.5523
 2172TIP3    H127931   4.995   3.647  14.841 -0.4228  0.7961  1.0010
 2172TIP3    H227932   5.032   3.531  14.930  0.6398 -0.0469 -0.4925
 2173TIP3   OH227933   1.683   1.996   1.789  0.0661 -0.6917 -0.5100
 2173TIP3    H127934   1.754   1.954   1.741  0.1747 -0.2868 -0.7091
 2173TIP3    H227935   1.724   2.031   1.868  0.1132 -0.3628 -0.6775
 2174TIP3   OH227936   4.018   5.928   1.467  0.3446  0.4031  0.0232
 2174TIP3    H127937   4.005   5.842   1.427  2.8627  0.2664 -0.6521
 2174TIP3    H227938   4.006   5.990   1.396 -1.6440  0.6864  0.5471
 2175TIP3   OH227939   2.348   4.196  10.481  0.3061  0.2959 -0.3786
 2175TIP3    H127940   2.413   4.174  10.548  0.5719 -1.3888 -1.1366
 2175TIP3    H227941   2.266   4.158  10.515  0.2953  0.0493 -0.6774
 2176TIP3   OH227942   5.776   0.836   1.635 -0.4965 -0.3024  0.3698
 2176TIP3    H127943   5.721   0.759   1.651  0.0831 -1.2022 -1.6256
 2176TIP3    H227944   5.831   0.811   1.561  0.7074  1.5499  0.5729
 2177TIP3   OH227945   5.336   3.705   6.503 -0.7314 -0.2048 -0.2633
 2177TIP3    H127946   5.261   3.646   6.495  0.3297 -2.0333  2.0216
 2177TIP3    H227947   5.297   3.790   6.524 -2.2200 -0.8291 -0.3609
 2178TIP3   OH227948   3.073   6.065   2.862  0.0090 -0.2786 -0.0245
 2178TIP3    H127949   3.074   5.978   2.901  0.2038 -0.1636  0.2268
 2178TIP3    H227950   3.116   6.121   2.926 -1.4839  0.3012  0.5012
 2179TIP3   OH227951   3.332   1.260  12.926  0.2148  0.1776 -0.0611
 2179TIP3    H127952   3.350   1.263  12.832  0.6419  0.7762  0.0324
 2179TIP3    H227953   3.271   1.187  12.936  0.0480  0.1995 -0.8217
 2180TIP3   OH227954   6.732   3.377   0.322 -0.2399  0.4040  0.8119
 2180TIP3    H127955   6.803   3.423   0.277 -0.2983  0.2308  0.5407
 2180TIP3    H227956   6.679   3.339   0.252  0.2043 -0.6819  1.0341
 2181TIP3   OH227957   5.379   2.638   2.594 -0.4569 -0.8529 -0.0794
 2181TIP3    H127958   5.473   2.647   2.580 -0.4198  0.4840  0.7802
 2181TIP3    H227959   5.346   2.728   2.588 -1.3238 -0.9952  1.8164
 2182TIP3   OH227960   1.113   4.240  12.470  0.1491 -0.7482  0.3960
 2182TIP3    H127961   1.036   4.195  12.505  0.3600 -0.4842  1.2260
 2182TIP3    H227962   1.078   4.299  12.404 -0.8303  1.6860  2.8593
 2183TIP3   OH227963   5.847   4.829  16.082  0.0563  0.1672  0.2822
 2183TIP3    H127964   5.901   4.908  16.085 -1.6720  1.3693  1.9145
 2183TIP3    H227965   5.757   4.861  16.083 -0.7324 -1.7953 -1.3201
 2184TIP3   OH227966   2.764   4.148   1.114  0.0457  0.0884 -0.7322
 2184TIP3    H127967   2.728   4.194   1.039  1.0991  0.1156 -1.2330
 2184TIP3    H227968   2.750   4.208   1.188 -4.0521 -1.2777 -0.1608
 2185TIP3   OH227969   5.081   1.943  16.967  0.0766 -0.2012 -0.2676
 2185TIP3    H127970   5.134   2.022  16.976  2.1511 -1.1123 -3.1780
 2185TIP3    H227971   5.009   1.969  16.909 -2.4755  0.8153  3.0402
 2186TIP3   OH227972   0.750   3.697   5.486  0.0784 -0.2522  0.1144
 2186TIP3    H127973   0.831   3.748   5.477 -0.9898  1.6437  0.7376
 2186TIP3    H227974   0.739   3.685   5.580  0.1823 -1.5010 -0.0062
 2187TIP3   OH227975   0.624   2.580  15.337 -0.0335  0.1585 -0.0429
 2187TIP3    H127976   0.620   2.670  15.368 -0.8682  0.8758 -2.0349
 2187TIP3    H227977   0.634   2.588  15.242 -0.6707 -1.8503 -0.3263
 2188TIP3   OH227978   6.744   0.336  15.812 -0.5904 -0.1973  0.0132
 2188TIP3    H127979   6.772   0.413  15.861  0.0629 -0.0667 -0.5440
 2188TIP3    H227980   6.687   0.288  15.872 -2.0969  1.3811 -0.0691
 2189TIP3   OH227981   4.923   6.159  14.868 -0.1142 -0.3204  0.0555
 2189TIP3    H127982   4.880   6.205  14.795  0.8534 -0.1287 -0.4113
 2189TIP3    H227983   4.982   6.096  14.825 -0.3903 -1.0276  0.6869
 2190TIP3   OH227984   6.625   2.930   0.531 -0.0844 -0.6007  0.4450
 2190TIP3    H127985   6.615   2.935   0.626 -0.5359  1.5087  0.3497
 2190TIP3    H227986   6.607   3.019   0.501  0.2262 -1.1812 -1.6115
 2191TIP3   OH227987   2.613   1.861  14.429 -0.3418 -0.2767  0.7174
 2191TIP3    H127988   2.610   1.835  14.521 -2.2404  0.8448  1.0313
 2191TIP3    H227989   2.525   1.842  14.396 -0.7227  2.2813  0.0272
 2192TIP3   OH227990   6.222   1.855  11.233 -0.0855  0.4607 -0.3767
 2192TIP3    H127991   6.128   1.873  11.243 -0.0726  0.9274 -1.0564
 2192TIP3    H227992   6.247   1.900  11.153  0.6909  0.1973 -0.2924
 2193TIP3   OH227993   0.189   3.843   6.308 -0.3974 -0.3570 -0.2472
 2193TIP3    H127994   0.284   3.856   6.318 -0.5610  0.4911  0.2842
 2193TIP3    H227995   0.161   3.913   6.250 -1.3798  2.3021  3.0853
 2194TIP3   OH227996   4.249   4.784  13.769 -0.1576  0.5758 -0.2143
 2194TIP3    H127997   4.327   4.822  13.728 -0.5333  0.4469 -1.0671
 2194TIP3    H227998   4.274   4.694  13.789 -0.0860  0.5366 -0.4786
 2195TIP3   OH227999   2.674   3.572  12.538  0.3453 -0.0836 -0.0772
 2195TIP3    H128000   2.752   3.545  12.586 -1.2894 -0.9117  2.3113
 2195TIP3    H228001   2.604   3.516  12.573 -1.7047  1.9436 -0.6864
 2196TIP3   OH228002   4.536   2.075   4.105 -0.0395  0.1437 -0.0315
 2196TIP3    H128003   4.514   2.164   4.134  0.0650  0.9038 -2.1049
 2196TIP3    H228004   4.478   2.018   4.155 -0.7804  1.4486  0.6546
 2197TIP3   OH228005   1.960   2.736   4.076 -0.0013  0.4422  0.2739
 2197TIP3    H128006   1.871   2.708   4.098 -0.0673  0.6471  0.2769
 2197TIP3    H228007   1.965   2.725   3.981  0.6304 -1.4116  0.4965
 2198TIP3   OH228008   5.632   5.999  14.900 -0.6550 -0.0022  0.0342
 2198TIP3    H128009   5.572   5.965  14.834 -0.7483 -1.0963  0.6754
 2198TIP3    H228010   5.719   5.985  14.862 -0.5432 -3.0916  1.1901
 2199TIP3   OH228011   6.415   6.320  17.029  0.4161  0.2597 -0.3459
 2199TIP3    H128012   6.400   6.227  17.010 -1.0093  0.3318  0.3266
 2199TIP3    H228013   6.345   6.365  16.982  1.4519  1.0718 -1.1637
 2200TIP3   OH228014   3.639   5.462  14.523 -0.5275  0.1150 -0.0637
 2200TIP3    H128015   3.700   5.389  14.516  0.1112  0.7398 -1.4344
 2200TIP3    H228016   3.660   5.519  14.449 -2.5402  0.5457 -0.3812
 2201TIP3   OH228017   1.606   5.324  15.173  0.3428 -0.2954 -0.4763
 2201TIP3    H128018   1.550   5.303  15.248 -0.0989 -2.1084 -1.2757
 2201TIP3    H228019   1.684   5.269  15.185 -0.2062 -1.4229 -1.8806
 2202TIP3   OH228020   1.429   4.701   0.930  0.3940 -0.0449 -0.1789
 2202TIP3    H128021   1.464   4.650   1.003  0.2809  1.3196  0.8826
 2202TIP3    H228022   1.413   4.637   0.861  1.1202 -1.2881  0.7569
 2203TIP3   OH228023   3.027   4.414  13.438 -0.3353 -0.3363 -0.1906
 2203TIP3    H128024   2.942   4.408  13.395 -0.4373  1.0961 -0.2526
 2203TIP3    H228025   3.022   4.353  13.512 -3.1343  2.8364  2.5811
 2204TIP3   OH228026   5.704   6.257   3.455 -0.2841  0.3071  0.3245
 2204TIP3    H128027   5.621   6.226   3.420 -0.5098 -0.2829  1.3681
 2204TIP3    H228028   5.703   6.233   3.547  1.7042 -1.1101  0.0417
 2205TIP3   OH228029   6.495   3.064   2.491  0.0789 -0.1338  0.1380
 2205TIP3    H128030   6.581   3.082   2.529  1.4773 -0.9282 -2.4320
 2205TIP3    H228031   6.462   3.150   2.465  1.2126 -0.0413 -1.0522
 2206TIP3   OH228032   3.372   0.481  14.911 -0.3377 -0.2805 -0.5398
 2206TIP3    H128033   3.451   0.525  14.880 -0.4035 -0.7604 -1.4251
 2206TIP3    H228034   3.357   0.516  14.999 -0.3495  1.4228 -1.1845
 2207TIP3   OH228035   5.818   6.678  13.040  0.4609  0.2396 -0.3611
 2207TIP3    H128036   5.728   6.650  13.023  0.3438 -0.2437  0.9885
 2207TIP3    H228037   5.873   6.611  12.999  0.2125  0.3286 -0.8440
 2208TIP3   OH228038   4.907   2.145  16.520 -0.0220 -0.2369  0.0109
 2208TIP3    H128039   4.956   2.063  16.525  1.7959  0.7799 -0.3334
 2208TIP3    H228040   4.892   2.158  16.426  1.3780  0.7336 -0.1074
 2209TIP3   OH228041   1.471   5.058   6.504 -0.3346  0.3073 -0.4086
 2209TIP3    H128042   1.432   5.084   6.421 -3.5198 -1.2900  0.4531
 2209TIP3    H228043   1.522   4.980   6.483 -1.5066 -0.3653 -0.8273
 2210TIP3   OH228044   2.582   1.063   4.027 -0.1058  0.2235 -0.3231
 2210TIP3    H128045   2.604   1.154   4.009 -0.0880  0.3876  0.5233
 2210TIP3    H228046   2.500   1.049   3.980  0.0182  0.6006 -0.6601
 2211TIP3   OH228047   3.706   3.708   4.726  0.1324  0.8750  0.0796
 2211TIP3    H128048   3.776   3.726   4.789  1.0763  1.3257 -1.0546
 2211TIP3    H228049   3.740   3.741   4.642 -0.5939 -0.7112 -0.9080
 2212TIP3   OH228050   4.197   6.250  14.942  0.6850  0.1544  0.1147
 2212TIP3    H128051   4.200   6.228  14.849  0.2093 -0.3969  0.2211
 2212TIP3    H228052   4.135   6.323  14.947 -2.8265 -2.5449  0.4362
 2213TIP3   OH228053   1.558   0.169   3.255 -0.4839  0.1109 -0.2633
 2213TIP3    H128054   1.609   0.100   3.214 -1.7448 -0.5755 -0.7236
 2213TIP3    H228055   1.611   0.248   3.246 -0.2469 -0.2439 -2.2176
 2214TIP3   OH228056   2.933   3.060  13.759  0.1116 -0.3420 -0.4699
 2214TIP3    H128057   2.899   2.973  13.779 -2.9410  0.7457 -0.3226
 2214TIP3    H228058   2.907   3.076  13.669  0.4594  0.4867 -0.4307
 2215TIP3   OH228059   3.550   5.061  16.147 -0.9078 -0.2930  0.5298
 2215TIP3    H128060   3.584   5.134  16.198  0.3571 -0.1247 -0.4952
 2215TIP3    H228061   3.619   4.994  16.153  0.7342  0.7826 -3.2281
 2216TIP3   OH228062   6.156   4.866  16.694  0.2458  0.0853 -0.8949
 2216TIP3    H128063   6.064   4.876  16.716  0.2550 -0.1146 -0.7588
 2216TIP3    H228064   6.196   4.949  16.721  0.3190 -0.2810  0.1862
 2217TIP3   OH228065   4.613   3.495  16.375 -0.2196 -0.1513  0.0382
 2217TIP3    H128066   4.581   3.498  16.465  0.0149 -2.0594  0.2095
 2217TIP3    H228067   4.668   3.417  16.371 -0.2467 -0.1177 -1.7693
 2218TIP3   OH228068   6.745   4.207  10.936 -0.0685  0.2870 -0.3222
 2218TIP3    H128069   6.740   4.296  10.970  2.1290  1.8135 -3.5124
 2218TIP3    H228070   6.682   4.205  10.864 -1.9643 -1.6829  1.2411
 2219TIP3   OH228071   3.443   2.907  14.045  0.1542  0.3092 -0.3302
 2219TIP3    H128072   3.405   2.946  14.124 -0.2912  3.4377 -1.9237
 2219TIP3    H228073   3.367   2.873  13.996  0.0114  1.4365 -0.9188
 2220TIP3   OH228074   4.368   0.423  15.539 -0.1362  0.4663  0.1185
 2220TIP3    H128075   4.405   0.443  15.625 -2.3282  1.2872  0.9171
 2220TIP3    H228076   4.339   0.507  15.505 -1.2421 -0.1368 -0.4781
 2221TIP3   OH228077   0.792   1.619  11.326  0.1001  0.0594  0.1083
 2221TIP3    H128078   0.887   1.631  11.333  0.2759 -1.1232 -0.0810
 2221TIP3    H228079   0.780   1.524  11.325 -0.9696  0.1773 -1.3398
 2222TIP3   OH228080   2.140   4.708   0.783  0.1095 -0.2276 -0.2582
 2222TIP3    H128081   2.102   4.775   0.840 -1.1603 -1.0656 -0.0611
 2222TIP3    H228082   2.083   4.631   0.796  2.1748 -1.7319  0.4182
 2223TIP3   OH228083   1.610   3.009  13.285  0.1603  0.1858  0.0684
 2223TIP3    H128084   1.608   3.024  13.191  0.0810  1.9051  0.3032
 2223TIP3    H228085   1.702   3.017  13.309  0.3215 -1.3116  0.0047
 2224TIP3   OH228086   4.638   5.357   1.352  0.4147  0.0913 -0.0574
 2224TIP3    H128087   4.607   5.294   1.287  1.3328 -0.8350  0.3973
 2224TIP3    H228088   4.577   5.348   1.426  0.8126 -0.5963  0.1916
 2225TIP3   OH228089   1.871   1.457   6.210 -0.3677 -0.7603  0.6634
 2225TIP3    H128090   1.833   1.480   6.295 -0.0747  2.2099  0.1082
 2225TIP3    H228091   1.796   1.436   6.154 -0.6264 -1.8208  1.3923
 2226TIP3   OH228092   1.025   4.888   1.928 -0.1511  0.1017 -0.0993
 2226TIP3    H128093   1.040   4.896   2.022 -0.8307  1.8005 -0.1022
 2226TIP3    H228094   1.111   4.904   1.889 -0.1123  0.6181  0.1953
 2227TIP3   OH228095   5.967   5.550   5.946 -0.0179 -0.0290  0.6874
 2227TIP3    H128096   5.960   5.455   5.932 -1.0374  0.0186  0.8246
 2227TIP3    H228097   6.033   5.559   6.015  2.8202 -0.4247 -1.7852
 2228TIP3   OH228098   0.348   1.969   3.367  0.1400 -0.1446 -0.3107
 2228TIP3    H128099   0.337   1.896   3.305  1.1052  0.5788 -1.3740
 2228TIP3    H228100   0.267   2.018   3.361  0.6094  0.5056 -1.8373
 2229TIP3   OH228101   4.255   2.694   4.458  0.1884 -0.3548 -0.9616
 2229TIP3    H128102   4.232   2.658   4.543  1.3020 -0.3630 -0.6588
 2229TIP3    H228103   4.258   2.619   4.399  1.7037 -0.6789 -0.5037
 2230TIP3   OH228104   0.729   1.352  12.920 -0.0456  0.4832  0.4017
 2230TIP3    H128105   0.674   1.322  12.992  0.4857 -0.1463  0.5613
 2230TIP3    H228106   0.681   1.425  12.881 -0.6585  0.3873  0.9645
 2231TIP3   OH228107   5.448   2.513  11.375  0.0598 -0.0090 -0.2416
 2231TIP3    H128108   5.360   2.534  11.343  0.4954 -0.9494 -2.1971
 2231TIP3    H228109   5.433   2.448  11.444 -0.7937  0.2489 -0.1667
 2232TIP3   OH228110   1.157   0.536  10.837  0.2241  0.2387 -0.3277
 2232TIP3    H128111   1.135   0.562  10.926 -1.6470  1.0683 -0.9671
 2232TIP3    H228112   1.145   0.442  10.835  0.8507  0.1343  0.4326
 2233TIP3   OH228113   3.543   0.503  16.172 -0.0484 -0.0870  0.2727
 2233TIP3    H128114   3.548   0.529  16.264 -0.1722 -0.1126  0.2862
 2233TIP3    H228115   3.634   0.483  16.148 -0.1734 -1.4204  0.7831
 2234TIP3   OH228116   3.386   0.595  15.948 -0.4951  0.3159 -0.6552
 2234TIP3    H128117   3.343   0.518  15.913 -0.4682 -0.3666  0.7464
 2234TIP3    H228118   3.453   0.561  16.007 -1.8303  1.3622  1.6049
 2235TIP3   OH228119   6.525   4.772  16.422  0.1300 -0.2631 -0.0088
 2235TIP3    H128120   6.494   4.735  16.340 -1.6366 -0.0069  0.5082
 2235TIP3    H228121   6.569   4.699  16.466  1.8888 -0.1773 -1.5303
 2236TIP3   OH228122   3.402   4.833  11.018 -0.1213 -0.8602 -0.1981
 2236TIP3    H128123   3.435   4.875  10.938  0.6996 -1.7871 -0.3576
 2236TIP3    H228124   3.457   4.755  11.029 -2.0057 -2.2560 -0.2485
 2237TIP3   OH228125   5.241   5.680  15.178  0.0445 -0.7603 -0.3568
 2237TIP3    H128126   5.255   5.650  15.088 -1.1239  1.2147 -1.2530
 2237TIP3    H228127   5.150   5.656  15.197 -0.1138 -0.0275 -0.1778
 2238TIP3   OH228128   6.739   1.880   3.145 -0.4400 -0.3524 -0.1434
 2238TIP3    H128129   6.673   1.811   3.140 -0.2441 -0.6327  0.8787
 2238TIP3    H228130   6.819   1.835   3.173 -0.1326  0.1805 -0.1375
 2239TIP3   OH228131   3.200   3.134  15.304 -0.2840 -0.1756  0.4990
 2239TIP3    H128132   3.172   3.054  15.260 -3.1727  2.1769 -2.4257
 2239TIP3    H228133   3.281   3.159  15.259  0.2935 -1.0261  1.0162
 2240TIP3   OH228134   6.434   1.343  14.078  0.3769  0.0284  0.0554
 2240TIP3    H128135   6.451   1.424  14.031  0.7112 -0.2835 -0.3648
 2240TIP3    H228136   6.462   1.274  14.018  0.9917 -0.3718  0.7870
 2241TIP3   OH228137   1.719   5.043  11.164  0.3904  0.0062  0.7503
 2241TIP3    H128138   1.766   5.110  11.213 -2.2004  1.3008  1.6494
 2241TIP3    H228139   1.696   5.085  11.081  0.6642 -0.5681  0.3722
 2242TIP3   OH228140   3.064   4.303   2.159  0.8220  0.0665  0.5431
 2242TIP3    H128141   3.001   4.362   2.116 -2.0851 -1.1640  2.7213
 2242TIP3    H228142   3.072   4.229   2.098 -0.6398 -0.1629  0.5783
 2243TIP3   OH228143   5.497   2.780   0.206  0.5306 -0.0006 -0.3165
 2243TIP3    H128144   5.504   2.814   0.296  1.6479  0.1988 -0.4596
 2243TIP3    H228145   5.566   2.714   0.201 -0.5621 -1.1501 -0.5490
 2244TIP3   OH228146   5.205   3.225   4.418  0.0474 -0.0842  0.2073
 2244TIP3    H128147   5.148   3.194   4.348 -0.9098  0.9329  0.5161
 2244TIP3    H228148   5.173   3.178   4.496 -0.3511  0.4584  0.3733
 2245TIP3   OH228149   6.012   3.664  11.241  0.3280 -0.1970 -0.3201
 2245TIP3    H128150   5.924   3.637  11.267  0.1901  0.2825 -0.2816
 2245TIP3    H228151   6.060   3.673  11.324  0.6856 -1.3482 -0.3833
 2246TIP3   OH228152   0.581   5.404  15.556  0.5128 -0.1744 -0.7613
 2246TIP3    H128153   0.659   5.368  15.514  0.4350  1.6106 -2.6658
 2246TIP3    H228154   0.508   5.361  15.512  0.2970 -2.6944  1.8075
 2247TIP3   OH228155   3.265   0.206  11.951 -0.5291 -0.2628  0.3420
 2247TIP3    H128156   3.171   0.190  11.956 -0.2623 -2.2135 -0.0562
 2247TIP3    H228157   3.303   0.121  11.931  1.6489 -0.3064  3.8947
 2248TIP3   OH228158   1.508   4.541  16.044 -0.0909  0.1209  0.2465
 2248TIP3    H128159   1.416   4.516  16.036  0.0619 -0.4566  0.2472
 2248TIP3    H228160   1.546   4.473  16.101  0.3697  0.2644  0.1097
 2249TIP3   OH228161   2.950   2.555   5.726  0.6381 -0.5358 -0.9186
 2249TIP3    H128162   2.961   2.586   5.816  1.2992 -0.1289 -1.1323
 2249TIP3    H228163   2.911   2.468   5.735 -1.1811  0.3087 -0.3044
 2250TIP3   OH228164   4.359   5.996  10.984  0.3265 -0.0388 -0.4239
 2250TIP3    H128165   4.381   5.948  10.904 -1.9097  0.1724 -1.2556
 2250TIP3    H228166   4.346   6.086  10.955 -1.3208 -0.1143 -0.0365
 2251TIP3   OH228167   4.521   2.630  16.961 -0.1876  0.2615  0.0774
 2251TIP3    H128168   4.481   2.662  17.042  1.8910  1.0482  0.8752
 2251TIP3    H228169   4.487   2.541  16.950 -3.4342  1.4148 -0.2995
 2252TIP3   OH228170   5.646   4.446   4.210 -0.0778 -0.4422 -0.5200
 2252TIP3    H128171   5.599   4.526   4.231  0.4450 -0.4983  0.9776
 2252TIP3    H228172   5.737   4.464   4.232  0.6622 -0.3577 -3.3238
 2253TIP3   OH228173   3.908   0.265  16.250 -0.3372 -0.0945 -0.4312
 2253TIP3    H128174   3.818   0.235  16.255 -0.9311  1.2318 -2.1226
 2253TIP3    H228175   3.961   0.188  16.274 -1.8847 -0.8392  0.7490
 2254TIP3   OH228176   5.885   1.703   5.234 -0.2008 -0.4389  0.7658
 2254TIP3    H128177   5.951   1.759   5.193  1.4673 -3.3042 -0.7172
 2254TIP3    H228178   5.805   1.721   5.183  0.5795 -0.2387 -0.4277
 2255TIP3   OH228179   3.150   4.144   2.382 -0.1071 -0.1332 -0.1557
 2255TIP3    H128180   3.106   4.197   2.316 -0.7938  0.2867  0.6272
 2255TIP3    H228181   3.080   4.114   2.439  0.6019  0.5210  1.0994
 2256TIP3   OH228182   3.899   0.825   2.359 -0.2568  0.4216  0.2287
 2256TIP3    H128183   3.933   0.837   2.270 -2.0905 -1.0368 -0.7404
 2256TIP3    H228184   3.886   0.914   2.392  1.2895  0.9904 -0.5836
 2257TIP3   OH228185   1.760   5.909  17.093 -0.4990  0.7273 -0.7634
 2257TIP3    H128186   1.844   5.863  17.090 -1.1871 -0.6045 -0.3124
 2257TIP3    H228187   1.777   5.985  17.149  0.3682  0.3810 -0.5326
 2258TIP3   OH228188   2.526   5.624   4.327 -0.2364  0.1435 -0.0611
 2258TIP3    H128189   2.491   5.540   4.356  1.2068 -0.3781  0.2971
 2258TIP3    H228190   2.477   5.646   4.248  0.8836 -2.2106 -1.5184
 2259TIP3   OH228191   1.084   6.223  13.327 -0.1512 -0.1690 -0.3174
 2259TIP3    H128192   1.040   6.307  13.336 -1.0960 -0.6048 -0.6806
 2259TIP3    H228193   1.116   6.203  13.415  1.4129  1.2484 -0.5247
 2260TIP3   OH228194   5.348   3.091  11.822 -0.0163  0.2908 -0.2882
 2260TIP3    H128195   5.322   3.052  11.905  0.1181 -0.1931 -0.4689
 2260TIP3    H228196   5.340   3.186  11.836  2.4201  0.3796  1.1254
 2261TIP3   OH228197   5.778   0.126   2.761  0.3845 -0.5759  0.8063
 2261TIP3    H128198   5.823   0.186   2.821  1.4205 -1.2363  0.7064
 2261TIP3    H228199   5.801   0.039   2.792 -1.4682 -0.9692  1.2177
 2262TIP3   OH228200   4.540   1.005  12.637 -0.8138 -0.2458 -0.5172
 2262TIP3    H128201   4.492   1.083  12.611 -1.8700 -0.4136  0.8084
 2262TIP3    H228202   4.576   0.970  12.556  0.2542  1.9569 -1.0605
 2263TIP3   OH228203   5.104   5.749   3.822 -0.1234 -0.1021 -0.8139
 2263TIP3    H128204   5.095   5.665   3.777 -2.1026 -0.7687  0.6313
 2263TIP3    H228205   5.052   5.738   3.902  1.6125  1.6646  0.6647
 2264TIP3   OH228206   0.270   1.782   6.455 -0.0225 -0.2967  0.2556
 2264TIP3    H128207   0.255   1.875   6.468 -1.4122 -0.4241 -0.3070
 2264TIP3    H228208   0.224   1.739   6.527 -0.3335 -0.5969 -0.1196
 2265TIP3   OH228209   1.910   6.035   3.238 -0.2874  0.0476 -0.0168
 2265TIP3    H128210   1.934   6.117   3.196  0.4046 -0.3379 -0.3947
 2265TIP3    H228211   1.825   6.052   3.278 -0.8535  0.5085 -1.3640
 2266TIP3   OH228212   3.019   5.782  12.883 -0.5521  0.2191  0.2182
 2266TIP3    H128213   2.998   5.867  12.922 -1.0839 -0.1291  0.6946
 2266TIP3    H228214   2.997   5.718  12.950 -1.4765 -0.3859 -0.6354
 2267TIP3   OH228215   5.093   4.212  12.496 -0.0574  0.1347 -0.3695
 2267TIP3    H128216   5.114   4.186  12.585 -0.4279  2.1718  0.3461
 2267TIP3    H228217   5.017   4.269  12.504 -2.0932 -2.0504 -2.2956
 2268TIP3   OH228218   6.184   3.093  13.688 -0.5071 -0.0603 -0.4527
 2268TIP3    H128219   6.147   3.174  13.725 -0.0582 -0.3843  0.7516
 2268TIP3    H228220   6.158   3.095  13.596 -1.3515  0.9651 -0.2150
 2269TIP3   OH228221   0.471   4.421   2.805 -0.4996  0.2835  0.0192
 2269TIP3    H128222   0.421   4.409   2.885  0.7462  0.7869  0.8975
 2269TIP3    H228223   0.439   4.351   2.747 -1.7625  0.2151  0.7512
 2270TIP3   OH228224   4.080   0.368   5.209 -0.2525  0.3156  0.2403
 2270TIP3    H128225   4.129   0.294   5.173 -1.1024 -0.5044  0.7222
 2270TIP3    H228226   4.144   0.416   5.260  0.2569 -0.2584  0.1564
 2271TIP3   OH228227   4.516   2.535   4.319  0.1546 -0.6697  0.0444
 2271TIP3    H128228   4.441   2.485   4.352 -1.1502  1.5248  0.6500
 2271TIP3    H228229   4.491   2.561   4.230 -0.5812  1.3448  0.7662
 2272TIP3   OH228230   2.656   5.209  14.465 -0.8625 -0.3275  0.4565
 2272TIP3    H128231   2.581   5.152  14.451  0.4165 -1.5119 -2.3063
 2272TIP3    H228232   2.677   5.199  14.558 -2.1402 -2.5104  0.5701
 2273TIP3   OH228233   3.852   0.129  13.501 -0.5197  0.2085  0.1141
 2273TIP3    H128234   3.826   0.091  13.417  2.3199 -0.5839 -0.5381
 2273TIP3    H228235   3.873   0.220  13.480  1.4982 -0.3202 -0.4538
 2274TIP3   OH228236   6.006   6.739   5.367  0.0630  0.4960 -0.4305
 2274TIP3    H128237   6.044   6.651   5.362  0.8232  0.6338  1.6178
 2274TIP3    H228238   6.043   6.786   5.292  3.2711  0.2964  0.8374
 2275TIP3   OH228239   3.512   3.116   4.182 -0.1095  0.6053  0.1058
 2275TIP3    H128240   3.433   3.083   4.140  0.2006  0.6024 -0.4919
 2275TIP3    H228241   3.549   3.040   4.227  0.6363  0.0881 -1.3175
 2276TIP3   OH228242   4.477   2.477  12.032  0.5217 -0.2428 -0.1615
 2276TIP3    H128243   4.444   2.553  11.985  0.1042 -1.0138 -1.1513
 2276TIP3    H228244   4.527   2.513  12.105 -0.9594  0.9648  0.2866
 2277TIP3   OH228245   3.256   1.213  11.501  0.2628  0.1708  0.5090
 2277TIP3    H128246   3.294   1.178  11.420  1.5755  1.3209  0.5928
 2277TIP3    H228247   3.171   1.169  11.509  1.3518 -2.1121  0.0533
 2278TIP3   OH228248   5.394   2.117   4.040  0.0276  0.3870 -0.0687
 2278TIP3    H128249   5.363   2.167   4.115  1.3856  1.9912 -0.5206
 2278TIP3    H228250   5.452   2.177   3.993 -0.3944 -0.7447 -2.1413
 2279TIP3   OH228251   0.947   2.527  11.953  1.0218  0.1366 -0.1176
 2279TIP3    H128252   0.978   2.597  12.010 -0.5523 -0.2922  1.3316
 2279TIP3    H228253   0.854   2.547  11.939  1.0588 -0.4947 -1.4671
 2280TIP3   OH228254   0.751   3.645   1.683 -0.1316  0.1353  0.5100
 2280TIP3    H128255   0.803   3.722   1.658 -0.6134  0.9990  1.9975
 2280TIP3    H228256   0.685   3.680   1.744 -0.4870 -1.4314  1.0693
 2281TIP3   OH228257   1.757   6.376  15.997  0.2146 -0.3660  0.0572
 2281TIP3    H128258   1.674   6.385  15.951 -0.6307 -0.6830  1.4665
 2281TIP3    H228259   1.760   6.283  16.023  0.7160 -0.2172  0.5611
 2282TIP3   OH228260   2.693   0.172  13.184  0.4658 -0.4768 -0.2878
 2282TIP3    H128261   2.620   0.194  13.243  0.5603 -3.1376  0.9855
 2282TIP3    H228262   2.772   0.186  13.237  0.6530 -1.1565 -0.3732
 2283TIP3   OH228263   2.685   3.040   2.724 -0.2321  0.2947 -0.1486
 2283TIP3    H128264   2.621   3.072   2.787 -1.4418  0.3185 -1.3527
 2283TIP3    H228265   2.672   2.945   2.722 -1.0032  0.3946 -1.1540
 2284TIP3   OH228266   3.220   2.933   3.598 -0.1172  0.1997 -0.5731
 2284TIP3    H128267   3.273   2.958   3.673 -0.3225 -0.0963 -0.3219
 2284TIP3    H228268   3.130   2.955   3.624 -0.0284  1.5671 -1.3640
 2285TIP3   OH228269   0.771   0.214   3.220 -0.5764 -0.2823  0.1975
 2285TIP3    H128270   0.856   0.221   3.177 -0.3717  0.4570  0.7116
 2285TIP3    H228271   0.784   0.252   3.307 -1.7617  1.1653 -0.1982
 2286TIP3   OH228272   5.227   2.626  13.519  0.1126  0.1127  0.5138
 2286TIP3    H128273   5.168   2.636  13.444  0.7502  1.8248  0.2149
 2286TIP3    H228274   5.176   2.659  13.594  0.4883  1.1028  0.3423
 2287TIP3   OH228275   1.193   4.224  12.818  0.0595  0.4380  0.0323
 2287TIP3    H128276   1.261   4.236  12.751  1.1419 -1.5910  0.6693
 2287TIP3    H228277   1.208   4.296  12.880  1.7727 -0.0567  0.2421
 2288TIP3   OH228278   5.166   2.284  11.357  0.2790 -0.4399  0.1292
 2288TIP3    H128279   5.125   2.222  11.296 -1.6367  0.0394  0.8565
 2288TIP3    H228280   5.117   2.273  11.439  2.5868 -0.8641  1.5466
 2289TIP3   OH228281   0.583   6.563   4.416 -0.1075  0.2091 -0.1733
 2289TIP3    H128282   0.546   6.635   4.467  0.9626  2.2350 -2.1158
 2289TIP3    H228283   0.656   6.532   4.469  1.8171  3.1428 -0.8925
 2290TIP3   OH228284   2.831   4.841   6.496 -0.4465 -0.1908 -0.2397
 2290TIP3    H128285   2.891   4.874   6.428 -1.0970 -0.8191 -1.1361
 2290TIP3    H228286   2.887   4.826   6.572  0.0952  1.7674 -0.1814
 2291TIP3   OH228287   1.426   1.707   4.589 -0.1496  0.2777  0.4483
 2291TIP3    H128288   1.456   1.624   4.553 -0.5876  0.0763  0.5405
 2291TIP3    H228289   1.495   1.734   4.649  0.0623  0.0568  0.3026
 2292TIP3   OH228290   0.811   4.307  13.021 -0.5590  0.3135  0.4475
 2292TIP3    H128291   0.856   4.291  12.938  1.1695  0.5671  1.2971
 2292TIP3    H228292   0.756   4.383  13.004  1.9182  2.1585  0.2734
 2293TIP3   OH228293   3.865   6.430   0.175 -0.5767  0.0288 -0.0622
 2293TIP3    H128294   3.847   6.340   0.201  0.2561  0.2046  1.1813
 2293TIP3    H228295   3.941   6.424   0.118  0.0310  0.0245  0.7402
 2294TIP3   OH228296   4.665   0.953   3.811  0.8004 -0.4214  0.1757
 2294TIP3    H128297   4.600   0.956   3.881  1.3100 -0.5763  0.6668
 2294TIP3    H228298   4.749   0.941   3.857  1.4611  1.9696 -0.2569
 2295TIP3   OH228299   4.378   5.576  15.316  0.0697 -0.1878 -0.2962
 2295TIP3    H128300   4.401   5.669  15.314 -2.3038  0.4735 -1.7437
 2295TIP3    H228301   4.412   5.541  15.234  0.5155 -0.4797  0.0115
 2296TIP3   OH228302   4.253   4.266   0.357 -0.4652 -0.0736  0.3646
 2296TIP3    H128303   4.187   4.253   0.289  0.1879  0.0793 -0.2999
 2296TIP3    H228304   4.329   4.300   0.311  0.9449 -2.5153  0.7231
 2297TIP3   OH228305   6.063   1.370  14.576  0.2304  0.6278 -0.5361
 2297TIP3    H128306   6.095   1.418  14.499 -1.0866  1.8455 -0.3495
 2297TIP3    H228307   6.143   1.341  14.621  1.0311  0.0925 -2.2089
 2298TIP3   OH228308   3.322   2.608   3.933 -0.3026  0.1034 -1.0440
 2298TIP3    H128309   3.335   2.649   3.847  1.0414  0.2233 -0.8135
 2298TIP3    H228310   3.392   2.542   3.938 -0.6417 -0.1992 -0.2198
 2299TIP3   OH228311   0.658   4.829  17.030  0.4950  0.0688  0.0242
 2299TIP3    H128312   0.572   4.793  17.006  0.7570 -1.2592  0.9708
 2299TIP3    H228313   0.638   4.903  17.086 -0.0502  0.8747 -1.1929
 2300TIP3   OH228314   4.686   4.780  13.544 -0.2063 -0.4179 -0.0216
 2300TIP3    H128315   4.718   4.703  13.497  0.3506  0.4007 -1.0041
 2300TIP3    H228316   4.655   4.839  13.476  2.2544  1.5609  0.4520
 2301TIP3   OH228317   4.284   5.580   2.467  1.3038 -0.0972 -0.5419
 2301TIP3    H128318   4.333   5.499   2.481  1.3299  0.0102  0.0010
 2301TIP3    H228319   4.344   5.649   2.494  0.4279 -0.0171  1.4105
 2302TIP3   OH228320   1.066   6.438  16.869  0.1744 -0.0294  0.3850
 2302TIP3    H128321   1.113   6.519  16.846 -0.1508 -0.0394 -0.3388
 2302TIP3    H228322   1.119   6.368  16.831 -1.3960  0.0680 -2.1834
 2303TIP3   OH228323   3.579   6.580  15.178 -0.5588  0.1856 -0.2159
 2303TIP3    H128324   3.499   6.528  15.170 -1.4438  1.4847 -0.2145
 2303TIP3    H228325   3.630   6.559  15.100 -0.5851 -1.1521  0.1110
 2304TIP3   OH228326   2.299   4.702   5.074 -0.0816 -0.6655 -0.0636
 2304TIP3    H128327   2.212   4.736   5.052  1.3761  3.5589 -0.2488
 2304TIP3    H228328   2.282   4.628   5.131 -3.8200 -0.0291 -0.1088
 2305TIP3   OH228329   0.757   6.214   2.482  0.3879 -0.3199 -0.2031
 2305TIP3    H128330   0.743   6.156   2.408  0.7349 -2.0556  1.0272
 2305TIP3    H228331   0.850   6.205   2.504  1.1991  2.9176 -1.6892
 2306TIP3   OH228332   0.946   6.682  13.072 -0.4894  0.3443  0.4775
 2306TIP3    H128333   1.001   6.712  13.144  0.9078 -1.4843  0.2419
 2306TIP3    H228334   0.874   6.636  13.115  1.1923 -2.1816  0.7960
 2307TIP3   OH228335   2.592   1.976   3.923  0.0569 -0.6385  0.1122
 2307TIP3    H128336   2.678   1.935   3.929 -1.1180 -3.0605  1.8384
 2307TIP3    H228337   2.581   2.022   4.006 -0.5602 -0.8527  0.1505
 2308TIP3   OH228338   1.037   5.983  16.114  0.3554 -0.3345 -0.5755
 2308TIP3    H128339   1.112   6.039  16.093  0.2511  0.6777  1.4933
 2308TIP3    H228340   1.075   5.912  16.166 -0.2094  0.8570  1.5785
 2309TIP3   OH228341   5.502   1.109   2.880  0.3742  0.3254  0.0720
 2309TIP3    H128342   5.590   1.081   2.904 -0.1914 -1.1045  0.6225
 2309TIP3    H228343   5.445   1.071   2.948 -0.7356  0.5432 -0.6989
 2310TIP3   OH228344   0.255   0.285   1.526  0.2022 -0.2928  0.4477
 2310TIP3    H128345   0.188   0.343   1.562 -1.3972 -1.7617 -0.0494
 2310TIP3    H228346   0.331   0.342   1.513 -1.4780  1.8516 -0.5958
 2311TIP3   OH228347   2.294   3.474   3.018 -0.3431  0.2930  0.0953
 2311TIP3    H128348   2.212   3.461   3.066  0.1932  0.0716  0.9686
 2311TIP3    H228349   2.286   3.562   2.982 -0.7802  0.4510  0.5562
 2312TIP3   OH228350   0.180   0.730   4.458  0.2944  0.5728  0.5401
 2312TIP3    H128351   0.226   0.797   4.508  0.0846 -0.9137  2.8936
 2312TIP3    H228352   0.248   0.672   4.426  0.2605 -0.2470  1.8975
 2313TIP3   OH228353   4.145   5.925   4.648 -0.5793  0.1758 -0.2704
 2313TIP3    H128354   4.054   5.908   4.672 -1.1926 -1.0865 -3.0884
 2313TIP3    H228355   4.194   5.915   4.729 -2.9505  1.2758  1.4024
 2314TIP3   OH228356   1.626   5.478   3.727 -0.3144  0.1191  0.2945
 2314TIP3    H128357   1.714   5.515   3.722 -0.4440  0.3616 -0.5140
 2314TIP3    H228358   1.587   5.501   3.642 -1.5432  1.0147  1.0786
 2315TIP3   OH228359   0.836   4.316   1.632 -0.4032  0.4090  0.0654
 2315TIP3    H128360   0.839   4.410   1.649 -0.4399  0.2415  1.1120
 2315TIP3    H228361   0.849   4.276   1.718  0.3499 -0.5542 -0.4720
 2316TIP3   OH228362   2.566   1.630  12.066 -0.1044 -0.1128 -0.0591
 2316TIP3    H128363   2.658   1.609  12.048  0.1818  1.2721 -0.3381
 2316TIP3    H228364   2.562   1.726  12.062 -1.2343 -0.0522  1.5053
 2317TIP3   OH228365   6.364   5.192  14.029  0.4439  0.0372 -1.3420
 2317TIP3    H128366   6.372   5.279  13.991 -0.6853  0.5298 -0.5444
 2317TIP3    H228367   6.395   5.203  14.119  0.1949 -0.3548 -1.2085
 2318TIP3   OH228368   0.650   3.009   5.423  0.1276  0.6518  0.0185
 2318TIP3    H128369   0.628   3.089   5.471 -2.0259 -0.6939  1.4292
 2318TIP3    H228370   0.589   2.943   5.456  0.9251 -1.2695 -2.0650
 2319TIP3   OH228371   2.481   3.046   2.985 -0.0806  0.2074 -0.0793
 2319TIP3    H128372   2.435   3.123   2.953 -1.9494 -0.1873  1.4724
 2319TIP3    H228373   2.488   3.059   3.079 -0.2965 -1.4189  0.2042
 2320TIP3   OH228374   3.740   2.158   0.556 -0.0116 -0.4068  0.2373
 2320TIP3    H128375   3.695   2.098   0.616 -0.8442 -0.7864 -0.7442
 2320TIP3    H228376   3.730   2.244   0.598 -0.2927 -0.7064  0.8077
 2321TIP3   OH228377   2.631   2.990   5.813  0.3773 -0.3366 -0.4187
 2321TIP3    H128378   2.716   2.965   5.777  0.4079  0.3521 -0.8354
 2321TIP3    H228379   2.578   2.911   5.805  0.7538 -0.5538 -0.8436
 2322TIP3   OH228380   6.662   4.801   4.657 -0.3500 -0.3717 -0.7466
 2322TIP3    H128381   6.664   4.864   4.729  0.3752  0.1356 -1.1888
 2322TIP3    H228382   6.579   4.754   4.668 -0.3705 -0.1356  0.2636
 2323TIP3   OH228383   0.882   4.033   0.185  0.0409  0.3234 -0.0649
 2323TIP3    H128384   0.909   4.025   0.276 -0.4692 -0.6469  0.0112
 2323TIP3    H228385   0.787   4.022   0.186  0.0925 -0.2637 -0.7688
 2324TIP3   OH228386   1.909   5.430   3.399 -0.7701 -0.6164  0.5309
 2324TIP3    H128387   1.840   5.405   3.338 -2.2183  0.6833  1.5223
 2324TIP3    H228388   1.904   5.526   3.402  3.4305 -0.1122 -1.9244
 2325TIP3   OH228389   4.350   4.844   5.505  0.6418  0.3471 -0.7091
 2325TIP3    H128390   4.431   4.856   5.456  1.5055 -1.4461  0.1912
 2325TIP3    H228391   4.322   4.755   5.483 -0.4687  0.5290 -0.1015
 2326TIP3   OH228392   5.926   4.925  16.460  0.8439  0.1624  1.0360
 2326TIP3    H128393   5.905   4.986  16.531  0.0069  0.3041  0.6833
 2326TIP3    H228394   5.843   4.883  16.440  0.7357  1.1824 -0.8507
 2327TIP3   OH228395   5.443   2.734   3.657 -0.0414  0.2480 -0.2209
 2327TIP3    H128396   5.427   2.640   3.663  1.9789 -0.2578 -1.7649
 2327TIP3    H228397   5.392   2.762   3.582  0.5364  0.0732 -0.6840
 2328TIP3   OH228398   0.339   2.413  11.426  0.1941 -0.1642 -0.3177
 2328TIP3    H128399   0.304   2.336  11.471 -0.6150  1.4267  1.9732
 2328TIP3    H228400   0.267   2.476  11.428  1.0906  0.9436 -1.4702
 2329TIP3   OH228401   1.528   6.541  15.151  0.3742  0.0840  0.2872
 2329TIP3    H128402   1.546   6.634  15.138 -0.6972  0.4748  1.4372
 2329TIP3    H228403   1.590   6.514  15.218  0.9870 -0.1586 -0.3630
 2330TIP3   OH228404   5.063   2.262   4.001  0.7578  0.1365 -0.1608
 2330TIP3    H128405   5.074   2.246   3.907  2.4517 -2.5596  0.4167
 2330TIP3    H228406   4.972   2.239   4.019  0.6455 -0.0866 -0.9863
 2331TIP3   OH228407   4.169   5.967  11.687  0.1076 -0.3486  0.1815
 2331TIP3    H128408   4.185   5.986  11.595 -2.3079 -1.8637 -0.6232
 2331TIP3    H228409   4.189   5.874  11.697 -1.2840 -0.6023  0.7565
 2332TIP3   OH228410   1.606   3.688  14.645 -0.1842 -0.4951  0.4057
 2332TIP3    H128411   1.516   3.700  14.613 -0.5618 -1.9181  0.8578
 2332TIP3    H228412   1.600   3.614  14.706  0.9851  0.5438  1.8449
 2333TIP3   OH228413   2.015   1.173   3.929 -0.1691 -0.5972 -0.5037
 2333TIP3    H128414   1.944   1.167   3.865 -0.3060 -1.2845 -0.3010
 2333TIP3    H228415   1.975   1.150   4.012 -0.3707  1.9296  0.1532
 2334TIP3   OH228416   3.887   1.300  14.890 -0.3440 -0.4794 -0.0456
 2334TIP3    H128417   3.943   1.360  14.841 -0.9887  0.3541  0.2022
 2334TIP3    H228418   3.895   1.216  14.845  0.0388 -0.0360 -0.8167
 2335TIP3   OH228419   2.649   4.486   0.680 -0.2707 -0.0881 -0.0284
 2335TIP3    H128420   2.587   4.535   0.626  0.9852  0.6249 -0.8717
 2335TIP3    H228421   2.657   4.401   0.637 -0.1020  0.0836 -0.3337
 2336TIP3   OH228422   1.977   0.889  14.369 -0.1641  0.7341 -0.2842
 2336TIP3    H128423   2.039   0.961  14.362 -1.3074  1.6728 -1.0987
 2336TIP3    H228424   2.023   0.823  14.422  1.1098  1.8121  0.0089
 2337TIP3   OH228425   2.798   0.353  12.639 -0.3287  0.4048 -0.1852
 2337TIP3    H128426   2.872   0.413  12.645 -0.6493  0.8029 -0.2231
 2337TIP3    H228427   2.797   0.307  12.724 -0.4010  0.8216  0.0396
 2338TIP3   OH228428   4.770   3.087   1.621 -0.3137 -0.4464  0.0092
 2338TIP3    H128429   4.815   3.025   1.565 -1.0240  0.4599 -1.6241
 2338TIP3    H228430   4.830   3.103   1.693  1.4594 -0.1891 -1.4709
 2339TIP3   OH228431   5.257   1.625   0.665  0.0934  0.3262  0.3246
 2339TIP3    H128432   5.250   1.687   0.593 -1.1645  0.7218  0.7634
 2339TIP3    H228433   5.325   1.563   0.637  0.0246  0.7935 -0.9406
 2340TIP3   OH228434   5.039   4.165   3.243 -0.8149 -0.0508  0.4900
 2340TIP3    H128435   5.014   4.118   3.164  0.6929 -0.5617  0.2884
 2340TIP3    H228436   4.982   4.243   3.243 -0.1935  0.4881 -1.6321
 2341TIP3   OH228437   1.656   1.987  15.515 -0.2992  0.3720  0.2306
 2341TIP3    H128438   1.738   1.985  15.564 -0.8234  0.4325  1.1355
 2341TIP3    H228439   1.587   1.986  15.582 -1.0389  1.4226 -0.4682
 2342TIP3   OH228440   1.443   2.752   1.090  0.0092  0.1668 -1.0225
 2342TIP3    H128441   1.524   2.767   1.139 -0.6832  0.4507  0.0927
 2342TIP3    H228442   1.395   2.688   1.143 -1.9265  2.4304  0.1485
 2343TIP3   OH228443   2.345   5.921   4.430  0.6898 -0.2512 -0.5092
 2343TIP3    H128444   2.358   5.830   4.404  0.8544 -0.4307  0.1662
 2343TIP3    H228445   2.291   5.959   4.361  2.6845 -0.1708 -2.1525
 2344TIP3   OH228446   6.350   2.569   4.802 -0.0301 -0.0863 -0.4193
 2344TIP3    H128447   6.334   2.501   4.868  1.3055  0.1614  0.2012
 2344TIP3    H228448   6.408   2.527   4.738  1.2175  0.5821  0.2323
 2345TIP3   OH228449   6.583   4.323   4.829 -0.0337  0.2701 -0.0159
 2345TIP3    H128450   6.637   4.323   4.750 -0.1779 -0.4131 -0.1249
 2345TIP3    H228451   6.558   4.231   4.841 -1.0309  0.5463  0.1221
 2346TIP3   OH228452   3.558   3.719   3.111  0.4451 -0.7183  0.0850
 2346TIP3    H128453   3.536   3.726   3.018 -0.6487  0.6028  0.4111
 2346TIP3    H228454   3.619   3.791   3.127 -0.0290 -0.4155  0.5561
 2347TIP3   OH228455   3.626   5.422   3.280 -0.1256  0.3848 -0.3584
 2347TIP3    H128456   3.550   5.420   3.221 -1.2665 -1.1695  1.0813
 2347TIP3    H228457   3.610   5.353   3.343  3.5337 -1.4984 -1.2031
 2348TIP3   OH228458   0.054   1.584  16.062  0.1376 -0.7364  1.0559
 2348TIP3    H128459   0.141   1.571  16.025  1.1203 -0.0987  3.0063
 2348TIP3    H228460   0.056   1.536  16.145 -1.8105 -1.7153  0.6023
 2349TIP3   OH228461   4.226   6.571  13.984  0.0008 -0.0413  0.2789
 2349TIP3    H128462   4.137   6.543  13.964 -0.7592  1.0668  1.8725
 2349TIP3    H228463   4.238   6.651  13.933 -0.7912  1.0535  1.7202
 2350TIP3   OH228464   2.034   0.544  14.773 -0.1498 -0.7424 -0.1837
 2350TIP3    H128465   2.000   0.519  14.859  1.6280 -0.4895  0.6363
 2350TIP3    H228466   2.054   0.460  14.730 -1.2234 -0.8751 -0.4642
 2351TIP3   OH228467   1.270   6.084   2.435 -0.6033  0.0424 -0.0234
 2351TIP3    H128468   1.271   6.000   2.389 -0.4363  0.3358 -0.5580
 2351TIP3    H228469   1.338   6.135   2.392 -1.1128  0.6686 -0.0900
 2352TIP3   OH228470   5.514   5.158  15.950  0.2480  0.4334  0.1559
 2352TIP3    H128471   5.529   5.144  16.044 -1.1846 -0.3703  0.2983
 2352TIP3    H228472   5.451   5.230  15.947 -1.6476 -1.1574 -0.0346
 2353TIP3   OH228473   2.421   0.065  14.879 -0.4468 -0.1546 -0.1529
 2353TIP3    H128474   2.401  -0.014  14.930 -0.1528  1.0626  1.9599
 2353TIP3    H228475   2.424   0.135  14.944  3.2420  0.9986 -1.3600
 2354TIP3   OH228476   6.004   1.949  14.252  0.4009 -0.1913  0.0177
 2354TIP3    H128477   5.994   1.856  14.233 -1.9658  0.2557 -1.3197
 2354TIP3    H228478   5.931   1.970  14.311  0.9258  0.8187  0.3413
 2355TIP3   OH228479   0.868   0.881  14.622  0.0764  0.1462  0.1564
 2355TIP3    H128480   0.833   0.863  14.709  1.0953 -0.1945  0.5136
 2355TIP3    H228481   0.906   0.797  14.594  0.2527  0.3973 -0.3751
 2356TIP3   OH228482   5.635   6.223  11.475 -0.4075  0.9835 -0.2334
 2356TIP3    H128483   5.567   6.289  11.487  1.3511  2.9066 -0.0856
 2356TIP3    H228484   5.674   6.245  11.390  0.0615 -0.0320 -0.2942
 2357TIP3   OH228485   0.148   3.572   3.702  0.2061  0.2209 -0.1631
 2357TIP3    H128486   0.166   3.595   3.793  1.4984  0.4069 -0.4515
 2357TIP3    H228487   0.093   3.644   3.669  1.1356  1.0159 -0.0013
 2358TIP3   OH228488   4.264   4.822   2.390 -0.1487 -0.7583  0.5991
 2358TIP3    H128489   4.173   4.836   2.365 -0.0572 -0.1808  0.5821
 2358TIP3    H228490   4.291   4.745   2.339 -0.2466 -0.1560 -0.3961
 2359TIP3   OH228491   6.168   4.592   5.669 -0.1094 -0.4028 -0.2634
 2359TIP3    H128492   6.194   4.539   5.745 -2.7933 -2.6110 -0.7052
 2359TIP3    H228493   6.155   4.528   5.599 -0.8596  1.2170 -1.6701
 2360TIP3   OH228494   0.211   6.455  10.529 -0.2358  0.6799  0.0399
 2360TIP3    H128495   0.254   6.373  10.553 -0.5006  0.9144  1.3560
 2360TIP3    H228496   0.205   6.451  10.433  1.7788  0.1836 -0.1095
 2361TIP3   OH228497   6.096   1.001  15.721  0.2022  0.1354  0.5668
 2361TIP3    H128498   6.186   1.006  15.690 -0.4331 -0.5116 -1.5819
 2361TIP3    H228499   6.083   0.908  15.741 -0.4593 -0.0929 -0.8088
 2362TIP3   OH228500   2.330   6.340  12.250  0.2844  0.1638  0.0638
 2362TIP3    H128501   2.322   6.305  12.339 -1.3791  0.0209 -0.1060
 2362TIP3    H228502   2.291   6.427  12.255 -0.5108 -0.1285 -0.6500
 2363TIP3   OH228503   3.344   5.171   0.905  0.2443 -0.0197  0.0580
 2363TIP3    H128504   3.262   5.170   0.855  0.0422  1.2703  0.3317
 2363TIP3    H228505   3.316   5.168   0.996  0.5975 -1.9022  0.1419
 2364TIP3   OH228506   3.002   0.623  15.177 -0.2649 -0.0996  0.0470
 2364TIP3    H128507   2.954   0.547  15.210 -0.3963 -0.5002 -1.0419
 2364TIP3    H228508   2.950   0.698  15.204 -0.1086 -0.3734  1.1806
 2365TIP3   OH228509   4.325   3.543  15.933 -0.2012  0.2263  0.3100
 2365TIP3    H128510   4.383   3.485  15.883 -1.1974 -2.1682  1.7453
 2365TIP3    H228511   4.357   3.537  16.023 -0.9803  1.0980  0.6607
 2366TIP3   OH228512   3.526   0.564   3.133  0.2816  0.3734 -0.0156
 2366TIP3    H128513   3.604   0.547   3.185  0.8084 -1.6546 -1.3549
 2366TIP3    H228514   3.460   0.505   3.168  0.0540  0.4180 -0.3631
 2367TIP3   OH228515   3.581   3.492   4.851  0.4490 -0.0519 -0.0890
 2367TIP3    H128516   3.613   3.569   4.805 -1.5750  0.9068  0.0242
 2367TIP3    H228517   3.574   3.424   4.784 -1.1986  0.9451 -0.9610
 2368TIP3   OH228518   1.055   5.979  13.776  0.2419 -0.0113  0.2106
 2368TIP3    H128519   1.087   6.056  13.730 -1.7725 -0.0829 -1.4936
 2368TIP3    H228520   1.094   5.905  13.729 -0.1966 -0.0564 -0.0877
 2369TIP3   OH228521   3.402   4.227   0.219  0.2773 -0.5917 -0.5768
 2369TIP3    H128522   3.436   4.171   0.290 -0.1182 -0.4225 -0.2495
 2369TIP3    H228523   3.313   4.195   0.204 -0.0432  0.1091 -0.2101
 2370TIP3   OH228524   0.021   0.707   0.522 -0.1992 -0.5934  0.9193
 2370TIP3    H128525  -0.003   0.799   0.522  0.7576 -0.3383  0.5377
 2370TIP3    H228526   0.009   0.679   0.613 -1.0398 -0.2486  0.9233
 2371TIP3   OH228527   3.825   1.310  13.877 -0.0293  0.6392 -0.4197
 2371TIP3    H128528   3.904   1.278  13.834  0.6033  2.1013 -0.4027
 2371TIP3    H228529   3.791   1.234  13.925  0.3415 -0.4853 -1.8744
 2372TIP3   OH228530   1.940   0.202  15.071 -0.6011  0.8019 -0.1251
 2372TIP3    H128531   2.005   0.199  15.141  0.8696 -0.5206 -1.4663
 2372TIP3    H228532   1.961   0.282  15.022  0.2044  0.2361 -0.7132
 2373TIP3   OH228533   0.033   6.765  11.994 -0.0924  0.0934 -0.4757
 2373TIP3    H128534  -0.048   6.738  11.951 -0.4557 -0.4483  0.5066
 2373TIP3    H228535   0.098   6.768  11.924 -0.3338 -2.1045 -0.8779
 2374TIP3   OH228536   2.439   1.258   4.292  0.0270 -0.0655 -0.4067
 2374TIP3    H128537   2.391   1.176   4.300 -0.8496  0.5926  1.8719
 2374TIP3    H228538   2.389   1.309   4.228 -1.7226  0.1519  1.0592
 2375TIP3   OH228539   2.597   2.479   0.471 -0.4669 -0.5856  0.0162
 2375TIP3    H128540   2.670   2.541   0.464 -1.5906  1.1238  1.9686
 2375TIP3    H228541   2.632   2.406   0.522 -0.3615  0.8439  2.1497
 2376TIP3   OH228542   3.384   3.092   3.410  0.1664  0.0108 -0.2955
 2376TIP3    H128543   3.350   3.122   3.326 -0.0602  0.9607  0.1235
 2376TIP3    H228544   3.307   3.061   3.458  0.5197 -2.2244 -1.0926
 2377TIP3   OH228545   6.287   6.005  15.494  0.3592 -0.0848  0.7723
 2377TIP3    H128546   6.258   5.916  15.514 -1.2305  0.1941 -0.0900
 2377TIP3    H228547   6.206   6.056  15.490  1.2613  1.4947  1.5969
 2378TIP3   OH228548   2.158   1.275  13.917 -0.2730 -0.3257  0.5059
 2378TIP3    H128549   2.131   1.363  13.890 -1.3738 -0.1768  1.9487
 2378TIP3    H228550   2.078   1.236  13.953  0.8972 -0.7668  2.7684
 2379TIP3   OH228551   1.067   2.965  16.407  0.3036  0.1601 -0.2631
 2379TIP3    H128552   1.069   2.945  16.313  0.2004  2.9107 -0.9255
 2379TIP3    H228553   0.981   3.005  16.421  0.9018  1.1654  0.6655
 2380TIP3   OH228554   5.437   0.616   5.117 -0.1065 -0.4867  0.5308
 2380TIP3    H128555   5.452   0.664   5.036 -1.2659  1.1625  1.2234
 2380TIP3    H228556   5.425   0.525   5.090 -1.6567  0.2046 -1.2950
 2381TIP3   OH228557   5.441   6.378   0.530 -0.2775 -0.2894 -0.3973
 2381TIP3    H128558   5.461   6.459   0.485 -0.0515 -0.3704 -0.4446
 2381TIP3    H228559   5.451   6.310   0.464  0.3204 -0.4355 -0.1640
 2382TIP3   OH228560   0.053   4.438  16.781 -0.0268 -0.2138  0.2803
 2382TIP3    H128561  -0.032   4.449  16.824 -0.8463 -0.5662 -1.1828
 2382TIP3    H228562   0.063   4.344  16.770 -0.3621 -0.0859 -1.2713
 2383TIP3   OH228563   2.667   0.410  13.061 -0.2377  0.3947 -0.1054
 2383TIP3    H128564   2.700   0.320  13.055 -0.3384  0.4329 -1.6974
 2383TIP3    H228565   2.577   0.401  13.093 -1.3354 -0.4000 -3.0584
 2384TIP3   OH228566   3.745   6.299   4.345 -0.6680 -0.0411 -0.1274
 2384TIP3    H128567   3.717   6.338   4.262 -0.5838 -0.5468 -0.3965
 2384TIP3    H228568   3.780   6.214   4.321  1.2551  0.6197  0.1902
 2385TIP3   OH228569   2.998   0.411  16.483 -0.2082 -0.1631  0.5789
 2385TIP3    H128570   3.030   0.321  16.483  0.7073  0.1109 -1.3184
 2385TIP3    H228571   2.909   0.406  16.447 -0.4261 -0.3694  1.1370
 2386TIP3   OH228572   5.791   1.565  11.176  0.0581 -0.0425  0.0049
 2386TIP3    H128573   5.850   1.506  11.128  0.1748 -0.4311  0.6145
 2386TIP3    H228574   5.801   1.649  11.133  0.0515 -0.4187 -0.7443
 2387TIP3   OH228575   0.427   4.017  10.993  0.3775  0.2257  0.5913
 2387TIP3    H128576   0.371   4.058  11.059  1.0621 -0.6991  1.7902
 2387TIP3    H228577   0.367   3.964  10.940  0.2217 -1.9808  2.8049
 2388TIP3   OH228578   3.845   0.654   0.026 -0.3768 -0.0572 -1.1234
 2388TIP3    H128579   3.785   0.623  -0.042 -0.2113 -1.8818 -0.4879
 2388TIP3    H228580   3.928   0.613   0.004 -0.3067 -0.6151  0.1381
 2389TIP3   OH228581   1.593   6.438   5.960 -0.5615  0.4604 -0.2078
 2389TIP3    H128582   1.558   6.353   5.986 -2.1107  0.3973 -2.2024
 2389TIP3    H228583   1.555   6.453   5.873  1.1283  2.3759 -0.6708
 2390TIP3   OH228584   4.420   5.448   1.482  0.1275  0.2116 -0.0612
 2390TIP3    H128585   4.341   5.502   1.470  0.4837  0.5756 -0.8745
 2390TIP3    H228586   4.487   5.511   1.510  0.4650  0.1363 -0.6982
 2391TIP3   OH228587   0.662   0.751  13.850 -0.5438 -0.1524 -0.2453
 2391TIP3    H128588   0.636   0.840  13.827 -0.9274 -0.5952 -1.6197
 2391TIP3    H228589   0.580   0.706  13.870 -0.2954 -0.0387  1.1207
 2392TIP3   OH228590   5.618   0.504  15.652  0.2781  0.1422 -0.3676
 2392TIP3    H128591   5.599   0.441  15.722 -3.2465  0.7966 -0.5624
 2392TIP3    H228592   5.582   0.587  15.684  2.1943  1.4229 -1.3581
 2393TIP3   OH228593   0.937   2.916  15.601 -0.1268 -0.6006 -0.0505
 2393TIP3    H128594   1.023   2.958  15.608  0.1551 -0.7271 -2.1038
 2393TIP3    H228595   0.877   2.979  15.641  0.6468  0.5548 -0.6254
 2394TIP3   OH228596   0.676   2.433  16.673 -0.1679 -0.5053  0.1123
 2394TIP3    H128597   0.616   2.363  16.646 -0.0351 -1.0721  1.2064
 2394TIP3    H228598   0.742   2.437  16.604  0.0070 -1.7049  0.1837
 2395TIP3   OH228599   6.451   0.476   4.156  0.2220  0.0816  0.0662
 2395TIP3    H128600   6.518   0.408   4.149 -1.3107 -1.7172  1.7478
 2395TIP3    H228601   6.408   0.459   4.240 -1.2949  2.1771 -0.1947
 2396TIP3   OH228602   5.940   5.358   6.479  0.2634 -0.7361 -0.0668
 2396TIP3    H128603   5.881   5.424   6.515  0.5917 -0.0227 -0.7876
 2396TIP3    H228604   6.025   5.402   6.475  0.2143 -0.7358 -1.7947
 2397TIP3   OH228605   4.144   4.754   1.292 -0.0258  0.3242 -0.0307
 2397TIP3    H128606   4.234   4.724   1.308  0.1315  1.2516  0.9686
 2397TIP3    H228607   4.146   4.847   1.315 -1.0369  0.5645 -0.8555
 2398TIP3   OH228608   4.405   0.476   2.864 -0.0498 -0.3271 -0.0207
 2398TIP3    H128609   4.486   0.498   2.911 -0.4742  1.3404 -0.0147
 2398TIP3    H228610   4.429   0.481   2.772 -0.4587  1.6795 -0.0634
 2399TIP3   OH228611   3.929   3.781   0.433 -0.1088 -0.1862  0.2420
 2399TIP3    H128612   3.976   3.858   0.401  1.3000 -1.5403 -1.0775
 2399TIP3    H228613   3.878   3.750   0.358 -0.3274 -0.7990  0.6365
 2400TIP3   OH228614   6.565   1.555   4.014  0.3673 -0.2144  0.0361
 2400TIP3    H128615   6.639   1.515   3.969  0.7588 -0.0776  0.5388
 2400TIP3    H228616   6.596   1.568   4.104 -0.2414 -0.0824  0.2341
 2401TIP3   OH228617   6.100   0.972   2.370  0.2377 -0.3476 -0.7790
 2401TIP3    H128618   6.101   0.985   2.465  0.0137  1.9555 -1.0492
 2401TIP3    H228619   6.192   0.964   2.345  0.3110 -0.6507 -0.4252
 2402TIP3   OH228620   5.907   1.409  15.245 -0.3768  0.3325  0.5672
 2402TIP3    H128621   5.951   1.350  15.184  0.5760  1.2797  0.3031
 2402TIP3    H228622   5.816   1.380  15.245  0.2344 -1.7647  1.2129
 2403TIP3   OH228623   5.212   5.100  15.750 -0.9942  0.2945  0.3144
 2403TIP3    H128624   5.249   5.031  15.694 -3.1106  1.2366 -2.5114
 2403TIP3    H228625   5.284   5.161  15.765 -0.0447 -0.6299 -0.3372
 2404TIP3   OH228626   4.113   0.068  16.736 -0.2196  0.5253 -0.0873
 2404TIP3    H128627   4.182   0.125  16.770 -1.4598  1.8049  0.3758
 2404TIP3    H228628   4.112   0.086  16.642  0.5579 -0.0594 -0.2151
 2405TIP3   OH228629   1.419   2.138   2.712 -0.2409  0.1239 -0.5862
 2405TIP3    H128630   1.330   2.152   2.678  0.4713  0.8961 -2.2673
 2405TIP3    H228631   1.422   2.186   2.794 -2.4765 -2.9274  1.5216
 2406TIP3   OH228632   4.623   1.600   3.542  0.0162  0.5499  0.2394
 2406TIP3    H128633   4.608   1.585   3.635 -0.3626 -1.6755 -0.1065
 2406TIP3    H228634   4.704   1.552   3.523 -0.0884  0.7004 -0.6288
 2407TIP3   OH228635   2.451   3.040  11.689 -0.0272 -0.0889 -0.8377
 2407TIP3    H128636   2.383   2.974  11.675 -1.5421  1.2627 -0.1471
 2407TIP3    H228637   2.406   3.124  11.680  1.4637  0.8607  0.0770
 2408TIP3   OH228638   1.103   5.990  14.044  0.1901 -0.5297  0.0539
 2408TIP3    H128639   1.038   6.045  14.086  0.5734 -0.0912  0.0734
 2408TIP3    H228640   1.058   5.953  13.967 -0.4994 -1.3050  0.8069
 2409TIP3   OH228641   4.706   0.958   0.665  0.0655  0.5995  0.2087
 2409TIP3    H128642   4.780   1.011   0.635  0.8813  0.1918  1.3903
 2409TIP3    H228643   4.744   0.902   0.733 -2.1860  3.7162  4.5337
 2410TIP3   OH228644   3.436   4.202  13.394 -0.7311  0.0076  0.3443
 2410TIP3    H128645   3.464   4.111  13.389  0.5123  0.4342 -1.5402
 2410TIP3    H228646   3.516   4.251  13.410 -1.0008  0.9229 -0.8990
 2411TIP3   OH228647   1.543   6.013  15.118 -0.2444  0.6012 -0.4708
 2411TIP3    H128648   1.534   5.918  15.115  2.4227  0.2314  0.3411
 2411TIP3    H228649   1.625   6.031  15.071  0.6060  2.2048  1.4659
 2412TIP3   OH228650   6.149   3.842   2.369  0.5578 -0.2483  0.1057
 2412TIP3    H128651   6.096   3.765   2.346 -1.2814  0.1844  2.5167
 2412TIP3    H228652   6.234   3.806   2.394 -0.2792 -1.5599  1.2309
 2413TIP3   OH228653   4.933   0.730  14.732  0.0443 -0.2217  0.4091
 2413TIP3    H128654   4.899   0.681  14.657  0.2482 -0.0039  0.1682
 2413TIP3    H228655   4.980   0.665  14.784 -0.6361 -0.4995  0.6859
 2414TIP3   OH228656   3.741   5.196  14.566 -0.1476 -0.0436  0.4589
 2414TIP3    H128657   3.669   5.142  14.599 -1.7854  1.7784  0.0439
 2414TIP3    H228658   3.767   5.153  14.484 -0.4247 -0.9923  0.8531
 2415TIP3   OH228659   5.352   4.186  12.355 -0.2787 -0.1150 -0.3024
 2415TIP3    H128660   5.279   4.179  12.416  0.2178  0.5152  0.3772
 2415TIP3    H228661   5.430   4.191  12.410  0.3298 -1.1671 -1.0222
 2416TIP3   OH228662   5.579   0.694   4.893  0.4424  0.2564  0.1180
 2416TIP3    H128663   5.642   0.762   4.868  1.2082 -0.1194  0.9372
 2416TIP3    H228664   5.566   0.642   4.814 -0.7541  1.7913 -0.7436
 2417TIP3   OH228665   6.680   4.635  16.580 -0.3354  0.1729 -0.3378
 2417TIP3    H128666   6.696   4.686  16.659 -0.5473  0.1114 -0.2556
 2417TIP3    H228667   6.745   4.565  16.582 -0.3916  0.1266 -0.1804
 2418TIP3   OH228668   4.598   3.221   0.055 -0.0668 -0.0419  0.0794
 2418TIP3    H128669   4.546   3.163   0.000 -0.7490  0.8489 -0.2287
 2418TIP3    H228670   4.621   3.294  -0.002  1.5149 -0.4004  0.2114
 2419TIP3   OH228671   0.447   0.429   6.053 -0.8395  0.3679 -0.0826
 2419TIP3    H128672   0.481   0.518   6.041 -3.0938  1.1663 -1.1343
 2419TIP3    H228673   0.376   0.439   6.117 -0.9653 -0.7345 -0.0257
 2420TIP3   OH228674   2.233   3.664  14.201 -0.0729 -0.3067  0.4497
 2420TIP3    H128675   2.287   3.684  14.124  0.1247 -1.2048  0.3420
 2420TIP3    H228676   2.189   3.582  14.179  1.2154 -1.4564  1.8934
 2421TIP3   OH228677   6.070   1.280  16.861 -0.1849  0.4097  0.0306
 2421TIP3    H128678   6.090   1.371  16.837 -1.6738  0.6131 -0.5699
 2421TIP3    H228679   5.997   1.256  16.804 -1.0124 -0.5510  1.4173
 2422TIP3   OH228680   2.801   0.440   3.810 -0.5978 -0.9059 -0.0860
 2422TIP3    H128681   2.827   0.365   3.864  2.5366 -0.4264 -0.7645
 2422TIP3    H228682   2.776   0.507   3.873 -0.8749 -1.6389  0.6115
 2423TIP3   OH228683   5.691   4.741  14.983 -1.1560 -0.0076  0.2720
 2423TIP3    H128684   5.656   4.829  14.982 -1.9462 -0.3153 -0.2831
 2423TIP3    H228685   5.662   4.702  14.900 -0.5566 -0.6820  0.3622
 2424TIP3   OH228686   0.213   1.694   1.330  0.6343 -0.1985 -0.3824
 2424TIP3    H128687   0.200   1.614   1.279  1.0349 -0.3965 -0.1818
 2424TIP3    H228688   0.142   1.694   1.394  1.0845 -0.8136  0.1395
 2425TIP3   OH228689   4.358   5.799  14.156  0.5144  0.0625 -0.1214
 2425TIP3    H128690   4.293   5.734  14.184 -0.2427  1.7002  2.3502
 2425TIP3    H228691   4.427   5.793  14.222  0.1075  2.1231  0.5761
 2426TIP3   OH228692   5.803   2.647   4.930  0.0519  0.4211 -0.1696
 2426TIP3    H128693   5.715   2.631   4.896  0.6953 -3.4017 -0.4113
 2426TIP3    H228694   5.789   2.672   5.022 -1.3055  2.5815 -0.8863
 2427TIP3   OH228695   4.838   5.479  14.844  0.2429  0.6979  0.3124
 2427TIP3    H128696   4.781   5.516  14.912  0.7127  0.1327  1.0275
 2427TIP3    H228697   4.793   5.400  14.815 -0.2627  1.2667 -0.4950
 2428TIP3   OH228698   5.120   6.546   4.551 -0.0032  0.3412  0.3147
 2428TIP3    H128699   5.194   6.498   4.513 -0.3002  0.8822 -1.0044
 2428TIP3    H228700   5.046   6.525   4.493 -0.7319  0.3537  1.2203
 2429TIP3   OH228701   5.713   1.814   5.749  0.2704 -0.7228  0.2205
 2429TIP3    H128702   5.766   1.811   5.669  0.2478 -2.3906  0.2326
 2429TIP3    H228703   5.764   1.763   5.812 -1.1338 -2.0557  0.3424
 2430TIP3   OH228704   6.021   5.826   0.586  0.7167 -0.0694 -0.2426
 2430TIP3    H128705   6.065   5.841   0.502 -0.9181 -0.5885 -1.2355
 2430TIP3    H228706   5.936   5.868   0.577  0.5025 -0.1415  1.1741
 2431TIP3   OH228707   1.826   3.089   4.128 -0.0240 -0.2119 -0.2072
 2431TIP3    H128708   1.827   2.996   4.109 -0.6558 -0.1754 -0.4212
 2431TIP3    H228709   1.881   3.098   4.206  1.7098 -0.4947 -1.3459
 2432TIP3   OH228710   1.664   2.522   2.323  0.1451 -0.0212 -0.3103
 2432TIP3    H128711   1.650   2.430   2.300 -0.0031  0.4731 -2.3963
 2432TIP3    H228712   1.718   2.519   2.402 -0.7896 -1.8899  0.3113
 2433TIP3   OH228713   0.356   4.618  12.028  0.1536 -0.4181  0.0702
 2433TIP3    H128714   0.345   4.706  12.065 -0.9861 -0.4897 -0.0777
 2433TIP3    H228715   0.450   4.602  12.034  0.6845  1.6014 -1.6951
 2434TIP3   OH228716   5.597   5.856   5.543 -0.0827  0.9402  0.2858
 2434TIP3    H128717   5.601   5.760   5.547  2.1933  0.8640 -1.5860
 2434TIP3    H228718   5.564   5.883   5.629 -0.3783 -1.4822  0.9969
 2435TIP3   OH228719   4.608   0.589  16.920  0.1049  0.5186 -0.1762
 2435TIP3    H128720   4.680   0.622  16.866  0.2292 -1.2449 -1.1676
 2435TIP3    H228721   4.529   0.622  16.876  0.1858  3.8085  1.7927
 2436TIP3   OH228722   4.154   1.982   0.828  0.1669  0.2362 -0.0106
 2436TIP3    H128723   4.192   2.049   0.772  2.6688 -1.8676 -1.0635
 2436TIP3    H228724   4.189   1.900   0.793 -1.2926 -1.4884  2.3065
 2437TIP3   OH228725   2.323   3.409  14.669  0.3844 -0.3038  0.0255
 2437TIP3    H128726   2.372   3.447  14.742  0.1099 -0.0922  0.1038
 2437TIP3    H228727   2.389   3.388  14.603  0.4596  1.1566 -0.3956
 2438TIP3   OH228728   2.944   3.793   0.618  0.0020 -0.0674 -0.2534
 2438TIP3    H128729   2.917   3.833   0.700 -0.1104  0.5524 -0.5846
 2438TIP3    H228730   2.863   3.784   0.567 -0.4693 -3.2327  0.8176
 2439TIP3   OH228731   6.291   6.778  11.346 -0.6841 -0.3426 -0.4617
 2439TIP3    H128732   6.308   6.686  11.328  0.6244 -0.5282  1.4766
 2439TIP3    H228733   6.215   6.799  11.291 -1.8380 -2.9117 -0.0247
 2440TIP3   OH228734   4.345   6.045  15.115 -0.3917 -0.1686  0.1191
 2440TIP3    H128735   4.320   6.111  15.051  0.6636  1.0638  0.9447
 2440TIP3    H228736   4.302   5.965  15.084 -2.4537  1.0629 -0.4130
 2441TIP3   OH228737   4.299   2.241   5.425 -0.0946  0.3585  0.1732
 2441TIP3    H128738   4.247   2.244   5.505  0.9338  1.7450  0.8380
 2441TIP3    H228739   4.281   2.324   5.381  0.6755  0.3691 -0.1470
 2442TIP3   OH228740   4.040   4.458   2.688 -0.0583  0.1604 -0.2079
 2442TIP3    H128741   4.134   4.441   2.695 -0.2738 -0.5893  1.0381
 2442TIP3    H228742   4.035   4.552   2.670  0.9210  0.2852  0.1014
 2443TIP3   OH228743   5.396   5.406   4.988  1.0120 -0.0656  0.1143
 2443TIP3    H128744   5.352   5.482   5.025  0.6366 -1.1902  2.1023
 2443TIP3    H228745   5.489   5.428   4.991  0.8196  1.5046 -2.2453
 2444TIP3   OH228746   6.393   5.256   2.885  0.2655 -0.0501  0.0152
 2444TIP3    H128747   6.472   5.310   2.885 -0.5762  1.2428 -0.4466
 2444TIP3    H228748   6.424   5.167   2.898  1.6438  0.6307  1.6456
 2445TIP3   OH228749   5.303   2.864   2.305  0.2932 -0.0008  0.3996
 2445TIP3    H128750   5.225   2.886   2.253 -0.0287 -0.7308  0.5559
 2445TIP3    H228751   5.283   2.896   2.392  0.2674  0.0274  0.3833
 2446TIP3   OH228752   3.669   0.830   5.735  0.4222 -0.2593  0.0449
 2446TIP3    H128753   3.662   0.922   5.711  0.9700 -0.1791  0.1749
 2446TIP3    H228754   3.705   0.831   5.824  2.2808 -0.6075 -0.6442
 2447TIP3   OH228755   2.025   0.946   2.313 -0.3706  0.2476  0.0924
 2447TIP3    H128756   2.111   0.968   2.276  0.3107 -0.6039  1.1092
 2447TIP3    H228757   2.000   1.023   2.364 -0.8242  1.0066 -1.2312
 2448TIP3   OH228758   3.228   6.242  11.537 -0.1758  0.2607  0.0535
 2448TIP3    H128759   3.274   6.167  11.574  0.7290 -0.5321 -2.4839
 2448TIP3    H228760   3.263   6.250  11.448 -2.6935  1.5897 -0.9112
 2449TIP3   OH228761   3.776   4.686  17.139 -0.6947  0.1685 -0.2457
 2449TIP3    H128762   3.826   4.723  17.066 -0.2985 -0.5518 -0.3464
 2449TIP3    H228763   3.722   4.618  17.100 -0.2574 -0.4289  0.1649
 2450TIP3   OH228764   0.080   0.903   1.820  0.4358  0.2476  0.8230
 2450TIP3    H128765   0.022   0.832   1.848 -0.7327  0.9192  0.2053
 2450TIP3    H228766   0.163   0.860   1.798  0.0581 -0.7895  1.3708
 2451TIP3   OH228767   5.285   4.567   5.837  1.1599  0.7503  0.1270
 2451TIP3    H128768   5.218   4.583   5.903  0.4002  0.6477 -0.6040
 2451TIP3    H228769   5.345   4.641   5.845  0.1785  1.5957 -0.1649
 2452TIP3   OH228770   2.834   2.457  15.298 -0.1948 -0.1110 -0.1263
 2452TIP3    H128771   2.908   2.501  15.339 -0.2106 -0.5441  0.3807
 2452TIP3    H228772   2.827   2.374  15.345 -1.6272  0.3412  0.4947
 2453TIP3   OH228773   4.940   0.795   5.918  0.0847  0.3672 -0.0561
 2453TIP3    H128774   4.879   0.763   5.852 -1.2590 -1.9304  2.1263
 2453TIP3    H228775   4.885   0.833   5.986  1.2059  0.0694  1.0641
 2454TIP3   OH228776   5.543   5.679  10.616 -0.0929  0.5584  0.2806
 2454TIP3    H128777   5.532   5.742  10.544 -0.6075  0.4146  0.2307
 2454TIP3    H228778   5.596   5.608  10.578 -1.7991 -0.3474 -0.4823
 2455TIP3   OH228779   1.926   4.175   1.231  0.0423  0.2213  0.3558
 2455TIP3    H128780   1.943   4.244   1.167  0.4859 -0.4355 -0.2609
 2455TIP3    H228781   2.005   4.120   1.227  0.4959  0.6876  2.1554
 2456TIP3   OH228782   6.587   4.065  13.593  0.0912  0.4219 -0.1595
 2456TIP3    H128783   6.619   3.975  13.583  0.7468  0.5605  0.6470
 2456TIP3    H228784   6.619   4.110  13.515  0.8088  0.2558  0.0311
 2457TIP3   OH228785   2.387   4.287   1.069 -0.1073 -0.3534  0.1446
 2457TIP3    H128786   2.384   4.336   0.987 -1.2013 -0.0348  0.3553
 2457TIP3    H228787   2.404   4.196   1.043  2.2386  0.1239 -0.2355
 2458TIP3   OH228788   4.174   3.289   5.250  0.2266  0.3870  0.1121
 2458TIP3    H128789   4.158   3.367   5.303 -0.5477 -0.2736  0.8686
 2458TIP3    H228790   4.109   3.225   5.280  1.2608 -0.7826 -0.0371
 2459TIP3   OH228791   0.846   6.082  13.236 -0.6655  0.1312 -0.1015
 2459TIP3    H128792   0.806   6.072  13.322  1.6027 -0.9769  0.9062
 2459TIP3    H228793   0.920   6.141  13.250 -0.7657  0.6334 -1.4971
 2460TIP3   OH228794   1.245   3.454  11.608  0.1042 -0.4792 -0.1075
 2460TIP3    H128795   1.294   3.427  11.531 -0.5741  1.5390 -1.3117
 2460TIP3    H228796   1.302   3.431  11.682  2.3198  0.5936 -1.3762
 2461TIP3   OH228797   0.040   1.170  14.202 -0.2971 -0.4568 -0.0542
 2461TIP3    H128798   0.112   1.110  14.221  0.3335 -0.1969 -1.4915
 2461TIP3    H228799   0.069   1.219  14.125 -1.7760  0.0551 -0.3241
 2462TIP3   OH228800   4.164   3.060   6.639  0.1483 -0.7369  0.1670
 2462TIP3    H128801   4.109   3.132   6.673 -0.5428 -1.3802  0.4556
 2462TIP3    H228802   4.236   3.104   6.595 -0.1383  0.1403  0.5360
 2463TIP3   OH228803   2.436   1.587   5.150 -0.5166  0.0521  0.3172
 2463TIP3    H128804   2.463   1.662   5.203 -0.8109  0.2226  0.2311
 2463TIP3    H228805   2.446   1.616   5.060  2.8567 -1.2352  0.1493
 2464TIP3   OH228806   5.720   0.665   3.483  0.1775 -0.3848 -0.1142
 2464TIP3    H128807   5.632   0.700   3.498  0.7343  0.2930  1.8764
 2464TIP3    H228808   5.746   0.702   3.398 -1.1684 -0.0302 -0.3949
 2465TIP3   OH228809   2.479   2.316  15.834 -0.0924 -0.0864 -0.2923
 2465TIP3    H128810   2.450   2.257  15.764 -0.0443 -2.5547  1.6455
 2465TIP3    H228811   2.409   2.382  15.839 -1.3183 -1.2585 -1.0561
 2466TIP3   OH228812   6.219   6.091   2.918 -0.0293  0.3271  0.0832
 2466TIP3    H128813   6.312   6.115   2.919 -0.7840  3.8154  1.5467
 2466TIP3    H228814   6.202   6.057   3.006 -0.1610 -0.2171 -0.1500
 2467TIP3   OH228815   0.931   3.617   2.056 -0.1244  0.5513 -0.0772
 2467TIP3    H128816   1.026   3.610   2.042 -0.1689 -0.1563 -0.0642
 2467TIP3    H228817   0.904   3.686   1.996  0.3340  0.4424 -0.4211
 2468TIP3   OH228818   6.474   5.273   2.390 -0.3286  0.1524 -0.6580
 2468TIP3    H128819   6.424   5.206   2.437  1.8220 -1.6004 -0.6904
 2468TIP3    H228820   6.497   5.337   2.458 -0.6921 -0.1976 -0.1901
 2469TIP3   OH228821   6.449   2.987   3.334 -0.2802 -0.5398 -0.1268
 2469TIP3    H128822   6.446   3.046   3.258  1.6585 -1.4067 -0.9447
 2469TIP3    H228823   6.534   3.005   3.375 -1.0657 -0.4720  1.5487
 2470TIP3   OH228824   0.612   6.098  10.990 -0.0423  0.0392 -0.1960
 2470TIP3    H128825   0.665   6.041  11.045 -1.5944 -1.3560 -0.1022
 2470TIP3    H228826   0.636   6.187  11.018 -0.1683 -0.6113  2.1325
 2471TIP3   OH228827   5.043   3.100   2.991  0.2765  0.0473  0.2232
 2471TIP3    H128828   5.107   3.058   3.049 -0.5201  0.3821  1.3869
 2471TIP3    H228829   4.960   3.092   3.038 -0.1424  1.6491 -0.1775
 2472TIP3   OH228830   5.352   1.574   4.927 -0.5673  0.2302  0.0215
 2472TIP3    H128831   5.415   1.527   4.982 -1.1962 -0.4344  0.2010
 2472TIP3    H228832   5.395   1.580   4.842  0.6155  1.6953  0.6780
 2473TIP3   OH228833   1.206   1.789   3.701  0.8215 -0.0405 -0.6111
 2473TIP3    H128834   1.191   1.876   3.664 -1.2033  0.5844  1.4276
 2473TIP3    H228835   1.136   1.778   3.766  0.7925 -3.3744 -1.0343
 2474TIP3   OH228836   4.282   3.192  15.857 -0.1578 -0.4525  0.2451
 2474TIP3    H128837   4.354   3.144  15.815 -0.5012  0.9296 -2.0727
 2474TIP3    H228838   4.311   3.283  15.857 -1.3101 -0.0745  0.6133
 2475TIP3   OH228839   3.586   3.069   3.091 -0.0804 -0.2229  0.1562
 2475TIP3    H128840   3.596   2.981   3.128 -1.5016 -0.2405  0.5644
 2475TIP3    H228841   3.596   3.128   3.165  0.7366 -0.0337 -0.0948
 2476TIP3   OH228842   1.562   5.433   6.222 -0.7253  0.4544 -0.0401
 2476TIP3    H128843   1.516   5.433   6.138 -0.3096 -0.2004 -0.2781
 2476TIP3    H228844   1.523   5.506   6.271  0.7820  2.5165 -1.7391
 2477TIP3   OH228845   2.765   1.608  11.743 -0.2176  0.3318 -0.2749
 2477TIP3    H128846   2.826   1.535  11.752 -0.1224  0.2443 -1.3919
 2477TIP3    H228847   2.683   1.576  11.781  0.6372  0.7637  2.0344
 2478TIP3   OH228848   6.193   4.473   2.977 -0.6929  0.1733 -0.5022
 2478TIP3    H128849   6.183   4.559   3.019  2.0918  1.1653 -1.6696
 2478TIP3    H228850   6.243   4.421   3.040 -1.6026 -0.3615 -0.1854
 2479TIP3   OH228851   3.482   1.486  15.900  0.0898 -0.3491  0.8102
 2479TIP3    H128852   3.452   1.508  15.988  1.2297  1.1410  0.8711
 2479TIP3    H228853   3.566   1.442  15.914 -0.3105 -1.2195  0.5118
 2480TIP3   OH228854   4.587   2.803  13.177  0.0479 -0.1725 -0.2920
 2480TIP3    H128855   4.521   2.740  13.148 -1.7334  1.5468 -0.1246
 2480TIP3    H228856   4.554   2.836  13.260  1.9100 -0.3543  0.5825
 2481TIP3   OH228857   6.585   0.663   4.893 -0.0419 -0.2380 -0.2834
 2481TIP3    H128858   6.554   0.598   4.830  1.4801 -1.2167 -0.0497
 2481TIP3    H228859   6.659   0.706   4.850  1.5129 -1.4398  1.0667
 2482TIP3   OH228860   2.116   6.357  11.044 -0.2035 -0.9286  0.1197
 2482TIP3    H128861   2.146   6.268  11.064 -0.6525 -0.6831  2.1831
 2482TIP3    H228862   2.165   6.413  11.105 -0.9640  0.0599 -0.1457
 2483TIP3   OH228863   4.422   5.471  12.108 -0.3079 -0.5151  0.5568
 2483TIP3    H128864   4.481   5.435  12.041 -1.3285 -0.4698 -0.3976
 2483TIP3    H228865   4.478   5.486  12.184  0.9340 -0.3742 -0.3548
 2484TIP3   OH228866   1.790   2.526  14.551 -0.3153 -0.1797 -0.5856
 2484TIP3    H128867   1.809   2.436  14.526  0.9956  0.7762 -3.4370
 2484TIP3    H228868   1.857   2.547  14.616 -0.5357 -1.1580 -0.0115
 2485TIP3   OH228869   3.020   5.906   2.267  0.3371 -0.1067 -0.2457
 2485TIP3    H128870   3.012   5.824   2.315 -1.4252 -0.4965 -1.1648
 2485TIP3    H228871   2.999   5.974   2.332  1.4237 -0.3738  0.4124
 2486TIP3   OH228872   4.207   1.258   5.176 -0.0796  0.4083 -0.3748
 2486TIP3    H128873   4.155   1.206   5.116 -1.0778  1.7939 -0.7720
 2486TIP3    H228874   4.253   1.321   5.121 -2.0788  2.6200  0.3056
 2487TIP3   OH228875   5.877   3.001  12.337 -0.5566  0.5564  0.0487
 2487TIP3    H128876   5.941   3.026  12.404 -1.3878 -0.0698  1.0922
 2487TIP3    H228877   5.895   2.908  12.321  0.1326  0.8776 -1.1677
 2488TIP3   OH228878   6.327   3.692   1.509  0.1025 -0.0950  0.5347
 2488TIP3    H128879   6.319   3.597   1.507 -0.7582 -0.0202 -1.2035
 2488TIP3    H228880   6.415   3.710   1.476 -0.4458 -0.2529 -1.0894
 2489TIP3   OH228881   3.102   1.640  14.791  0.5206 -0.6809 -0.7445
 2489TIP3    H128882   3.135   1.722  14.754  1.5603 -0.7625 -0.0268
 2489TIP3    H228883   3.148   1.631  14.874 -2.0673 -0.3023  0.8269
 2490TIP3   OH228884   0.443   5.095   6.822  0.3475  0.3751  0.0987
 2490TIP3    H128885   0.436   5.001   6.807 -1.5085  0.0416  2.3570
 2490TIP3    H228886   0.376   5.133   6.765  0.0658  0.1521  0.2733
 2491TIP3   OH228887   4.353   2.632  16.003  0.0434  0.8493 -0.2611
 2491TIP3    H128888   4.307   2.686  16.067 -0.6790  0.3679 -0.3569
 2491TIP3    H228889   4.423   2.688  15.970  0.3602  1.1360  0.8721
 2492TIP3   OH228890   1.957   6.293  14.742 -0.1538  0.5286  0.3488
 2492TIP3    H128891   1.973   6.226  14.676  0.6554 -0.4764  1.5277
 2492TIP3    H228892   2.001   6.371  14.709  1.9355 -0.4961  0.6095
 2493TIP3   OH228893   5.951   5.656  14.694 -0.2666 -0.0544  0.1139
 2493TIP3    H128894   5.990   5.721  14.753 -1.1470  1.1838 -0.6059
 2493TIP3    H228895   5.857   5.662  14.711 -0.3911 -0.8509 -0.2647
 2494TIP3   OH228896   0.192   3.412   3.036 -0.0437 -0.4410 -0.2170
 2494TIP3    H128897   0.162   3.350   2.969 -0.0780 -0.7965  0.1205
 2494TIP3    H228898   0.287   3.406   3.032 -0.0534 -1.0313  0.2796
 2495TIP3   OH228899   1.936   4.103   3.823 -0.0214  0.2557  0.2197
 2495TIP3    H128900   1.851   4.082   3.785  0.0284  0.6632 -0.1269
 2495TIP3    H228901   1.929   4.196   3.847 -0.2312 -0.1093  1.6788
 2496TIP3   OH228902   4.162   3.771  15.257  0.1738  0.2691 -0.0767
 2496TIP3    H128903   4.193   3.759  15.168  1.7647 -1.3459  0.6480
 2496TIP3    H228904   4.128   3.685  15.283 -1.9309  1.1530  0.3034
 2497TIP3   OH228905   2.777   3.522   5.822  0.2038 -0.7542  0.0755
 2497TIP3    H128906   2.797   3.479   5.905  1.2456 -0.2767  0.0935
 2497TIP3    H228907   2.771   3.451   5.759 -0.2593 -1.0952  0.4959
 2498TIP3   OH228908   1.638   6.770   3.065 -0.0801 -0.8531 -0.0823
 2498TIP3    H128909   1.612   6.814   2.984 -1.2942  0.5700  1.0175
 2498TIP3    H228910   1.645   6.678   3.041 -2.9783 -0.8786 -1.2596
 2499TIP3   OH228911   1.853   3.385  17.137  0.2914 -0.0691  1.0089
 2499TIP3    H128912   1.902   3.363  17.216  0.6653  0.9354  1.0738
 2499TIP3    H228913   1.783   3.444  17.168  0.4066  0.2861  0.6104
 2500TIP3   OH228914   1.044   3.038   0.706 -0.5068  0.6866  0.2982
 2500TIP3    H128915   0.966   3.004   0.750  0.0211  0.1628  0.8352
 2500TIP3    H228916   1.096   3.077   0.776 -0.5866  1.6353 -0.1512
 2501TIP3   OH228917   4.129   2.210  11.533 -0.4215  0.5305  0.0940
 2501TIP3    H128918   4.053   2.156  11.557  0.6322 -1.1860 -0.2056
 2501TIP3    H228919   4.099   2.263  11.460 -1.3703 -0.0531  0.0418
 2502TIP3   OH228920   1.813   2.962   5.565  0.3037  0.6414 -0.2611
 2502TIP3    H128921   1.892   3.009   5.593 -0.9664  1.8165  1.5396
 2502TIP3    H228922   1.815   2.880   5.614  0.0175  1.0192  0.3896
 2503TIP3   OH228923   3.228   3.722   3.302 -0.4893  0.1806  0.5303
 2503TIP3    H128924   3.159   3.767   3.254  1.4128  1.2403 -1.3977
 2503TIP3    H228925   3.231   3.634   3.264 -0.0700  0.4851 -0.1442
 2504TIP3   OH228926   0.087   3.846   2.434 -0.1951  1.2397  0.6174
 2504TIP3    H128927   0.019   3.785   2.463 -0.5560  1.0577 -0.5426
 2504TIP3    H228928   0.152   3.790   2.392 -0.3204  1.6104 -0.0765
 2505TIP3   OH228929   4.745   0.866   3.285  0.0266 -0.2803  0.0387
 2505TIP3    H128930   4.739   0.861   3.381  0.4206 -0.7721  0.0405
 2505TIP3    H228931   4.687   0.797   3.254 -2.3992  1.6936 -0.1588
 2506TIP3   OH228932   2.047   4.667   3.243 -0.3789 -0.5489 -0.5419
 2506TIP3    H128933   1.958   4.675   3.278  0.0496  0.6128  0.3477
 2506TIP3    H228934   2.079   4.757   3.238 -0.0310 -0.7532 -2.9921
 2507TIP3   OH228935   3.635   1.391   5.783 -0.0028 -0.7838 -0.2429
 2507TIP3    H128936   3.591   1.443   5.715  2.1140  1.8298  0.2204
 2507TIP3    H228937   3.621   1.440   5.864  1.9695 -0.9668  0.2500
 2508TIP3   OH228938   6.762   6.788   4.703  0.4881 -0.5919  0.0936
 2508TIP3    H128939   6.833   6.831   4.752  0.8352 -0.0987 -0.8044
 2508TIP3    H228940   6.692   6.778   4.766  1.2481 -0.7982  0.9281
 2509TIP3   OH228941   0.506   0.334  16.801 -0.1109  0.7667 -0.4523
 2509TIP3    H128942   0.507   0.262  16.738  2.1644 -2.6024  2.9632
 2509TIP3    H228943   0.597   0.365  16.803 -0.2305  1.1020  0.7792
 2510TIP3   OH228944   1.059   1.408  14.537 -0.0906 -0.6711 -0.2013
 2510TIP3    H128945   1.065   1.491  14.585  1.2051 -1.1867  0.5715
 2510TIP3    H228946   1.012   1.349  14.597 -1.9743 -0.2418 -1.1688
 2511TIP3   OH228947   4.064   4.647  16.398 -0.0022 -0.7094 -0.0931
 2511TIP3    H128948   4.144   4.603  16.368  0.7298  0.7329 -0.3640
 2511TIP3    H228949   3.999   4.627  16.331  0.6450 -0.4299 -0.8305
 2512TIP3   OH228950   3.848   1.468   3.633  0.0457 -0.5235  0.2427
 2512TIP3    H128951   3.784   1.536   3.653 -0.7247 -1.0017 -0.5044
 2512TIP3    H228952   3.920   1.514   3.591 -0.4688 -0.1541 -0.2567
 2513TIP3   OH228953   5.567   3.637   2.766 -1.1154  0.3555  0.2436
 2513TIP3    H128954   5.654   3.632   2.807 -1.1231 -0.4662  0.1916
 2513TIP3    H228955   5.520   3.561   2.802 -1.3547  0.0130 -0.7575
 2514TIP3   OH228956   2.527   0.142  13.417  0.0550 -0.1676 -0.1447
 2514TIP3    H128957   2.433   0.131  13.436 -0.0138  0.0059 -0.3870
 2514TIP3    H228958   2.568   0.065  13.456 -0.0991  0.1199  0.6177
 2515TIP3   OH228959   6.068   6.376  11.433 -0.0171 -0.1129 -0.0202
 2515TIP3    H128960   6.066   6.293  11.479  0.6608  0.5050  1.1749
 2515TIP3    H228961   6.057   6.442  11.502  1.2217  0.8482 -0.6956
 2516TIP3   OH228962   5.898   1.443   0.822  0.5433  0.0969 -0.4512
 2516TIP3    H128963   5.970   1.424   0.761  1.5570 -1.4825  1.1323
 2516TIP3    H228964   5.931   1.413   0.907 -2.7689 -2.8873  0.0012
 2517TIP3   OH228965   5.462   5.524   3.647  0.6000 -0.0196  0.0412
 2517TIP3    H128966   5.468   5.431   3.670 -0.3418 -0.2308 -0.5020
 2517TIP3    H228967   5.533   5.538   3.585  1.1607 -0.2110  0.6245
 2518TIP3   OH228968   6.550   6.673  11.253  0.5282 -0.1431 -0.1629
 2518TIP3    H128969   6.513   6.761  11.258  2.2343  0.5397  1.9620
 2518TIP3    H228970   6.479   6.615  11.281 -0.1960  0.6947 -0.2380
 2519TIP3   OH228971   2.857   6.297   5.657  0.0656  0.0582 -0.3568
 2519TIP3    H128972   2.837   6.319   5.748  0.4863 -0.2803 -0.1768
 2519TIP3    H228973   2.774   6.305   5.611 -0.2327 -0.1617  0.1372
 2520TIP3   OH228974   5.823   3.156   3.110 -0.1228  0.1483  0.8057
 2520TIP3    H128975   5.898   3.215   3.111 -0.8939  1.3768 -2.4480
 2520TIP3    H228976   5.784   3.166   3.197  1.6847  1.8292  1.4979
 2521TIP3   OH228977   5.371   2.283   4.773 -0.3379  0.0514 -0.2040
 2521TIP3    H128978   5.344   2.313   4.686  0.9257 -1.1752 -1.0410
 2521TIP3    H228979   5.317   2.205   4.789 -0.3266  0.0816 -0.0139
 2522TIP3   OH228980   6.339   1.208   4.360  0.6467 -0.0735 -0.1466
 2522TIP3    H128981   6.328   1.177   4.271  0.7553  0.5461 -0.3814
 2522TIP3    H228982   6.409   1.154   4.396  0.5408 -0.3827 -0.4089
 2523TIP3   OH228983   2.269   1.622   2.201 -0.4385  0.7318 -0.1972
 2523TIP3    H128984   2.282   1.619   2.295  1.1979 -1.3354 -0.4312
 2523TIP3    H228985   2.207   1.551   2.182 -0.7094  1.0884 -0.6889
 2524TIP3   OH228986   6.403   2.192  15.209  0.2843 -0.2315 -0.1799
 2524TIP3    H128987   6.403   2.096  15.211  2.4994 -0.3135 -1.3477
 2524TIP3    H228988   6.381   2.217  15.299 -1.4285 -1.7616 -0.0929
 2525TIP3   OH228989   1.308   3.891  16.044 -0.5675  0.6082 -0.1308
 2525TIP3    H128990   1.268   3.831  15.980 -1.1472  1.1862 -0.3303
 2525TIP3    H228991   1.393   3.853  16.063 -1.1213 -0.5541  0.1283
 2526TIP3   OH228992   6.359   2.216   1.280 -0.1079  0.2070 -0.0079
 2526TIP3    H128993   6.341   2.276   1.353  0.2146 -0.5456  0.7112
 2526TIP3    H228994   6.369   2.273   1.204  0.0266  1.0501  0.6243
 2527TIP3   OH228995   1.818   6.738   2.142  0.1565 -0.3247  0.4245
 2527TIP3    H128996   1.899   6.732   2.193 -0.5516 -0.6536  1.5536
 2527TIP3    H228997   1.748   6.724   2.206 -0.8716  1.3770 -0.2736
 2528TIP3   OH228998   4.621   5.742  15.468  0.0198  0.3256 -0.0924
 2528TIP3    H128999   4.678   5.811  15.502 -2.0210  1.8859  0.3528
 2528TIP3    H229000   4.567   5.786  15.402  0.8922 -1.6459 -2.2754
 2529TIP3   OH229001   1.472   5.820   5.760 -0.3366 -0.0244  0.4659
 2529TIP3    H129002   1.458   5.790   5.850  1.4082 -0.9833  0.4584
 2529TIP3    H229003   1.442   5.746   5.706  1.2668 -0.6482  0.3709
 2530TIP3   OH229004   3.281   0.965   0.763  0.4037 -0.3568  0.0979
 2530TIP3    H129005   3.255   1.057   0.772  0.1743 -0.5127  1.3373
 2530TIP3    H229006   3.209   0.925   0.715  0.2912  0.0264 -0.0607
 2531TIP3   OH229007   4.428   3.942   3.421  0.3425  0.0289  0.5303
 2531TIP3    H129008   4.334   3.937   3.437 -0.3434  1.9152 -2.2476
 2531TIP3    H229009   4.461   3.994   3.495 -0.8961 -0.1347  1.2298
 2532TIP3   OH229010   2.460   4.317  15.765 -0.1834  0.0336 -0.1385
 2532TIP3    H129011   2.440   4.224  15.766 -1.7699  0.3266 -1.3369
 2532TIP3    H229012   2.432   4.349  15.850 -0.2786 -0.4543  0.0151
 2533TIP3   OH229013   5.668   1.508   3.191 -0.3281  0.1714 -0.0265
 2533TIP3    H129014   5.627   1.476   3.272 -0.8345 -0.5927 -0.5600
 2533TIP3    H229015   5.610   1.577   3.161 -0.0507  0.5691  0.3458
 2534TIP3   OH229016   0.412   3.421   1.603  0.0468  0.0820 -0.7660
 2534TIP3    H129017   0.385   3.511   1.586  0.4609  0.2277 -0.6777
 2534TIP3    H229018   0.439   3.421   1.695 -1.4230 -0.5052 -0.3088
 2535TIP3   OH229019   0.595   6.135   1.295 -0.3273 -0.6774 -0.1202
 2535TIP3    H129020   0.640   6.061   1.335  1.0159 -0.2983 -0.8867
 2535TIP3    H229021   0.549   6.177   1.368 -1.4807 -2.4916  0.2511
 2536TIP3   OH229022   0.900   2.134   2.384  0.9076  0.5772  0.3811
 2536TIP3    H129023   0.852   2.126   2.466 -1.0799 -1.3019 -0.8622
 2536TIP3    H229024   0.924   2.045   2.361 -1.9035  0.4594 -2.8552
 2537TIP3   OH229025   3.177   0.990   0.203  0.4185  0.0851 -0.6378
 2537TIP3    H129026   3.249   1.054   0.207  1.0981 -0.6499 -0.9353
 2537TIP3    H229027   3.101   1.043   0.178  1.2406  0.5927 -2.2761
 2538TIP3   OH229028   3.061   2.024   1.069  0.0929  0.2634  0.1234
 2538TIP3    H129029   3.004   1.954   1.100  0.7486 -1.3497 -2.0606
 2538TIP3    H229030   3.136   2.022   1.129 -1.3261  1.3474  2.0431
 2539TIP3   OH229031   1.166   5.477  14.687 -0.0686  0.0523  0.3125
 2539TIP3    H129032   1.103   5.548  14.701  1.0450  1.3893 -1.0752
 2539TIP3    H229033   1.161   5.458  14.593  2.4220  1.0781 -0.0996
 2540TIP3   OH229034   0.279   6.643  16.778  0.1362  0.1965 -0.0139
 2540TIP3    H129035   0.348   6.646  16.844  1.4044  1.2341 -1.2907
 2540TIP3    H229036   0.314   6.586  16.709 -1.1643 -0.8933  0.2130
 2541TIP3   OH229037   0.475   5.218  12.200 -0.0595 -0.1644 -0.1470
 2541TIP3    H129038   0.399   5.215  12.142  0.1727  0.2457 -0.4827
 2541TIP3    H229039   0.520   5.299  12.176  1.3456 -1.1701 -1.0646
 2542TIP3   OH229040   4.424   5.826  11.471 -0.0936 -0.4045  0.6144
 2542TIP3    H129041   4.471   5.743  11.478 -0.1214 -0.5337 -0.5190
 2542TIP3    H229042   4.332   5.801  11.463 -0.1813 -0.2270  1.0460
 2543TIP3   OH229043   0.372   5.580   0.243 -0.4776  0.1148 -0.1086
 2543TIP3    H129044   0.307   5.593   0.174 -0.5642 -0.4630 -0.1386
 2543TIP3    H229045   0.355   5.649   0.306 -1.4997 -0.3775  0.1696
 2544TIP3   OH229046   4.586   1.349  15.317  0.3933 -0.4149 -0.2612
 2544TIP3    H129047   4.548   1.416  15.261 -3.1387 -0.5362  1.6827
 2544TIP3    H229048   4.539   1.269  15.293  2.1455 -1.5113 -0.2295
 2545TIP3   OH229049   4.611   2.935  16.520 -0.2817 -0.2159  0.4042
 2545TIP3    H129050   4.557   3.007  16.487  0.4681  0.0391 -0.2981
 2545TIP3    H229051   4.551   2.883  16.574 -1.1008  0.3267  0.0398
 2546TIP3   OH229052   3.565   4.796  12.531 -0.0445 -0.1022 -0.1832
 2546TIP3    H129053   3.590   4.823  12.619  0.7008 -2.5874  0.4200
 2546TIP3    H229054   3.510   4.868  12.499  1.3444  1.8173  1.4849
 2547TIP3   OH229055   3.140   2.922  14.024 -0.2082  0.1082 -0.7477
 2547TIP3    H129056   3.155   2.973  14.104  1.1286 -0.5851 -0.5244
 2547TIP3    H229057   3.045   2.918  14.015 -0.5216 -1.7970  2.1454
 2548TIP3   OH229058   3.029   0.614   0.137 -0.2057  0.9612 -0.0851
 2548TIP3    H129059   2.996   0.637   0.225 -2.0511 -0.8779 -0.2229
 2548TIP3    H229060   2.992   0.681   0.080  0.5716  1.8680  0.4483
 2549TIP3   OH229061   4.940   5.187  13.902 -0.4559  0.3419 -0.8022
 2549TIP3    H129062   4.994   5.127  13.953 -0.8214  0.3541 -0.3881
 2549TIP3    H229063   4.993   5.208  13.825 -0.2565 -0.3831 -0.8745
 2550TIP3   OH229064   3.175   1.861   3.392  0.3611  0.2246  0.2255
 2550TIP3    H129065   3.132   1.917   3.327 -2.3601  0.1615  1.8266
 2550TIP3    H229066   3.255   1.909   3.416  0.5540  1.0381 -1.8721
 2551TIP3   OH229067   0.280   2.156   4.549 -0.7016  0.0246 -0.5445
 2551TIP3    H129068   0.286   2.163   4.644  0.0757  0.7053 -0.6374
 2551TIP3    H229069   0.286   2.246   4.517 -0.4490 -0.2365 -1.2660
 2552TIP3   OH229070   5.081   5.986  14.647 -0.1025 -0.2663  0.1320
 2552TIP3    H129071   5.110   6.048  14.580  1.2528  0.2973  1.1980
 2552TIP3    H229072   5.127   5.905  14.626  1.0420  0.1700  0.8857
 2553TIP3   OH229073   0.273   1.701  13.252 -0.2901 -0.0645  0.5915
 2553TIP3    H129074   0.293   1.757  13.178 -0.5143 -1.2827 -0.4286
 2553TIP3    H229075   0.296   1.613  13.222 -5.3198 -1.4335 -0.1066
 2554TIP3   OH229076   2.611   4.051  13.871  0.4602 -0.4633  0.1834
 2554TIP3    H129077   2.701   4.035  13.841  0.6256 -0.1372  0.5068
 2554TIP3    H229078   2.620   4.072  13.964  0.2167  1.1171 -0.1196
 2555TIP3   OH229079   6.479   4.024  12.211 -0.3903  0.1767 -0.1147
 2555TIP3    H129080   6.430   3.977  12.279 -2.2755  0.7065 -1.0188
 2555TIP3    H229081   6.433   4.108  12.202  0.6307  0.6606 -1.1035
 2556TIP3   OH229082   2.266   1.340  12.470 -0.0084 -0.2476  0.6651
 2556TIP3    H129083   2.281   1.307  12.559 -1.7003  0.6622  1.3239
 2556TIP3    H229084   2.353   1.367  12.440  0.5861 -0.5118  2.0640
 2557TIP3   OH229085   6.709   1.464   1.893 -0.3227 -0.0967 -0.0186
 2557TIP3    H129086   6.673   1.460   1.982  0.8632 -0.4087  0.4663
 2557TIP3    H229087   6.743   1.553   1.885  1.3604 -0.6535  0.5885
 2558TIP3   OH229088   4.141   3.313   2.957 -0.3634 -0.1269 -0.1423
 2558TIP3    H129089   4.096   3.365   3.024 -1.6145  2.7939 -3.0205
 2558TIP3    H229090   4.178   3.377   2.896  1.8213 -2.6039 -1.6322
 2559TIP3   OH229091   6.726   1.978   5.670 -0.1172 -0.2021 -0.3618
 2559TIP3    H129092   6.668   1.902   5.670 -1.2490  0.6208  0.0905
 2559TIP3    H229093   6.814   1.942   5.658 -0.4468 -1.7175  1.3489
 2560TIP3   OH229094   4.761   3.409  14.528 -0.2788 -0.2583  0.2146
 2560TIP3    H129095   4.722   3.494  14.510  1.5964  0.4285 -0.9533
 2560TIP3    H229096   4.855   3.422  14.511  0.0954 -2.4898  0.2844
 2561TIP3   OH229097   6.203   2.354  14.497  0.4475 -0.5524 -0.2923
 2561TIP3    H129098   6.250   2.289  14.550  1.4024 -0.1291 -0.5908
 2561TIP3    H229099   6.190   2.311  14.413  0.5783 -0.5642 -0.3073
 2562TIP3   OH229100   5.400   5.109  12.104 -0.3255 -0.0298  0.1550
 2562TIP3    H129101   5.441   5.192  12.129 -0.6823  0.0776  0.3954
 2562TIP3    H229102   5.451   5.078  12.030 -0.5467  0.6930 -0.3060
 2563TIP3   OH229103   2.934   0.363   0.869 -0.0560  0.0822  0.1941
 2563TIP3    H129104   2.991   0.367   0.792  1.6089 -0.1657  1.3686
 2563TIP3    H229105   2.936   0.452   0.905 -1.3329  0.3576 -0.3655
 2564TIP3   OH229106   6.440   5.423   2.055  0.2264  0.1719  0.3942
 2564TIP3    H129107   6.437   5.508   2.013  0.7814  0.2298  0.4628
 2564TIP3    H229108   6.398   5.436   2.140 -0.8456  0.0680 -0.1134
 2565TIP3   OH229109   2.033   0.004   1.470  0.1478 -0.1895 -0.3862
 2565TIP3    H129110   2.064  -0.072   1.519 -0.6079 -1.1627 -1.3735
 2565TIP3    H229111   1.955   0.032   1.517 -1.0570 -1.6307 -1.4509
 2566TIP3   OH229112   3.062   1.967  13.267  0.0336  0.2651 -0.1344
 2566TIP3    H129113   3.063   1.880  13.306 -2.5976 -0.4038 -1.3445
 2566TIP3    H229114   3.010   2.020  13.327  0.8990  0.8159  0.1552
 2567TIP3   OH229115   5.376   1.622  11.624  0.0675 -0.4812 -0.0612
 2567TIP3    H129116   5.421   1.538  11.621 -1.5959 -1.4057 -0.2705
 2567TIP3    H229117   5.324   1.618  11.705  1.3807  1.1283  0.9156
 2568TIP3   OH229118   4.558   5.034  16.872 -0.6041  0.0059 -0.4514
 2568TIP3    H129119   4.615   4.994  16.806  1.0067  1.3067  0.0590
 2568TIP3    H229120   4.543   5.123  16.840 -0.3845  0.4216  0.5428
 2569TIP3   OH229121   2.790   3.136  11.335  0.5059 -0.1383 -0.0054
 2569TIP3    H129122   2.755   3.169  11.252 -1.5720 -1.2509  0.3539
 2569TIP3    H229123   2.825   3.213  11.380  0.0268  0.7701 -1.1429
 2570TIP3   OH229124   5.227   6.100   1.890 -0.0917 -1.1703  0.1359
 2570TIP3    H129125   5.216   6.061   1.803  0.1510  1.0844 -0.9905
 2570TIP3    H229126   5.315   6.073   1.917 -0.5231 -2.6545  0.1312
 2571TIP3   OH229127   0.217   4.371  16.019  0.5567 -0.4340  0.4950
 2571TIP3    H129128   0.253   4.328  16.096  1.5181 -0.8343 -0.1603
 2571TIP3    H229129   0.129   4.400  16.046  0.5471 -1.3193  1.4578
 2572TIP3   OH229130   4.601   1.417   2.996  0.1107 -0.2010  0.5655
 2572TIP3    H129131   4.648   1.366   2.930 -0.0965  2.6015 -1.9603
 2572TIP3    H229132   4.663   1.425   3.068  1.4078 -1.1129 -0.3886
 2573TIP3   OH229133   2.386   1.942  12.818  0.3771  0.6421  0.3141
 2573TIP3    H129134   2.332   1.954  12.740  1.3377  0.5000 -0.3870
 2573TIP3    H229135   2.360   2.014  12.876 -0.9557  0.2422  0.2353
 2574TIP3   OH229136   0.815   3.019   5.213  0.8303  0.3898  0.1647
 2574TIP3    H129137   0.817   2.926   5.189  0.7038 -0.0032  1.5744
 2574TIP3    H229138   0.752   3.024   5.285  1.5030  1.4106  0.7187
 2575TIP3   OH229139   3.024   5.639   4.464 -0.4004 -0.8266  0.3998
 2575TIP3    H129140   2.988   5.563   4.419 -0.8928  0.3303 -1.2686
 2575TIP3    H229141   2.953   5.704   4.462  0.9448  0.7155 -0.9751
 2576TIP3   OH229142   5.061   4.702  13.103  0.1884  0.8303  0.2377
 2576TIP3    H129143   5.026   4.632  13.047  0.8509 -0.1436  1.0119
 2576TIP3    H229144   4.989   4.725  13.161 -0.1866  1.1422 -0.3418
 2577TIP3   OH229145   3.328   5.842   4.614  0.1170  0.1528  0.6509
 2577TIP3    H129146   3.350   5.765   4.561 -1.5184  0.6051 -0.7975
 2577TIP3    H229147   3.300   5.806   4.698 -0.1449 -0.8124  0.1722
 2578TIP3   OH229148   6.742   3.073   4.012 -0.1160  0.3754 -0.5355
 2578TIP3    H129149   6.734   3.155   3.963 -0.8667  1.9995  2.0647
 2578TIP3    H229150   6.817   3.087   4.070  0.3731 -1.2052 -0.7568
 2579TIP3   OH229151   1.336   2.571  13.257 -0.1619  0.1090 -0.0806
 2579TIP3    H129152   1.296   2.579  13.344 -0.5937  2.1028 -0.4277
 2579TIP3    H229153   1.262   2.574  13.196  0.1744 -0.8548 -0.5551
 2580TIP3   OH229154   2.201   3.868   2.964 -0.1854 -0.2517 -0.8231
 2580TIP3    H129155   2.133   3.904   3.020  0.2447 -0.0356 -0.4375
 2580TIP3    H229156   2.281   3.874   3.015  0.3784  0.7614 -1.7839
 2581TIP3   OH229157   4.696   5.895   3.974  0.1395  0.0991 -0.5917
 2581TIP3    H129158   4.678   5.801   3.970 -0.8616  0.2424  0.1448
 2581TIP3    H229159   4.740   5.907   4.058 -0.5838  0.4138 -0.2543
 2582TIP3   OH229160   2.171   3.432   2.429  0.4865  0.1296 -0.3694
 2582TIP3    H129161   2.147   3.397   2.344 -1.3536 -0.0429  0.1663
 2582TIP3    H229162   2.212   3.517   2.410  0.3446 -0.0345 -1.4334
 2583TIP3   OH229163   5.669   4.854   0.429  0.3297 -0.2581 -0.1235
 2583TIP3    H129164   5.635   4.881   0.343 -0.6196  0.1130  0.3542
 2583TIP3    H229165   5.674   4.936   0.479 -0.8340 -0.7072  0.7510
 2584TIP3   OH229166   4.205   3.936   1.849 -0.7103 -0.4052 -0.1772
 2584TIP3    H129167   4.249   4.014   1.880 -1.6635 -0.2544  0.8742
 2584TIP3    H229168   4.273   3.885   1.805  0.2758  0.2689  0.5334
 2585TIP3   OH229169   5.451   3.166   5.037  0.3378  0.6837  0.3547
 2585TIP3    H129170   5.457   3.157   5.132  2.3028 -2.2899  0.0522
 2585TIP3    H229171   5.541   3.171   5.007 -0.1935  0.0064 -1.4790
 2586TIP3   OH229172   3.032   0.976  11.342  0.7266 -0.0569  0.5105
 2586TIP3    H129173   2.970   0.936  11.280  0.5604  0.3698  0.4021
 2586TIP3    H229174   3.117   0.936  11.320  1.0945  1.6209 -1.4283
 2587TIP3   OH229175   1.534   3.399   3.362  0.3900 -0.0155  0.0117
 2587TIP3    H129176   1.464   3.462   3.379 -1.0772 -1.2553 -1.1674
 2587TIP3    H229177   1.527   3.336   3.434 -0.4847 -0.7717 -0.7196
 2588TIP3   OH229178   3.258   5.075   4.406  0.1737 -0.0070  0.2015
 2588TIP3    H129179   3.236   5.028   4.487  1.0558 -0.7930 -0.0038
 2588TIP3    H229180   3.180   5.127   4.388  0.3253  1.0037  2.1349
 2589TIP3   OH229181   2.261   1.741   4.385  0.3112  0.4341  0.1641
 2589TIP3    H129182   2.356   1.738   4.376  0.3097 -1.5615  0.3913
 2589TIP3    H229183   2.239   1.660   4.431 -1.4949  0.8635  0.1092
 2590TIP3   OH229184   2.955   4.228  13.630  0.6479 -0.2533 -0.2182
 2590TIP3    H129185   2.966   4.250  13.722 -1.1387  1.9482 -0.4384
 2590TIP3    H229186   3.037   4.184  13.606  1.3108 -0.5501  2.2823
 2591TIP3   OH229187   0.409   3.403  13.893 -0.2922  0.4117 -0.2285
 2591TIP3    H129188   0.374   3.492  13.898  2.0828  1.5378 -1.9961
 2591TIP3    H229189   0.370   3.366  13.814 -0.2832  0.3340 -0.1973
 2592TIP3   OH229190   4.649   1.831   4.373 -0.2777 -0.6326  0.3611
 2592TIP3    H129191   4.564   1.871   4.389  0.7748  2.2048 -0.4439
 2592TIP3    H229192   4.656   1.826   4.278 -0.2673 -2.7049  0.4234
 2593TIP3   OH229193   1.883   0.143   6.332  0.0507 -0.5544 -0.3152
 2593TIP3    H129194   1.883   0.206   6.404  1.4509  0.4727 -1.1655
 2593TIP3    H229195   1.792   0.142   6.301 -1.0861 -2.4725  2.6136
 2594TIP3   OH229196   6.696   4.709  11.581  0.3484  0.5891 -0.3385
 2594TIP3    H129197   6.702   4.745  11.493 -0.2744 -0.5278 -0.8626
 2594TIP3    H229198   6.782   4.670  11.598 -0.2259 -1.2794 -1.4269
 2595TIP3   OH229199   2.034   6.288   3.849  0.1399  0.2812  0.1476
 2595TIP3    H129200   2.020   6.369   3.800 -0.4148  1.0403  1.5340
 2595TIP3    H229201   1.998   6.220   3.792 -0.1177  1.0878 -0.6862
 2596TIP3   OH229202   5.447   0.156   0.073 -0.5398  0.1252 -0.0743
 2596TIP3    H129203   5.421   0.236   0.028 -1.5867 -0.0208  0.2492
 2596TIP3    H229204   5.530   0.132   0.032 -0.4535  1.1077 -0.5079
 2597TIP3   OH229205   0.815   2.397  13.361 -0.6516  0.1075  0.3222
 2597TIP3    H129206   0.875   2.360  13.426 -0.1281  0.9089  0.3196
 2597TIP3    H229207   0.761   2.458  13.410 -2.0751 -1.2376  0.4791
 2598TIP3   OH229208   6.679   4.872   3.396  0.1782 -0.8303  0.9823
 2598TIP3    H129209   6.741   4.846   3.464  0.0401 -1.3531  0.9090
 2598TIP3    H229210   6.628   4.942   3.435  1.2105  0.0355  0.8479
 2599TIP3   OH229211   6.064   4.930   1.837  0.1032  0.2570 -0.7531
 2599TIP3    H129212   6.034   5.020   1.829 -3.9088 -0.7846  0.2323
 2599TIP3    H229213   6.037   4.888   1.756 -0.0266 -0.5082 -0.3244
 2600TIP3   OH229214   6.167   6.258   6.187  0.1549  0.2741 -0.2816
 2600TIP3    H129215   6.092   6.288   6.238 -0.1114 -1.9236  0.7659
 2600TIP3    H229216   6.188   6.331   6.129 -1.6018  1.6459  0.7092
 2601TIP3   OH229217   0.673   1.003   2.422 -0.3053  0.3748  0.0223
 2601TIP3    H129218   0.738   0.986   2.490  0.0364  4.5889  1.0302
 2601TIP3    H229219   0.590   0.974   2.460  0.5832 -3.7668 -0.7321
 2602TIP3   OH229220   3.570   4.039  16.143  0.0486 -0.1637 -0.3813
 2602TIP3    H129221   3.545   3.999  16.060  0.0957  2.2171 -1.6114
 2602TIP3    H229222   3.495   4.093  16.167 -0.7136 -2.0980  2.1035
 2603TIP3   OH229223   6.696   2.347  12.543 -0.5260  0.5629  0.2222
 2603TIP3    H129224   6.787   2.349  12.514  0.4563  0.0165  3.0050
 2603TIP3    H229225   6.672   2.439  12.554 -0.0542  0.6853  0.2514
 2604TIP3   OH229226   5.939   3.260   3.762 -0.0631 -0.3614  0.1768
 2604TIP3    H129227   5.887   3.320   3.708  0.5391  0.6350  0.6826
 2604TIP3    H229228   5.956   3.308   3.843 -0.4203 -1.6092  1.0208
 2605TIP3   OH229229   4.307   5.167   4.848  0.3775 -0.1640 -0.5945
 2605TIP3    H129230   4.226   5.124   4.819  0.1491  0.9518 -1.7081
 2605TIP3    H229231   4.332   5.121   4.928  0.8373 -3.1823 -2.3412
 2606TIP3   OH229232   1.041   6.467   2.698 -0.0124  0.5081 -0.2547
 2606TIP3    H129233   1.095   6.468   2.777  1.3894 -1.8669 -1.0528
 2606TIP3    H229234   1.097   6.507   2.630  0.5286 -1.2845 -0.9210
 2607TIP3   OH229235   0.180   3.725  15.090  0.2812  0.1246 -0.2851
 2607TIP3    H129236   0.225   3.795  15.138  1.2914 -0.2758 -0.6154
 2607TIP3    H229237   0.095   3.718  15.132 -1.7671  4.5928 -2.9472
 2608TIP3   OH229238   5.115   6.328   4.812 -0.3973  0.8954  0.0669
 2608TIP3    H129239   5.111   6.236   4.785  0.5594  0.1704  2.1364
 2608TIP3    H229240   5.185   6.365   4.759  1.2600 -0.4128  1.2105
 2609TIP3   OH229241   5.482   1.253  11.236 -0.2010 -0.6518 -0.7346
 2609TIP3    H129242   5.458   1.160  11.240 -2.2001 -0.1336  0.5518
 2609TIP3    H229243   5.475   1.276  11.143 -1.3443 -1.3989 -0.8463
 2610TIP3   OH229244   3.766   1.866  13.440 -0.3189 -0.4845  0.2802
 2610TIP3    H129245   3.791   1.881  13.531 -0.6405  0.4360  0.2255
 2610TIP3    H229246   3.840   1.900  13.388 -0.9840  0.8165  0.1575
 2611TIP3   OH229247   3.955   1.454  17.070 -0.5752  0.2628 -0.2435
 2611TIP3    H129248   4.049   1.470  17.080 -0.0283 -0.5988 -3.1182
 2611TIP3    H229249   3.921   1.534  17.028 -0.8237  0.0128 -0.5288
 2612TIP3   OH229250   4.747   0.981   0.185 -0.0245  0.3338 -0.1585
 2612TIP3    H129251   4.715   0.939   0.105  2.6160  1.6759 -2.0628
 2612TIP3    H229252   4.817   0.924   0.216  0.7145  1.1305 -0.3289
 2613TIP3   OH229253   3.955   6.189  15.582  0.1260 -0.3192  0.0422
 2613TIP3    H129254   3.938   6.280  15.557 -0.3727 -0.2145  0.7223
 2613TIP3    H229255   3.982   6.147  15.501  3.2316  1.0789  0.2187
 2614TIP3   OH229256   6.043   4.427  12.556  0.3612  0.4479  0.1476
 2614TIP3    H129257   6.133   4.460  12.559  0.7003 -0.3470 -0.6862
 2614TIP3    H229258   5.998   4.474  12.625  0.4988  3.5423 -1.6753
 2615TIP3   OH229259   6.272   2.420  11.344 -0.4828 -0.2750 -0.3857
 2615TIP3    H129260   6.315   2.345  11.301 -1.1095 -0.3694 -0.8680
 2615TIP3    H229261   6.344   2.477  11.370 -0.0477 -0.4835 -1.0839
 2616TIP3   OH229262   3.909   2.329  11.406  0.2498 -0.1667 -0.1324
 2616TIP3    H129263   3.965   2.407  11.414  2.4704 -1.7333  0.6107
 2616TIP3    H229264   3.853   2.332  11.484  0.9490  0.2482  0.3702
 2617TIP3   OH229265   3.834   0.701  16.371 -0.0403 -0.4613 -0.0058
 2617TIP3    H129266   3.749   0.740  16.392 -1.2877 -2.0098 -1.7889
 2617TIP3    H229267   3.844   0.629  16.434 -1.9688 -2.6968 -2.0546
 2618TIP3   OH229268   0.019   5.200   5.584 -0.5200 -0.1533  0.3596
 2618TIP3    H129269   0.008   5.292   5.605  0.1529 -0.2504  1.2157
 2618TIP3    H229270   0.112   5.190   5.564 -0.8233 -0.4118 -1.0180
 2619TIP3   OH229271   4.481   1.919  13.061  0.6659  0.1711  0.6797
 2619TIP3    H129272   4.527   1.996  13.030  0.0576  0.1891 -0.2052
 2619TIP3    H229273   4.484   1.857  12.988  1.2486 -0.7049  1.4116
 2620TIP3   OH229274   3.168   1.444  11.661  1.1466  0.5793  0.1943
 2620TIP3    H129275   3.205   1.375  11.606  0.7378  1.7179 -1.5988
 2620TIP3    H229276   3.239   1.506  11.672 -0.1199  3.0812 -3.7736
 2621TIP3   OH229277   2.814   0.327   0.472 -0.8933 -0.0666 -0.1413
 2621TIP3    H129278   2.795   0.419   0.453 -0.2759  0.4656  1.5560
 2621TIP3    H229279   2.822   0.286   0.386 -3.0612  1.0264 -0.9586
 2622TIP3   OH229280   2.272   3.188  15.350 -0.5631  0.1945  0.0018
 2622TIP3    H129281   2.182   3.209  15.326 -0.3598  0.8809 -0.1699
 2622TIP3    H229282   2.294   3.113  15.295 -0.4623  1.0868 -1.2135
 2623TIP3   OH229283   1.015   2.592  14.132  0.2603  0.0826 -0.5094
 2623TIP3    H129284   0.966   2.523  14.087  1.1177 -1.0283  0.1838
 2623TIP3    H229285   0.950   2.634  14.188 -0.3322  0.0064 -1.1231
 2624TIP3   OH229286   1.702   2.807   1.971 -0.1233 -0.2346  0.4745
 2624TIP3    H129287   1.786   2.761   1.968 -0.6688 -1.3459  1.6582
 2624TIP3    H229288   1.726   2.899   1.982  0.9465 -0.5620  1.0001
 2625TIP3   OH229289   0.256   1.800   5.221 -0.3075 -0.7025 -0.7618
 2625TIP3    H129290   0.275   1.715   5.261 -1.3791 -0.7548 -0.3443
 2625TIP3    H229291   0.330   1.855   5.248  0.0616 -1.3115 -0.4917
 2626TIP3   OH229292   5.769   5.806   3.250  0.0264  0.0544 -0.0861
 2626TIP3    H129293   5.759   5.893   3.212  0.5518  0.1906  0.0795
 2626TIP3    H229294   5.731   5.747   3.185 -0.3004  0.4055 -0.2139
 2627TIP3   OH229295   2.300   6.596  13.241 -0.2126  0.3020  0.1809
 2627TIP3    H129296   2.306   6.584  13.335 -0.5395 -2.9685 -0.0965
 2627TIP3    H229297   2.389   6.619  13.214  0.5176 -1.3431  1.0548
 2628TIP3   OH229298   3.145   0.016  14.064  0.2574  0.1745  0.1858
 2628TIP3    H129299   3.067   0.063  14.035 -0.3073 -0.0979  1.2313
 2628TIP3    H229300   3.218   0.070  14.033 -0.3307  0.4341 -0.7954
 2629TIP3   OH229301   4.884   2.383   3.314 -0.9198 -0.1833 -0.6696
 2629TIP3    H129302   4.845   2.297   3.328  0.0564 -0.3413  1.2549
 2629TIP3    H229303   4.809   2.443   3.311 -1.4960 -0.8770 -0.3335
 2630TIP3   OH229304   1.438   0.660   3.479  0.2357  0.1477 -0.6497
 2630TIP3    H129305   1.352   0.646   3.518  2.2257 -0.2250  4.2778
 2630TIP3    H229306   1.463   0.574   3.444 -0.3513 -0.4031  0.2540
 2631TIP3   OH229307   2.555   0.379   2.431  0.0075 -0.2960  0.1680
 2631TIP3    H129308   2.573   0.330   2.511  0.6149 -0.0048  0.2207
 2631TIP3    H229309   2.463   0.361   2.411 -0.1093 -0.4819  0.8528
 2632TIP3   OH229310   4.003   0.593   2.184 -0.0780  0.4384 -0.1087
 2632TIP3    H129311   3.975   0.656   2.251  0.0925  0.1436  0.2447
 2632TIP3    H229312   3.970   0.509   2.215 -0.4616  0.3750 -0.6715
 2633TIP3   OH229313   2.658   5.153  15.209  0.3126  0.4247  0.3495
 2633TIP3    H129314   2.684   5.232  15.257  1.3225 -0.0704  0.6397
 2633TIP3    H229315   2.605   5.103  15.271  0.2981  0.5229  0.4164
 2634TIP3   OH229316   0.008   6.613  11.434 -0.0760  0.4302  0.2658
 2634TIP3    H129317  -0.072   6.566  11.456  0.0849  0.6342  1.3858
 2634TIP3    H229318  -0.016   6.705  11.444  0.1429  0.5120  0.0324
 2635TIP3   OH229319   0.266   0.740   5.599  0.4872 -0.3224 -0.2025
 2635TIP3    H129320   0.232   0.807   5.659 -0.1894  1.0810 -2.0607
 2635TIP3    H229321   0.359   0.735   5.620  0.3737  0.5442  0.5856
 2636TIP3   OH229322   4.345   3.562   1.622 -0.5458  0.1247  0.0915
 2636TIP3    H129323   4.271   3.507   1.647 -1.8670  1.7376 -0.0391
 2636TIP3    H229324   4.351   3.627   1.693 -0.2453  0.9196 -0.6378
 2637TIP3   OH229325   5.209   4.546  11.089  0.6710 -0.1514  0.2701
 2637TIP3    H129326   5.126   4.554  11.043 -0.2982  1.5155  2.1778
 2637TIP3    H229327   5.190   4.487  11.162  1.9239 -1.9344 -0.7489
 2638TIP3   OH229328   6.178   1.581  11.418 -0.1790  0.1923  0.2605
 2638TIP3    H129329   6.152   1.491  11.397 -1.2683 -0.1999  2.9336
 2638TIP3    H229330   6.272   1.584  11.399 -0.1053 -1.5503  0.2170
 2639TIP3   OH229331   0.963   5.920  12.038 -0.2601 -0.1456 -0.3946
 2639TIP3    H129332   0.971   6.011  12.010  0.0972  0.0881  0.4425
 2639TIP3    H229333   1.004   5.917  12.124 -3.1726 -0.3790  1.1024
 2640TIP3   OH229334   4.380   0.094   3.363 -0.1091 -0.3508  0.0073
 2640TIP3    H129335   4.293   0.065   3.334  0.4467 -0.1464 -2.0053
 2640TIP3    H229336   4.430   0.013   3.373  0.3593 -0.3401 -1.9567
 2641TIP3   OH229337   1.233   1.376   4.668 -0.4435 -0.3993  0.1555
 2641TIP3    H129338   1.257   1.298   4.718  2.2010  0.4184  0.3101
 2641TIP3    H229339   1.259   1.355   4.578 -2.9165 -0.9270 -0.5091
 2642TIP3   OH229340   4.432   0.123  15.195 -0.0203 -0.7966 -0.4760
 2642TIP3    H129341   4.386   0.114  15.278  1.1901  1.7905  0.5707
 2642TIP3    H229342   4.492   0.049  15.193  0.9704 -0.1277  1.7091
 2643TIP3   OH229343   5.772   1.805  13.585 -0.3848  0.4228  0.1016
 2643TIP3    H129344   5.747   1.758  13.505  0.4082 -1.2213  0.7798
 2643TIP3    H229345   5.768   1.898  13.560  0.2115 -0.0477 -1.9525
 2644TIP3   OH229346   4.701   3.239  16.322  0.0464  0.5069 -0.3982
 2644TIP3    H129347   4.652   3.180  16.265 -0.3160  0.0323  0.3851
 2644TIP3    H229348   4.657   3.233  16.406  1.2443  0.2999  0.2458
 2645TIP3   OH229349   3.676   3.818   3.566  0.3551  0.4534 -0.2349
 2645TIP3    H129350   3.665   3.723   3.563  0.7508  0.3945 -0.0087
 2645TIP3    H229351   3.719   3.834   3.651 -1.0208  0.9698  0.3978
 2646TIP3   OH229352   3.234   0.888   4.293  0.7958 -0.1614 -0.5066
 2646TIP3    H129353   3.253   0.883   4.386 -0.0127 -2.1232 -0.3946
 2646TIP3    H229354   3.147   0.928   4.288  1.7697  2.0932 -0.6070
 2647TIP3   OH229355   1.861   5.871  15.746 -0.0186 -0.0664  0.0401
 2647TIP3    H129356   1.849   5.965  15.737 -1.6662 -0.1849  0.5909
 2647TIP3    H229357   1.776   5.839  15.776 -0.1017 -1.9950 -2.0038
 2648TIP3   OH229358   1.645   2.725   5.621 -0.4627 -0.3538 -0.4830
 2648TIP3    H129359   1.627   2.818   5.633  0.5552 -0.5018  4.7467
 2648TIP3    H229360   1.559   2.684   5.616 -1.1954  0.5940  2.4430
 2649TIP3   OH229361   6.083   4.023  15.034  0.3802 -0.4381 -0.1889
 2649TIP3    H129362   6.059   3.933  15.011  0.2943 -1.2856  2.8592
 2649TIP3    H229363   6.000   4.064  15.057  0.6716 -0.2910  0.6204
 2650TIP3   OH229364   6.567   3.290   0.119 -0.1114 -0.0958  0.1865
 2650TIP3    H129365   6.503   3.243   0.173  0.3874 -0.8532  0.1283
 2650TIP3    H229366   6.555   3.252   0.031 -0.3702  0.5708 -0.0704
 2651TIP3   OH229367   5.822   2.000   0.779  0.3203  0.0248 -0.8271
 2651TIP3    H129368   5.775   1.916   0.778  0.3453 -0.0952  1.8610
 2651TIP3    H229369   5.759   2.063   0.742 -0.9882 -0.6053  0.2267
 2652TIP3   OH229370   1.689   3.083  12.968  0.7350  0.0766  0.1811
 2652TIP3    H129371   1.754   3.013  12.966 -0.2913 -0.9090  0.2015
 2652TIP3    H229372   1.614   3.047  12.921  0.9556  1.9804 -1.7786
 2653TIP3   OH229373   1.354   0.800   0.256  0.1035 -0.6217 -0.4443
 2653TIP3    H129374   1.389   0.852   0.329 -0.3455  0.7410 -1.1616
 2653TIP3    H229375   1.399   0.834   0.179  1.0576 -2.5074 -0.7514
 2654TIP3   OH229376   3.022   3.705  13.733 -0.5845 -0.3448  0.1662
 2654TIP3    H129377   3.098   3.656  13.701 -0.1373  0.1657  0.4274
 2654TIP3    H229378   3.047   3.733  13.822 -1.4557 -0.9839  0.6181
 2655TIP3   OH229379   0.425   6.046  15.878  0.0405  0.1419 -0.8576
 2655TIP3    H129380   0.463   6.078  15.796  0.9781  1.0918 -0.0755
 2655TIP3    H229381   0.493   6.062  15.944 -0.7268 -0.5422  0.1233
 2656TIP3   OH229382   0.826   2.670  15.709 -0.8605 -0.0493 -0.5711
 2656TIP3    H129383   0.904   2.629  15.745 -1.7996 -0.9614  0.5312
 2656TIP3    H229384   0.855   2.755  15.677  0.7461 -0.7434 -1.0414
 2657TIP3   OH229385   5.165   4.680   0.285  0.3036  0.2808  0.2925
 2657TIP3    H129386   5.134   4.708   0.372  1.0500 -0.6487  0.8687
 2657TIP3    H229387   5.163   4.585   0.288  1.8633  0.2139 -0.1547
 2658TIP3   OH229388   5.190   5.219  12.607  0.5427  0.3065  0.2264
 2658TIP3    H129389   5.222   5.133  12.632  0.4103  0.5867  1.4403
 2658TIP3    H229390   5.113   5.201  12.552  0.3485 -0.3553  0.6998
 2659TIP3   OH229391   0.795   0.107   0.707  0.2108 -0.4784 -0.0596
 2659TIP3    H129392   0.765   0.058   0.784  0.2467  0.5718  0.6499
 2659TIP3    H229393   0.887   0.124   0.725 -0.0067  0.5690  0.1124
 2660TIP3   OH229394   5.112   3.956   2.446 -0.0468 -0.1489 -0.3638
 2660TIP3    H129395   5.128   3.974   2.353  0.4972  0.6137 -0.1344
 2660TIP3    H229396   5.198   3.968   2.487 -0.3697 -0.0730  0.2972
 2661TIP3   OH229397   4.832   4.387   4.577  0.2172  0.1405  0.3632
 2661TIP3    H129398   4.912   4.357   4.533  0.8705 -0.2535  1.7708
 2661TIP3    H229399   4.762   4.363   4.517  0.9223 -1.9026  0.2685
 2662TIP3   OH229400   0.257   1.958  11.344 -0.2513 -0.1976  0.7380
 2662TIP3    H129401   0.285   2.041  11.305  0.3522 -0.5471  0.4071
 2662TIP3    H229402   0.300   1.955  11.429  0.0459 -0.3451  0.5852
 2663TIP3   OH229403   5.133   2.288  12.603 -0.2271 -0.0578  0.7603
 2663TIP3    H129404   5.123   2.259  12.512 -0.7858 -0.5719  0.9714
 2663TIP3    H229405   5.076   2.364  12.610 -0.0876  0.0572  0.6466
 2664TIP3   OH229406   5.118   2.315  14.689 -0.1817  0.0688 -0.0564
 2664TIP3    H129407   5.145   2.403  14.664  0.2900 -0.0517  0.0133
 2664TIP3    H229408   5.121   2.264  14.608  0.2835 -0.0596  0.0353
 2665TIP3   OH229409   3.518   0.722  14.998  0.1260 -0.5620  0.3357
 2665TIP3    H129410   3.514   0.663  15.074 -1.3794 -0.0080  0.7092
 2665TIP3    H229411   3.503   0.809  15.035 -0.2695 -0.2452 -0.5619
 2666TIP3   OH229412   1.976   4.744   6.580  0.2639 -0.4558 -0.1349
 2666TIP3    H129413   1.984   4.659   6.623  0.3384 -0.2272  0.3197
 2666TIP3    H229414   1.996   4.807   6.650  3.3810 -0.1114 -1.1860
 2667TIP3   OH229415   4.136   4.775  15.339  0.7512 -0.3040  0.4739
 2667TIP3    H129416   4.050   4.779  15.381  0.1948  0.2266 -0.6767
 2667TIP3    H229417   4.133   4.694  15.287 -0.0204  0.8887 -1.4911
 2668TIP3   OH229418   3.927   0.350   2.271  0.0634 -0.3090 -0.0631
 2668TIP3    H129419   3.982   0.352   2.349 -1.3499  0.1927  0.9707
 2668TIP3    H229420   3.839   0.332   2.305 -0.4012 -1.2254 -1.6651
 2669TIP3   OH229421   0.655   1.132   4.568 -0.5790 -0.3160 -0.2742
 2669TIP3    H129422   0.676   1.189   4.642  0.3237  1.3603 -1.7657
 2669TIP3    H229423   0.568   1.160   4.540 -0.8695 -0.8715  0.0410
 2670TIP3   OH229424   2.569   2.720  12.096  0.0636 -0.2102  0.7190
 2670TIP3    H129425   2.578   2.710  12.001  0.0343  0.7619  0.5950
 2670TIP3    H229426   2.547   2.813  12.108 -1.0772 -0.5703  1.6021
 2671TIP3   OH229427   0.749   5.287   4.487 -0.3984 -0.4865 -0.2600
 2671TIP3    H129428   0.761   5.354   4.555  3.7458 -1.2944  0.0758
 2671TIP3    H229429   0.654   5.278   4.479 -1.1477  3.2707  1.7488
 2672TIP3   OH229430   0.065   4.258  13.663  0.1969 -0.2684  0.1853
 2672TIP3    H129431   0.134   4.191  13.661  0.7139  0.2768 -0.6985
 2672TIP3    H229432   0.002   4.224  13.726  1.9845 -0.0996  2.2033
 2673TIP3   OH229433   4.250   6.368   0.223 -0.2618  0.7077  0.3150
 2673TIP3    H129434   4.335   6.398   0.192 -0.5377 -0.0558 -1.2895
 2673TIP3    H229435   4.233   6.421   0.301  0.8314  2.2156 -0.4146
 2674TIP3   OH229436   2.079   2.463   3.266  0.4554 -0.5340 -0.0798
 2674TIP3    H129437   2.027   2.401   3.317 -0.8769  0.1259 -0.5791
 2674TIP3    H229438   2.077   2.428   3.177  0.7009 -0.4110 -0.1329
 2675TIP3   OH229439   1.656   6.733   6.004  0.2898 -0.3110  0.5565
 2675TIP3    H129440   1.613   6.749   6.088 -0.3322 -1.1112  0.4004
 2675TIP3    H229441   1.642   6.640   5.987 -1.0055  0.1619 -1.2119
 2676TIP3   OH229442   5.610   4.106  12.848  0.2137  0.1170  0.3909
 2676TIP3    H129443   5.639   4.016  12.859  1.3469  0.3169 -0.7183
 2676TIP3    H229444   5.670   4.159  12.900  0.4672  0.3523 -0.1340
 2677TIP3   OH229445   1.513   4.502  12.319  0.3919  0.7312 -0.3235
 2677TIP3    H129446   1.434   4.528  12.367  0.0647 -2.2275  0.9812
 2677TIP3    H229447   1.573   4.472  12.387  0.3537 -2.5467 -1.5541
 2678TIP3   OH229448   2.007   2.174   2.397  0.2999 -0.1992 -0.6802
 2678TIP3    H129449   2.068   2.246   2.415  0.3816 -0.3657 -0.2989
 2678TIP3    H229450   2.033   2.104   2.457  0.9839 -0.9879 -1.8475
 2679TIP3   OH229451   6.359   2.432  15.484 -0.0306  0.3967 -0.3385
 2679TIP3    H129452   6.322   2.344  15.487  1.7376 -0.3715  2.1214
 2679TIP3    H229453   6.313   2.480  15.553  0.6002  0.6909 -0.1144
 2680TIP3   OH229454   3.860   4.214   4.872 -0.1220 -0.4526  0.0669
 2680TIP3    H129455   3.918   4.283   4.840 -1.0060  0.1212 -0.3403
 2680TIP3    H229456   3.795   4.203   4.803 -1.4473  0.0631  1.1926
 2681TIP3   OH229457   3.417   1.899  14.778 -0.0861 -0.1391 -0.3694
 2681TIP3    H129458   3.491   1.922  14.835  1.2846 -1.2280 -1.6166
 2681TIP3    H229459   3.395   1.980  14.733  1.0068  0.0129 -0.6685
 2682TIP3   OH229460   5.534   4.380  12.888 -0.4051 -0.2044  0.0007
 2682TIP3    H129461   5.534   4.338  12.974  1.6446  0.5633  0.4225
 2682TIP3    H229462   5.502   4.312  12.828 -0.5893 -1.1680  1.1599
 2683TIP3   OH229463   1.991   1.376  14.830 -0.2775 -0.0577 -0.1141
 2683TIP3    H129464   1.904   1.339  14.847 -0.5028 -0.0431 -1.1852
 2683TIP3    H229465   2.029   1.389  14.917 -1.5956  0.5177  0.3956
 2684TIP3   OH229466   3.041   6.500   1.401  0.4435 -0.1301  0.3846
 2684TIP3    H129467   3.030   6.415   1.358 -1.0535 -0.7172  1.7935
 2684TIP3    H229468   3.002   6.563   1.340 -1.4998 -0.9225  0.7302
 2685TIP3   OH229469   6.596   2.597  15.511  0.4268  0.1638 -0.0065
 2685TIP3    H129470   6.505   2.569  15.497  0.1178  0.2694  1.6168
 2685TIP3    H229471   6.640   2.518  15.543  0.8585  0.1829 -0.5431
 2686TIP3   OH229472   1.610   6.057  12.947  0.1691 -0.1685 -0.5210
 2686TIP3    H129473   1.603   6.083  13.039 -1.2386 -0.0880 -0.6332
 2686TIP3    H229474   1.681   6.112  12.913  0.2983  0.2439  0.3612
 2687TIP3   OH229475   0.151   6.091   3.941  0.0598 -0.1951  0.6879
 2687TIP3    H129476   0.220   6.158   3.933 -1.1445  1.1510  1.1736
 2687TIP3    H229477   0.072   6.135   3.910 -0.3721 -2.1638 -1.2608
 2688TIP3   OH229478   2.870   2.872   6.085 -0.0306  0.5478  0.2676
 2688TIP3    H129479   2.875   2.850   5.992 -0.0448  0.7371  0.2238
 2688TIP3    H229480   2.856   2.966   6.087 -0.8174  0.4395  0.4389
 2689TIP3   OH229481   5.560   0.202   2.615 -0.3129  0.4522 -0.4604
 2689TIP3    H129482   5.534   0.292   2.597 -0.1006  0.8084  0.8823
 2689TIP3    H229483   5.638   0.210   2.670 -0.2895 -0.5528 -0.3293
 2690TIP3   OH229484   1.937   3.014  13.430  0.6295 -0.1098 -0.3060
 2690TIP3    H129485   1.919   2.944  13.368 -1.6117  2.1782 -2.4876
 2690TIP3    H229486   1.951   3.091  13.376 -2.0459  2.1835  1.9617
 2691TIP3   OH229487   6.654   5.833  12.395 -0.1904  0.1806 -0.1706
 2691TIP3    H129488   6.563   5.824  12.422 -0.0467  2.0763  1.1817
 2691TIP3    H229489   6.663   5.926  12.375  1.8930  0.4270  1.5832
 2692TIP3   OH229490   4.409   6.063  14.114 -0.0644  0.1050  0.4371
 2692TIP3    H129491   4.404   5.968  14.115  1.3823 -0.0440 -1.3465
 2692TIP3    H229492   4.503   6.082  14.119 -0.3299  1.4226  0.6845
 2693TIP3   OH229493   1.035   5.824   1.602  0.0177 -0.2915 -0.3862
 2693TIP3    H129494   1.009   5.785   1.685 -1.7983  2.1885  0.3379
 2693TIP3    H229495   1.103   5.766   1.568 -0.2924 -2.2349  2.0445
 2694TIP3   OH229496   6.515   3.589  12.025 -0.3477 -0.5501  0.1081
 2694TIP3    H129497   6.540   3.507  12.066  0.6206 -0.9932 -1.2921
 2694TIP3    H229498   6.569   3.655  12.068 -1.8217 -0.4512  1.9186
 2695TIP3   OH229499   0.084   3.885   1.987 -0.0546 -0.1210  0.3196
 2695TIP3    H129500   0.080   3.976   1.956 -0.5144 -0.0854  0.4809
 2695TIP3    H229501   0.175   3.874   2.015  0.5694 -0.3690 -1.6514
 2696TIP3   OH229502   0.492   2.982   4.428 -0.1103 -0.1782  0.1551
 2696TIP3    H129503   0.487   2.962   4.335  1.1054 -1.2954  0.2992
 2696TIP3    H229504   0.435   3.058   4.440 -0.5774 -0.2546 -1.4199
 2697TIP3   OH229505   0.227   1.753   3.211  0.3253 -0.3627  0.1886
 2697TIP3    H129506   0.185   1.678   3.170 -0.9365  0.4866 -0.1415
 2697TIP3    H229507   0.262   1.804   3.137  0.3659 -0.1651  0.3424
 2698TIP3   OH229508   2.143   0.756  13.903 -0.2815  0.0457 -0.2683
 2698TIP3    H129509   2.080   0.805  13.851 -0.1731 -1.1777 -1.6208
 2698TIP3    H229510   2.151   0.806  13.985 -2.9618  0.2836 -0.0499
 2699TIP3   OH229511   5.195   2.542  15.376  0.0290  0.0340  0.0080
 2699TIP3    H129512   5.222   2.490  15.300 -0.5136 -0.0515 -0.1319
 2699TIP3    H229513   5.249   2.510  15.448  1.7374  1.2549 -0.6802
 2700TIP3   OH229514   0.164   3.215   4.914 -0.6054 -0.8250  0.0527
 2700TIP3    H129515   0.133   3.126   4.930 -0.3264 -1.1114 -0.9230
 2700TIP3    H229516   0.102   3.250   4.850  0.6440 -1.1827 -1.4335
 2701TIP3   OH229517   3.973   5.590  12.576 -1.0255  0.0823  0.1197
 2701TIP3    H129518   3.997   5.632  12.659  0.5035 -0.1830 -0.1632
 2701TIP3    H229519   3.881   5.565  12.588 -1.1828  1.1055  1.2832
 2702TIP3   OH229520   0.640   5.494   0.744  0.1207 -0.3247 -0.5397
 2702TIP3    H129521   0.550   5.516   0.718 -0.4761  1.2971  2.4153
 2702TIP3    H229522   0.634   5.405   0.779 -0.3078 -0.2927 -0.5291
 2703TIP3   OH229523   4.563   5.770  16.825 -0.0056 -0.3075  0.0657
 2703TIP3    H129524   4.656   5.792  16.821 -0.2937  1.0582  0.5438
 2703TIP3    H229525   4.537   5.761  16.733  0.2208  0.9942 -0.1397
 2704TIP3   OH229526   4.799   5.119   3.969 -0.4028  0.4362  0.1398
 2704TIP3    H129527   4.823   5.056   3.901 -1.4068  1.6349 -1.3833
 2704TIP3    H229528   4.880   5.132   4.018  0.0166 -1.4330  0.0263
 2705TIP3   OH229529   5.552   3.640   2.158 -0.1368 -0.0471  0.0081
 2705TIP3    H129530   5.459   3.665   2.157 -0.6973 -1.9826 -0.2255
 2705TIP3    H229531   5.569   3.616   2.249 -0.8335 -2.8604 -0.5229
 2706TIP3   OH229532   6.269   5.909  14.933  0.1022 -0.0628 -0.0960
 2706TIP3    H129533   6.298   5.998  14.916 -1.3520  0.4163 -0.2107
 2706TIP3    H229534   6.319   5.855  14.872 -0.7295  0.9582 -1.7406
 2707TIP3   OH229535   1.475   5.367   4.343  0.3142 -0.1516 -0.0540
 2707TIP3    H129536   1.383   5.364   4.316 -0.3860  1.5573  1.8453
 2707TIP3    H229537   1.488   5.457   4.373  2.5008 -0.4721  0.1348
 2708TIP3   OH229538   6.526   4.942  15.379  0.3971  0.1632 -0.4748
 2708TIP3    H129539   6.466   5.014  15.359 -1.1361 -0.8002  0.5340
 2708TIP3    H229540   6.562   4.964  15.465 -0.9157 -0.7884  0.3399
 2709TIP3   OH229541   4.100   4.218   2.325  0.3472 -0.1480  0.0671
 2709TIP3    H129542   4.051   4.300   2.319  1.7752  0.8357  0.9712
 2709TIP3    H229543   4.049   4.155   2.274 -2.8525  0.2643  2.4519
 2710TIP3   OH229544   3.361   2.221   5.639 -0.3788 -0.1970  0.5862
 2710TIP3    H129545   3.362   2.179   5.725  0.7337 -0.3448  0.5196
 2710TIP3    H229546   3.427   2.291   5.646 -1.4931  0.9146  0.3800
 2711TIP3   OH229547   5.642   4.740   1.291  0.4229 -0.3900  0.0561
 2711TIP3    H129548   5.719   4.747   1.348  0.2825 -1.0393  0.3301
 2711TIP3    H229549   5.639   4.824   1.244  0.3233  0.3186  1.2869
 2712TIP3   OH229550   4.574   4.242   2.641  0.1402 -0.5642  0.1120
 2712TIP3    H129551   4.491   4.215   2.603 -0.1436 -0.3121  0.5566
 2712TIP3    H229552   4.571   4.212   2.731  0.8856 -1.3122 -0.0971
 2713TIP3   OH229553   0.349   0.529   3.532  0.2838 -0.1981  0.5001
 2713TIP3    H129554   0.289   0.455   3.537  0.5816 -0.4613  0.2253
 2713TIP3    H229555   0.350   0.564   3.621  0.1543 -0.5352  0.6378
 2714TIP3   OH229556   3.960   0.834   5.493  0.3967 -0.3819 -0.0945
 2714TIP3    H129557   3.879   0.785   5.502 -0.3264  0.8484  0.4818
 2714TIP3    H229558   4.024   0.784   5.543 -1.1059  0.8568  3.4616
 2715TIP3   OH229559   0.058   1.883   6.605 -0.0583 -0.0030  0.6334
 2715TIP3    H129560   0.022   1.796   6.619 -1.0571 -0.1435 -2.2037
 2715TIP3    H229561   0.005   1.920   6.534  4.0187  0.5758 -2.4559
 2716TIP3   OH229562   1.453   1.446  11.552  0.2087 -0.4481 -0.6854
 2716TIP3    H129563   1.543   1.438  11.520  1.0958  2.3806  0.7932
 2716TIP3    H229564   1.422   1.529  11.516 -0.2915  0.6523  2.0317
 2717TIP3   OH229565   0.691   1.125  10.694 -0.3098 -0.8961  0.0340
 2717TIP3    H129566   0.719   1.213  10.670 -0.7044 -1.1886 -1.6843
 2717TIP3    H229567   0.607   1.137  10.738  0.3942 -0.3223  1.2565
 2718TIP3   OH229568   2.256   3.139   3.191  0.6422  0.2114  0.6102
 2718TIP3    H129569   2.239   3.187   3.110  1.5038 -1.4585 -0.6141
 2718TIP3    H229570   2.169   3.110   3.219  0.3883  0.3764  0.0189
 2719TIP3   OH229571   2.322   0.195   0.967 -0.2206  0.0903  0.1794
 2719TIP3    H129572   2.414   0.183   0.943 -0.0301  1.3312  0.1936
 2719TIP3    H229573   2.321   0.186   1.062 -0.2083 -0.4762  0.1254
 2720TIP3   OH229574   4.664   2.929   3.347 -0.2270 -0.1871 -0.4156
 2720TIP3    H129575   4.692   2.845   3.381 -0.5024 -0.5734 -1.1177
 2720TIP3    H229576   4.574   2.914   3.316  0.2985 -0.1040 -2.0902
 2721TIP3   OH229577   4.031   2.192  16.804 -0.0656 -0.5912  0.0053
 2721TIP3    H129578   4.025   2.137  16.883 -1.4745 -0.2747  0.1416
 2721TIP3    H229579   3.976   2.148  16.740 -1.6212  0.8794  0.2686
 2722TIP3   OH229580   5.026   6.708   5.424  0.0341  0.3076 -0.1354
 2722TIP3    H129581   5.004   6.725   5.515  0.5307 -0.2982  0.1059
 2722TIP3    H229582   4.946   6.669   5.387  0.0658 -0.1327  0.2432
 2723TIP3   OH229583   0.493   2.711   5.764 -0.0028  0.1865 -0.1244
 2723TIP3    H129584   0.476   2.634   5.819  0.2513  0.1381 -0.1087
 2723TIP3    H229585   0.587   2.705   5.744 -0.3167 -0.4896 -1.5938
 2724TIP3   OH229586   3.320   4.701   4.804  0.0630  0.1719 -0.1490
 2724TIP3    H129587   3.296   4.780   4.853 -0.5977 -0.3060  0.3236
 2724TIP3    H229588   3.363   4.645   4.868  0.9141  0.3175 -0.5874
 2725TIP3   OH229589   2.846   6.300   2.215  0.8055 -0.5357  0.3012
 2725TIP3    H129590   2.789   6.300   2.139  1.1379 -1.7290  0.0244
 2725TIP3    H229591   2.931   6.273   2.182  1.0001 -0.8902  1.0512
 2726TIP3   OH229592   3.803   3.304   1.323 -0.0455 -0.4046  0.3562
 2726TIP3    H129593   3.858   3.279   1.250  2.1972 -0.6012  2.0166
 2726TIP3    H229594   3.733   3.238   1.325 -0.3867 -0.1690 -1.7671
 2727TIP3   OH229595   1.704   0.635  14.382  0.0210  0.1473 -0.6271
 2727TIP3    H129596   1.765   0.572  14.420 -0.2169  1.1249  1.5061
 2727TIP3    H229597   1.697   0.705  14.448  0.7633  2.7668 -3.1171
 2728TIP3   OH229598   4.030   3.844   3.739 -0.1265 -0.1973  0.4724
 2728TIP3    H129599   3.940   3.821   3.760 -0.0157 -0.7189  0.3786
 2728TIP3    H229600   4.025   3.936   3.712 -0.4723  0.0745  1.4271
 2729TIP3   OH229601   2.605   6.620  10.839  0.1046 -0.3889  0.1633
 2729TIP3    H129602   2.678   6.634  10.900 -1.7508 -0.4491  2.5424
 2729TIP3    H229603   2.575   6.708  10.817  0.5970 -0.3747 -0.4936
 2730TIP3   OH229604   1.585   1.538  15.843  0.2214 -0.1847  0.2016
 2730TIP3    H129605   1.524   1.466  15.862 -0.8680  0.3718 -1.0330
 2730TIP3    H229606   1.652   1.530  15.910  0.0895 -2.3062  0.1644
 2731TIP3   OH229607   5.701   2.299   5.587 -0.5391  0.7831  0.8496
 2731TIP3    H129608   5.606   2.289   5.595 -0.5151  1.0022  1.4160
 2731TIP3    H229609   5.725   2.363   5.653  0.0590  0.4617  0.9578
 2732TIP3   OH229610   2.873   5.724   0.064 -0.1202 -0.0620 -0.5369
 2732TIP3    H129611   2.782   5.698   0.080 -0.4004  0.9890 -0.3127
 2732TIP3    H229612   2.918   5.701   0.145  0.0440 -1.5258 -1.0259
 2733TIP3   OH229613   5.321   0.255  10.881  0.0082 -0.1787  0.2389
 2733TIP3    H129614   5.341   0.225  10.970 -1.6081 -1.7946  0.1442
 2733TIP3    H229615   5.403   0.292  10.848  0.4354  1.2533  2.6656
 2734TIP3   OH229616   4.303   0.392  17.090  0.0001  0.1523 -0.0802
 2734TIP3    H129617   4.329   0.322  17.150  2.7719  0.4786 -0.7962
 2734TIP3    H229618   4.299   0.350  17.005  1.4202  0.7573 -0.4724
 2735TIP3   OH229619   4.800   2.303  12.519 -0.4494  0.0711  0.1194
 2735TIP3    H129620   4.875   2.321  12.463  0.8556 -0.0867  1.7334
 2735TIP3    H229621   4.782   2.386  12.563  0.9680 -0.6275  2.1917
 2736TIP3   OH229622   1.044   6.268   0.748  0.1800  0.2873 -0.0075
 2736TIP3    H129623   1.086   6.350   0.776  2.9836 -1.4722  1.2827
 2736TIP3    H229624   1.060   6.264   0.654  2.0539  0.1946  0.2832
 2737TIP3   OH229625   4.469   5.769  11.974  0.1051 -0.4760  0.3002
 2737TIP3    H129626   4.451   5.860  11.997 -1.8015 -0.2389 -1.7795
 2737TIP3    H229627   4.401   5.719  12.019  0.3637 -0.7390  0.4025
 2738TIP3   OH229628   4.680   4.985  11.953  0.0619  0.2720  0.0026
 2738TIP3    H129629   4.758   4.996  11.898  0.7086 -1.4779  0.4838
 2738TIP3    H229630   4.652   4.895  11.936 -0.7939  0.3026  1.1805
 2739TIP3   OH229631   0.217   1.513   3.755 -0.9061 -0.2726  0.1525
 2739TIP3    H129632   0.271   1.558   3.690 -1.2915 -1.5110 -1.0529
 2739TIP3    H229633   0.243   1.422   3.750 -2.2586 -0.6934  0.4013
 2740TIP3   OH229634   6.764   5.232  14.168 -0.1211 -0.2054 -0.3366
 2740TIP3    H129635   6.783   5.200  14.256 -0.1213  1.9235  0.5170
 2740TIP3    H229636   6.682   5.281  14.178 -0.2488 -0.1216 -1.5894
 2741TIP3   OH229637   6.061   0.622   0.111 -0.0739  0.1768 -0.4726
 2741TIP3    H129638   6.111   0.637   0.192 -0.5097  0.7434 -0.3017
 2741TIP3    H229639   6.113   0.558   0.062  1.7960  2.1056 -1.1559
 2742TIP3   OH229640   3.155   3.523  13.954  0.1893  0.4072  0.4006
 2742TIP3    H129641   3.106   3.545  14.033 -0.6841 -2.1447  0.6826
 2742TIP3    H229642   3.111   3.444  13.920  3.0616 -1.0394 -0.2721
 2743TIP3   OH229643   4.427   3.508  14.575  0.9140  0.4760 -0.2509
 2743TIP3    H129644   4.379   3.473  14.500  0.1308  1.5787 -0.2870
 2743TIP3    H229645   4.502   3.554  14.537  1.4461 -0.3601 -0.2477
 2744TIP3   OH229646   0.995   1.431   5.252  0.1704  0.2522  0.5625
 2744TIP3    H129647   0.912   1.399   5.289 -1.3545  2.1230 -1.0360
 2744TIP3    H229648   1.038   1.474   5.325  0.8104 -2.5234  1.9608
 2745TIP3   OH229649   6.721   3.254   2.576 -0.1135 -0.3150  1.0285
 2745TIP3    H129650   6.752   3.178   2.528  0.6729 -0.1618  1.2831
 2745TIP3    H229651   6.748   3.329   2.523 -0.4633 -0.1894  1.0203
 2746TIP3   OH229652   0.712   4.720   1.226 -0.3734  0.4205  0.0586
 2746TIP3    H129653   0.695   4.791   1.164 -2.4470 -1.2653 -1.5100
 2746TIP3    H229654   0.675   4.643   1.183 -1.8407 -0.9115  3.3565
 2747TIP3   OH229655   3.750   3.019   2.506 -0.0794 -0.5315  0.0758
 2747TIP3    H129656   3.818   2.995   2.443 -0.3354 -2.5995  0.4847
 2747TIP3    H229657   3.799   3.043   2.585  0.2698 -2.5458  0.5504
 2748TIP3   OH229658   6.116   2.274  16.147 -0.1749  0.4095  0.3455
 2748TIP3    H129659   6.188   2.234  16.098 -0.8245 -1.1934  0.6313
 2748TIP3    H229660   6.062   2.317  16.080 -0.2411 -0.4715 -0.1761
 2749TIP3   OH229661   1.209   1.837  12.818 -0.1839 -0.0541  0.3112
 2749TIP3    H129662   1.212   1.824  12.723 -0.6780 -1.0873  0.4228
 2749TIP3    H229663   1.285   1.788  12.850  0.2386  0.6620  0.4175
 2750TIP3   OH229664   4.586   0.959  15.581 -0.3906 -0.1512  0.0549
 2750TIP3    H129665   4.578   0.885  15.520  1.3592  0.5460 -1.0936
 2750TIP3    H229666   4.679   0.981  15.580 -0.8934  2.2236  0.1952
 2751TIP3   OH229667   0.832   0.744  12.139 -0.0786  0.0186  0.2763
 2751TIP3    H129668   0.786   0.825  12.161  1.2125  0.3775  1.8124
 2751TIP3    H229669   0.889   0.767  12.066  0.1067  0.4388  0.5505
 2752TIP3   OH229670   1.801   0.495  11.437 -0.4337 -0.3365  0.2644
 2752TIP3    H129671   1.893   0.473  11.419 -0.0888  1.0632  0.2195
 2752TIP3    H229672   1.802   0.589  11.454 -1.7157 -0.4896  1.3136
 2753TIP3   OH229673   5.215   3.466   5.482  0.4761  0.1438  0.0905
 2753TIP3    H129674   5.290   3.526   5.492 -0.7286  2.2745 -2.5498
 2753TIP3    H229675   5.255   3.379   5.480  2.8965  1.1791 -0.9661
 2754TIP3   OH229676   0.801   2.403   0.470 -0.5682  0.3804 -0.3751
 2754TIP3    H129677   0.719   2.375   0.429 -0.7881 -0.4431  0.6022
 2754TIP3    H229678   0.865   2.401   0.399 -0.0945 -4.5545 -0.1120
 2755TIP3   OH229679   1.319   5.161  11.174 -0.2495 -0.5942 -0.1748
 2755TIP3    H129680   1.250   5.226  11.156 -0.4706 -0.2822  1.6424
 2755TIP3    H229681   1.376   5.204  11.237  0.7240 -1.4512 -0.4537
 2756TIP3   OH229682   3.668   0.886  15.990 -0.3267  0.3419 -0.3568
 2756TIP3    H129683   3.710   0.971  16.003 -1.1812  0.8921 -1.0803
 2756TIP3    H229684   3.635   0.863  16.077  0.8721  0.2056  0.0816
 2757TIP3   OH229685   5.377   0.150   1.427  0.4041 -0.3484 -0.6344
 2757TIP3    H129686   5.418   0.231   1.457  1.6601  0.0321 -3.1278
 2757TIP3    H229687   5.297   0.178   1.383  1.7144 -0.1455 -3.0898
 2758TIP3   OH229688   1.619   0.379   2.451  0.3730  0.1174  0.3281
 2758TIP3    H129689   1.581   0.312   2.394 -0.4940  2.3812 -1.9392
 2758TIP3    H229690   1.546   0.405   2.508 -0.2036  1.0922 -0.7866
 2759TIP3   OH229691   5.085   5.698  14.385 -0.5963  1.0417  0.2731
 2759TIP3    H129692   5.137   5.717  14.307  2.4360  1.9882  2.3368
 2759TIP3    H229693   5.013   5.760  14.382 -1.8818 -0.3673 -2.7567
 2760TIP3   OH229694   4.511   1.498  10.251  0.3271 -0.1704 -0.1453
 2760TIP3    H129695   4.570   1.435  10.293 -0.9432 -0.6496  1.0386
 2760TIP3    H229696   4.442   1.444  10.212  0.5096  0.3837 -1.2818
 2761TIP3   OH229697   5.606   4.330  16.674  0.0723  0.2133  0.2977
 2761TIP3    H129698   5.594   4.404  16.733  0.3370  1.0155 -0.6260
 2761TIP3    H229699   5.678   4.280  16.713 -0.2964  0.2722  1.0796
 2762TIP3   OH229700   6.117   2.862   2.525  0.3614  0.0677 -0.0893
 2762TIP3    H129701   6.172   2.891   2.597  0.8527 -0.9681 -0.0276
 2762TIP3    H229702   6.039   2.916   2.531  0.4270  0.0505  1.1737
 2763TIP3   OH229703   3.478   6.753  16.779 -0.2328  0.0164 -0.0428
 2763TIP3    H129704   3.469   6.848  16.788 -0.4218  0.0126 -0.1804
 2763TIP3    H229705   3.542   6.728  16.845  0.6561  0.3895 -0.7471
 2764TIP3   OH229706   5.108   4.355   3.911 -0.0663  0.2378 -0.0155
 2764TIP3    H129707   5.077   4.343   3.821 -0.0506  2.1305 -0.3107
 2764TIP3    H229708   5.030   4.384   3.959  0.3000  0.9021  0.1844
 2765TIP3   OH229709   5.594   5.683   0.758 -0.0112 -0.0334  0.1285
 2765TIP3    H129710   5.582   5.746   0.829 -0.1068 -1.1844  1.1604
 2765TIP3    H229711   5.653   5.617   0.794  0.3781 -0.3671 -1.0619
 2766TIP3   OH229712   2.173   5.234  12.743 -0.4131 -0.5857  0.1012
 2766TIP3    H129713   2.200   5.316  12.702  1.9253 -0.4296  1.7649
 2766TIP3    H229714   2.147   5.259  12.832 -0.4073 -1.5561  0.3890
 2767TIP3   OH229715   0.019   5.158   0.192  0.7959  0.1512 -0.5389
 2767TIP3    H129716  -0.074   5.159   0.169  0.6042  1.7965  0.1551
 2767TIP3    H229717   0.052   5.077   0.153 -0.9279 -0.5017 -0.7625
 2768TIP3   OH229718   5.415   0.901   3.796  0.1236 -0.0464  0.9775
 2768TIP3    H129719   5.429   0.899   3.701  1.0167 -2.3127  1.0836
 2768TIP3    H229720   5.470   0.974   3.826  0.1118  0.4815 -0.1947
 2769TIP3   OH229721   5.181   4.147   4.126  0.0504 -0.1986 -0.0974
 2769TIP3    H129722   5.097   4.163   4.169 -0.0528 -2.1880  0.5186
 2769TIP3    H229723   5.175   4.197   4.045 -0.6490  1.8286  1.1143
 2770TIP3   OH229724   4.134   5.448   5.067  0.1379  0.0664 -0.1850
 2770TIP3    H129725   4.173   5.376   5.117 -1.1316 -0.6516 -0.1617
 2770TIP3    H229726   4.074   5.490   5.129  0.9022  1.1981 -0.1829
 2771TIP3   OH229727   5.769   6.750  16.754 -0.0435 -0.2831 -0.1192
 2771TIP3    H129728   5.686   6.796  16.768  0.1367  0.3938 -1.1794
 2771TIP3    H229729   5.808   6.744  16.842 -1.3197 -0.8709  0.4447
 2772TIP3   OH229730   6.501   0.939   4.911 -0.2381 -0.0680 -0.5046
 2772TIP3    H129731   6.430   0.886   4.948  0.0151  0.4296  0.7464
 2772TIP3    H229732   6.493   0.927   4.817  0.6058 -3.3512 -0.2665
 2773TIP3   OH229733   5.103   5.043   0.450  0.2219 -0.5427 -0.2240
 2773TIP3    H129734   5.011   5.018   0.448 -0.0367 -0.5749  3.7920
 2773TIP3    H229735   5.103   5.135   0.476  1.4070  1.0278 -4.8405
 2774TIP3   OH229736   1.725   2.787   1.145  0.1679 -0.2732 -0.2748
 2774TIP3    H129737   1.737   2.703   1.099  1.6112 -0.5060  0.4960
 2774TIP3    H229738   1.812   2.811   1.175 -0.3366  1.2053  0.0676
 2775TIP3   OH229739   6.782   4.094  16.084 -0.6974 -0.2380  1.0554
 2775TIP3    H129740   6.734   4.136  16.154  0.0273 -1.6531  2.4662
 2775TIP3    H229741   6.743   4.007  16.076 -0.4958 -0.2533 -0.0196
 2776TIP3   OH229742   4.373   5.830   5.910 -0.6137  0.0365 -0.0478
 2776TIP3    H129743   4.306   5.776   5.952  0.9718 -1.6069  0.5481
 2776TIP3    H229744   4.351   5.920   5.934 -2.4609 -0.4625  0.2794
 2777TIP3   OH229745   5.730   0.118   4.269  0.0963 -0.4314 -0.0806
 2777TIP3    H129746   5.751   0.194   4.322 -0.0254 -0.4714  0.0264
 2777TIP3    H229747   5.634   0.117   4.266  0.0554 -1.1470  0.7582
 2778TIP3   OH229748   1.662   5.296   6.486 -0.0127 -0.0922 -0.3195
 2778TIP3    H129749   1.594   5.234   6.512 -0.1463 -0.4816 -1.5569
 2778TIP3    H229750   1.625   5.344   6.412  1.5858 -1.4030 -2.0615
 2779TIP3   OH229751   5.714   1.230   4.761  0.3233 -0.1358 -0.4083
 2779TIP3    H129752   5.693   1.270   4.676 -0.6654 -0.9888 -0.5943
 2779TIP3    H229753   5.807   1.210   4.756  0.7737  1.8207 -0.4242
 2780TIP3   OH229754   1.308   3.891   6.008  0.5812 -0.7290  0.0107
 2780TIP3    H129755   1.376   3.824   6.016 -0.6604 -2.0369  0.0934
 2780TIP3    H229756   1.341   3.965   6.059  1.3529 -1.8259  1.1724
 2781TIP3   OH229757   3.572   4.258  16.981  0.1173 -0.2179 -0.1111
 2781TIP3    H129758   3.503   4.213  16.932  0.4763 -0.0524 -0.7775
 2781TIP3    H229759   3.592   4.199  17.054 -0.0878 -0.6929 -0.4338
 2782TIP3   OH229760   4.352   6.269  11.540  0.4819 -0.2811 -0.0313
 2782TIP3    H129761   4.416   6.199  11.553  1.2791  0.0293 -1.9562
 2782TIP3    H229762   4.392   6.326  11.473 -1.4446  0.3552 -0.7019
 2783TIP3   OH229763   5.140   5.719   4.255  0.4739 -0.3026  0.6586
 2783TIP3    H129764   5.168   5.809   4.239  0.1092 -0.2835  0.0881
 2783TIP3    H229765   5.220   5.667   4.245  0.0110 -0.5051 -3.0995
 2784TIP3   OH229766   2.449   6.721   4.467 -0.7255  0.5560  0.4103
 2784TIP3    H129767   2.517   6.727   4.399 -1.8147 -0.2905 -0.8064
 2784TIP3    H229768   2.481   6.653   4.526  0.1285  1.1380  0.6474
 2785TIP3   OH229769   1.624   0.200   1.765 -0.1028  0.5025 -0.3999
 2785TIP3    H129770   1.655   0.176   1.678 -0.0310  0.0556 -0.2524
 2785TIP3    H229771   1.689   0.164   1.825 -1.1285 -0.8767 -0.0596
 2786TIP3   OH229772   0.933   4.207  12.790 -0.2735 -0.4546  0.5556
 2786TIP3    H129773   1.017   4.184  12.830  0.3313 -0.1380 -0.5049
 2786TIP3    H229774   0.933   4.161  12.706 -1.0975 -0.3319  0.4789
 2787TIP3   OH229775   4.185   2.717   3.178  0.5044  0.1301 -0.1492
 2787TIP3    H129776   4.111   2.729   3.119 -0.9119 -1.7534  1.0857
 2787TIP3    H229777   4.145   2.683   3.259  2.5935  0.3898  1.0639
 2788TIP3   OH229778   3.062   4.108  14.554 -0.5468  0.3221  0.7633
 2788TIP3    H129779   3.070   4.054  14.476 -1.5359 -0.5939  1.2562
 2788TIP3    H229780   3.151   4.133  14.576 -0.1610 -0.3079 -0.0427
 2789TIP3   OH229781   4.649   0.494   0.143 -0.2088  0.0950 -0.2308
 2789TIP3    H129782   4.584   0.536   0.199  1.0245  0.6201  0.8589
 2789TIP3    H229783   4.694   0.566   0.098  0.2154 -0.1965 -0.2916
 2790TIP3   OH229784   5.416   0.427  17.181  0.5306 -0.0065  0.3181
 2790TIP3    H129785   5.423   0.482  17.104 -2.8585  0.7764  0.4380
 2790TIP3    H229786   5.438   0.485  17.254  0.2620  0.2313  0.2092
 2791TIP3   OH229787   1.394   0.370   3.383  0.1978  0.0046 -0.2947
 2791TIP3    H129788   1.468   0.331   3.338  1.1711  1.8731 -0.4029
 2791TIP3    H229789   1.403   0.342   3.474  1.4408  0.7584 -0.1736
 2792TIP3   OH229790   4.372   5.380  16.480 -0.1840  0.5311 -0.1129
 2792TIP3    H129791   4.321   5.354  16.557  0.0461 -2.2775 -0.7910
 2792TIP3    H229792   4.317   5.359  16.405  0.2628  1.6167 -0.7688
 2793TIP3   OH229793   4.817   2.463  17.079  0.0221 -0.2487  0.3439
 2793TIP3    H129794   4.826   2.544  17.030  2.7550 -0.6181  0.0588
 2793TIP3    H229795   4.904   2.447  17.116 -0.7027 -2.4812  1.3063
 2794TIP3   OH229796   6.529   5.383   5.126 -0.0019  0.2315  0.5553
 2794TIP3    H129797   6.505   5.368   5.035 -0.9548 -0.2879  0.8879
 2794TIP3    H229798   6.507   5.301   5.171 -3.0238  1.6504  1.9509
 2795TIP3   OH229799   0.405   1.691  16.520 -0.0930  0.2186 -0.5274
 2795TIP3    H129800   0.386   1.689  16.426 -1.6358  0.9431 -0.2610
 2795TIP3    H229801   0.341   1.753  16.556  0.6774  0.1908  0.9623
 2796TIP3   OH229802   2.952   2.163  16.725  0.0733 -0.4373 -0.5787
 2796TIP3    H129803   2.915   2.159  16.813 -0.9431 -0.9079 -1.0101
 2796TIP3    H229804   3.046   2.168  16.739  0.0113 -1.7693  0.5192
 2797TIP3   OH229805   6.768   6.517  11.167  0.4273  0.0152  0.4677
 2797TIP3    H129806   6.680   6.549  11.185 -0.2803 -2.0890  1.0253
 2797TIP3    H229807   6.810   6.512  11.253 -0.0580 -2.0196  0.6410
 2798TIP3   OH229808   3.532   2.333  11.624 -0.0919 -0.1099 -0.3490
 2798TIP3    H129809   3.450   2.363  11.586 -0.4023 -1.0561 -0.4395
 2798TIP3    H229810   3.535   2.239  11.606  1.2652 -0.0055 -0.8275
 2799TIP3   OH229811   4.067   5.980  16.185 -0.8134  0.4672  0.2668
 2799TIP3    H129812   4.032   6.008  16.101  3.5141  0.3834 -1.8203
 2799TIP3    H229813   4.072   5.884  16.179 -2.1333  0.2887  1.4438
 2800TIP3   OH229814   3.079   2.177   4.585 -0.3955 -0.1468 -0.3340
 2800TIP3    H129815   3.064   2.083   4.594  0.9717 -0.3466  0.1662
 2800TIP3    H229816   3.174   2.186   4.597 -0.4460  1.2360 -0.8918
 2801TIP3   OH229817   2.340   1.935  15.081  0.2488 -0.1003  0.2986
 2801TIP3    H129818   2.346   1.900  14.992  0.1024  1.7120 -0.4763
 2801TIP3    H229819   2.429   1.930  15.115  0.2391 -1.1359  0.1961
 2802TIP3   OH229820   4.605   3.262  12.185  0.4750 -0.1984  0.3673
 2802TIP3    H129821   4.655   3.330  12.231  0.0499  1.2604 -1.2494
 2802TIP3    H229822   4.616   3.283  12.092 -1.3489 -1.1415 -0.0914
 2803TIP3   OH229823   2.463   1.277  12.015 -0.0045  0.8071  0.4249
 2803TIP3    H129824   2.552   1.243  12.014  0.5646  2.0890 -2.0869
 2803TIP3    H229825   2.408   1.199  12.026  1.3712 -0.1441  0.8878
 2804TIP3   OH229826   4.003   2.427   0.657  0.2918 -0.4094 -0.2794
 2804TIP3    H129827   3.998   2.419   0.753 -1.3156  0.0125 -0.2897
 2804TIP3    H229828   3.912   2.440   0.630  0.8503  0.6086 -1.7672
 2805TIP3   OH229829   2.449   0.520   2.920  0.2518 -0.3494 -0.2209
 2805TIP3    H129830   2.369   0.544   2.967 -0.7542 -0.2014 -1.9501
 2805TIP3    H229831   2.454   0.425   2.930  0.3275 -0.2703  0.5854
 2806TIP3   OH229832   4.016   0.237  12.346 -0.2097 -0.6220  0.8173
 2806TIP3    H129833   4.111   0.240  12.358 -0.3851  1.3966  2.1038
 2806TIP3    H229834   3.987   0.328  12.354 -2.3281 -1.2646  1.1657
 2807TIP3   OH229835   5.413   3.451  11.687  0.0211  0.3214  0.3094
 2807TIP3    H129836   5.369   3.397  11.621  2.5492 -1.6816  0.1232
 2807TIP3    H229837   5.344   3.473  11.749 -1.7793 -0.3932 -1.3267
 2808TIP3   OH229838   0.449   5.911   4.714 -1.1009 -0.1367 -0.2119
 2808TIP3    H129839   0.450   5.945   4.804 -1.2567 -0.7535  0.0304
 2808TIP3    H229840   0.539   5.921   4.684 -0.7763 -0.9631  0.4261
 2809TIP3   OH229841   0.095   0.427  15.256  0.1589 -0.5458  0.2526
 2809TIP3    H129842   0.126   0.445  15.345  1.9815 -0.0424 -0.4347
 2809TIP3    H229843   0.099   0.512  15.212  0.7568 -1.0537 -0.7151
 2810TIP3   OH229844   1.860   1.454  15.079 -0.0645 -0.2537  0.1179
 2810TIP3    H129845   1.766   1.463  15.061 -0.0104 -1.6390 -1.0218
 2810TIP3    H229846   1.865   1.451  15.174 -1.3882 -1.8108  0.1953
 2811TIP3   OH229847   1.667   3.461   4.815 -0.2715 -0.0820 -0.0738
 2811TIP3    H129848   1.712   3.424   4.890  1.8553 -1.0078 -1.7000
 2811TIP3    H229849   1.598   3.516   4.853  1.1589  0.0723  2.5353
 2812TIP3   OH229850   2.929   2.546  14.583 -0.4333 -0.7735 -0.2038
 2812TIP3    H129851   2.977   2.475  14.540  0.3532 -0.0529 -0.5226
 2812TIP3    H229852   2.972   2.557  14.667 -0.2215 -0.3201 -0.3696
 2813TIP3   OH229853   1.566   5.029  14.539 -0.4573  0.3229  0.0000
 2813TIP3    H129854   1.492   5.055  14.484 -0.5532 -1.5002 -0.8052
 2813TIP3    H229855   1.557   4.934  14.548  0.3915  0.3653  1.9755
 2814TIP3   OH229856   4.845   0.243   4.937 -0.3088  0.4605 -0.0848
 2814TIP3    H129857   4.890   0.178   4.883 -0.2522  0.9833 -0.6740
 2814TIP3    H229858   4.811   0.193   5.012  1.3211  0.0678  0.4308
 2815TIP3   OH229859   2.787   6.257  14.370  0.1928 -0.1204 -0.6839
 2815TIP3    H129860   2.810   6.341  14.330 -0.9142 -0.5906 -2.4224
 2815TIP3    H229861   2.864   6.202  14.356  0.7708  0.4589  0.1156
 2816TIP3   OH229862   4.985   0.748   2.551  0.0803 -0.1518  0.5967
 2816TIP3    H129863   4.924   0.674   2.549 -0.0121 -0.0707  0.3511
 2816TIP3    H229864   4.934   0.822   2.519 -0.4741  0.5135  2.8168
 2817TIP3   OH229865   4.504   1.768  13.619 -0.0352  0.1446 -0.1222
 2817TIP3    H129866   4.452   1.752  13.698 -1.2910 -0.2754 -0.9965
 2817TIP3    H229867   4.592   1.788  13.651 -0.1175 -1.5784  1.3341
 2818TIP3   OH229868   6.221   6.738  16.962  0.5216 -0.4616  0.4477
 2818TIP3    H129869   6.212   6.814  16.904 -1.8867 -0.6038  0.5404
 2818TIP3    H229870   6.263   6.773  17.041  0.5183  0.5176  0.0312
 2819TIP3   OH229871   3.791   3.862   2.128 -0.1738  0.1745  0.2157
 2819TIP3    H129872   3.785   3.767   2.140  0.1997  0.1587  0.2888
 2819TIP3    H229873   3.714   3.897   2.173 -0.8907 -0.1642 -0.7219
 2820TIP3   OH229874   2.164   1.384  15.389  0.2008 -0.0907  0.5632
 2820TIP3    H129875   2.094   1.450  15.391  0.1371 -0.1642  0.8882
 2820TIP3    H229876   2.244   1.434  15.370 -0.0591 -0.1236 -0.6956
 2821TIP3   OH229877   3.528   4.515  14.750  0.4127 -0.5488 -0.3468
 2821TIP3    H129878   3.554   4.577  14.818 -0.6432  0.9859 -1.2882
 2821TIP3    H229879   3.591   4.528  14.679 -0.4609  0.2693 -0.9938
 2822TIP3   OH229880   1.903   3.946   0.741  0.5790  0.5472  0.0749
 2822TIP3    H129881   1.935   4.009   0.676 -3.0856 -0.4446 -3.0648
 2822TIP3    H229882   1.828   3.991   0.781  0.4955 -0.2767  0.8552
 2823TIP3   OH229883   4.276   0.521   3.724 -0.2445  0.3581  0.0274
 2823TIP3    H129884   4.364   0.514   3.762 -0.5678 -1.0880  0.5334
 2823TIP3    H229885   4.292   0.533   3.630  0.5034 -0.9596 -0.0391
 2824TIP3   OH229886   5.187   6.244   6.255 -0.5098 -0.3250  0.7064
 2824TIP3    H129887   5.247   6.291   6.313 -0.5236  0.1451  0.3445
 2824TIP3    H229888   5.235   6.164   6.232  0.7883  0.8707 -1.0446
 2825TIP3   OH229889   1.467   1.904   5.917  0.0549  0.0781  0.3019
 2825TIP3    H129890   1.446   1.990   5.880  0.9442  0.3082  0.3160
 2825TIP3    H229891   1.502   1.923   6.004  0.1800 -0.3060  0.3379
 2826TIP3   OH229892   1.620   1.585   4.188  0.0091 -0.3307  0.3926
 2826TIP3    H129893   1.589   1.667   4.151  0.7093 -0.0257  0.4656
 2826TIP3    H229894   1.676   1.548   4.120  1.1871  0.1610  1.0771
 2827TIP3   OH229895   4.569   0.777  11.873  0.2427 -0.6477  0.2107
 2827TIP3    H129896   4.623   0.769  11.795 -0.9603 -0.7031 -0.6464
 2827TIP3    H229897   4.499   0.838  11.849 -0.8320 -1.5851  0.8159
 2828TIP3   OH229898   6.703   2.349  16.321  0.0366  0.4937 -0.4489
 2828TIP3    H129899   6.707   2.257  16.347  2.3135  0.6549 -0.0288
 2828TIP3    H229900   6.710   2.398  16.403 -2.1978  1.1097 -0.5539
 2829TIP3   OH229901   1.300   6.362   1.820  0.1035  0.3469  0.5025
 2829TIP3    H129902   1.364   6.355   1.891  0.2192 -0.7251  0.3055
 2829TIP3    H229903   1.276   6.272   1.800 -0.0615  0.6453 -0.7111
 2830TIP3   OH229904   3.529   2.771  16.606 -0.3296 -0.1217 -0.1438
 2830TIP3    H129905   3.502   2.798  16.519  0.0201  0.1377 -0.1717
 2830TIP3    H229906   3.564   2.850  16.647  0.4339 -0.4592 -0.1268
 2831TIP3   OH229907   1.696   6.402  14.770 -0.2617 -0.0950  0.3783
 2831TIP3    H129908   1.701   6.495  14.747  0.5526 -0.0842  0.5595
 2831TIP3    H229909   1.780   6.366  14.739  0.4815 -0.2649  2.4687
 2832TIP3   OH229910   0.305   3.177  14.647  0.2765 -0.1206 -0.2048
 2832TIP3    H129911   0.276   3.268  14.635  1.1011  0.1533 -0.1677
 2832TIP3    H229912   0.308   3.166  14.742 -0.5773 -0.4450 -0.2033
 2833TIP3   OH229913   2.778   4.787   0.334  0.1821 -0.3232 -0.0404
 2833TIP3    H129914   2.762   4.854   0.401 -1.7420 -0.7044 -0.0842
 2833TIP3    H229915   2.860   4.815   0.292 -0.3801  1.8021  0.1827
 2834TIP3   OH229916   5.487   6.213  12.375 -0.0192 -0.2481  0.1110
 2834TIP3    H129917   5.454   6.301  12.355 -0.5210 -0.4201  0.1496
 2834TIP3    H229918   5.452   6.158  12.304  2.4637  0.0022 -1.4469
 2835TIP3   OH229919   6.667   6.028   1.276 -0.2064  0.3122  0.2597
 2835TIP3    H129920   6.753   6.070   1.273 -0.0477 -0.0576 -1.2645
 2835TIP3    H229921   6.682   5.941   1.238 -1.2668  0.2848 -0.1226
 2836TIP3   OH229922   2.970   6.232   6.332 -0.1714 -0.4211  0.0622
 2836TIP3    H129923   2.934   6.267   6.414 -0.2880 -0.8680  0.2052
 2836TIP3    H229924   2.896   6.185   6.292 -0.0054 -0.5426 -0.1026
 2837TIP3   OH229925   2.091   2.519   1.585  0.2498  0.0769 -0.9949
 2837TIP3    H129926   1.996   2.506   1.587  0.3666 -1.0354  1.8401
 2837TIP3    H229927   2.104   2.605   1.627  0.4857  0.6603 -2.2252
 2838TIP3   OH229928   4.799   3.196  16.973  0.0560 -0.3369  0.1358
 2838TIP3    H129929   4.838   3.274  16.932 -0.8127  0.2010  0.3020
 2838TIP3    H229930   4.722   3.177  16.920  0.1944 -1.0224  0.1703
 2839TIP3   OH229931   0.036   2.981  13.772  0.1006  0.2580 -0.8532
 2839TIP3    H129932   0.092   2.936  13.835  0.0427  0.9852 -0.2770
 2839TIP3    H229933  -0.045   2.997  13.819 -0.0615  0.5130 -1.2181
 2840TIP3   OH229934   6.543   2.379   1.030 -0.0144 -0.3141  0.2533
 2840TIP3    H129935   6.470   2.406   0.975  0.0796 -1.7599 -0.6455
 2840TIP3    H229936   6.543   2.441   1.103 -1.3497  0.4629 -0.3742
 2841TIP3   OH229937   4.887   1.660  16.795  0.0621  0.1056 -0.1527
 2841TIP3    H129938   4.878   1.751  16.823  0.6683 -0.1172  0.8145
 2841TIP3    H229939   4.798   1.625  16.798 -0.1574  0.6232 -0.4231
 2842TIP3   OH229940   0.216   4.179  14.240  0.4215 -0.0724  0.0055
 2842TIP3    H129941   0.240   4.088  14.257 -1.9732 -0.9146 -0.7395
 2842TIP3    H229942   0.275   4.230  14.296  3.1404 -1.9191 -0.9770
 2843TIP3   OH229943   4.160   1.110  12.384 -0.2856 -0.2563  0.1620
 2843TIP3    H129944   4.070   1.098  12.413 -0.4401 -0.4020 -0.3677
 2843TIP3    H229945   4.203   1.027  12.402 -0.0278  0.0708  1.1792
 2844TIP3   OH229946   0.715   0.196  15.645  0.4344 -0.0978 -0.4810
 2844TIP3    H129947   0.743   0.287  15.635  1.2759  0.2657  3.4916
 2844TIP3    H229948   0.794   0.145  15.629  0.8040  0.1603  0.4413
 2845TIP3   OH229949   4.444   4.976  16.309  0.1903  0.5905 -0.1045
 2845TIP3    H129950   4.479   5.051  16.260 -0.0965 -0.7794 -2.5297
 2845TIP3    H229951   4.516   4.915  16.314  0.2224  0.7160  1.2868
 2846TIP3   OH229952   3.883   1.634   2.536  0.1773  0.4992 -0.0079
 2846TIP3    H129953   3.934   1.636   2.617 -0.0081 -0.0602  0.1251
 2846TIP3    H229954   3.792   1.631   2.565  0.0957  0.6476 -0.2444
 2847TIP3   OH229955   2.975   6.764   0.763 -0.4604  0.2632 -0.5454
 2847TIP3    H129956   3.067   6.738   0.762 -0.4993  0.1257 -0.4894
 2847TIP3    H229957   2.942   6.734   0.848 -0.4008  0.8465 -0.3041
 2848TIP3   OH229958   4.253   0.462  12.157  0.4055  0.3392  0.1432
 2848TIP3    H129959   4.202   0.472  12.237 -0.4343 -1.7106 -0.0630
 2848TIP3    H229960   4.194   0.490  12.087  0.5112  0.4798  0.1107
 2849TIP3   OH229961   3.246   0.036  11.471  0.0585 -0.2281  0.0716
 2849TIP3    H129962   3.299   0.050  11.392 -0.4134  0.0784 -0.1948
 2849TIP3    H229963   3.265   0.112  11.526  0.9624 -0.8072  0.5894
 2850TIP3   OH229964   3.802   2.399   5.044  0.1097 -0.2777 -0.4599
 2850TIP3    H129965   3.869   2.336   5.015  0.2117  0.7945 -2.8225
 2850TIP3    H229966   3.851   2.463   5.096  0.3895 -0.9914  0.1716
 2851TIP3   OH229967   6.379   1.760   3.603 -0.1233 -1.2424  0.5324
 2851TIP3    H129968   6.348   1.764   3.693 -1.1001 -0.2157  0.1703
 2851TIP3    H229969   6.312   1.709   3.556 -0.0298 -1.0850  0.2220
 2852TIP3   OH229970   3.334   5.345  14.471  0.0190  1.0182 -0.6847
 2852TIP3    H129971   3.425   5.320  14.488  0.1203  0.5681 -1.8113
 2852TIP3    H229972   3.282   5.271  14.503  0.0052  1.4611  0.3560
 2853TIP3   OH229973   0.699   4.901   2.119 -0.2418  0.1363  0.0652
 2853TIP3    H129974   0.739   4.905   2.206  0.1017 -0.1517 -0.0803
 2853TIP3    H229975   0.623   4.960   2.126 -0.7215 -0.5476  0.8200
 2854TIP3   OH229976   1.976   1.456  14.572  0.2490 -0.1786 -0.1180
 2854TIP3    H129977   1.895   1.406  14.556 -0.2252  0.2496  0.8699
 2854TIP3    H229978   2.016   1.414  14.648  1.4220 -0.9227 -1.1112
 2855TIP3   OH229979   1.751   6.706   0.519 -0.0991  0.5487 -0.1262
 2855TIP3    H129980   1.750   6.618   0.483 -0.6760  0.0524  1.0571
 2855TIP3    H229981   1.767   6.694   0.612 -0.5779  1.6765  0.1236
 2856TIP3   OH229982   2.280   0.866   2.567 -0.0776  0.1212 -0.8000
 2856TIP3    H129983   2.297   0.789   2.512  1.5930 -0.7696  0.8590
 2856TIP3    H229984   2.195   0.847   2.607  0.5610 -1.1488  0.0077
 2857TIP3   OH229985   2.429   1.333  11.270 -0.0178  0.2943  0.0513
 2857TIP3    H129986   2.401   1.358  11.181  0.6344  2.6819  0.4358
 2857TIP3    H229987   2.513   1.378  11.281  0.9112 -1.6108  1.1861
 2858TIP3   OH229988   3.542   3.667  16.469  0.2512  0.4814  0.6950
 2858TIP3    H129989   3.546   3.592  16.529  0.7227  0.7694  1.0314
 2858TIP3    H229990   3.598   3.642  16.395  0.6807  0.6313  0.9637
 2859TIP3   OH229991   5.512   6.028   1.921  0.1295 -0.2136 -0.6774
 2859TIP3    H129992   5.566   6.065   1.851  1.8281  1.8353  1.5528
 2859TIP3    H229993   5.575   6.007   1.990 -1.8233  2.2207  2.0426
 2860TIP3   OH229994   3.574   4.472  12.773 -0.0924  0.2299  0.1177
 2860TIP3    H129995   3.494   4.496  12.726  1.5885  4.3744 -1.1188
 2860TIP3    H229996   3.643   4.477  12.706  1.6479  0.4959  1.8352
 2861TIP3   OH229997   3.739   2.639  11.309  0.2632 -0.0449  0.2076
 2861TIP3    H129998   3.749   2.629  11.404  3.0092 -2.8724 -0.1755
 2861TIP3    H229999   3.829   2.642  11.276 -0.4472 -2.7687 -2.4748
 2862TIP3   OH230000   4.002   4.434  14.680  0.2115  0.1918 -0.1289
 2862TIP3    H130001   4.027   4.474  14.596 -0.1645  2.6644  0.8556
 2862TIP3    H230002   3.928   4.378  14.658  0.9552 -0.2711 -1.6405
 2863TIP3   OH230003   1.898   3.246  14.353  0.7505 -0.2281  0.2443
 2863TIP3    H130004   1.872   3.159  14.384  0.6667 -0.1476  0.3967
 2863TIP3    H230005   1.862   3.307  14.417  1.2450 -0.1081  0.4103
 2864TIP3   OH230006   0.457   0.000   3.365  0.0660  0.8696  0.0705
 2864TIP3    H130007   0.408   0.081   3.379 -0.1599  0.8119 -0.3683
 2864TIP3    H230008   0.448  -0.048   3.447 -1.3467  0.4695 -0.2951
 2865TIP3   OH230009   4.120   4.926   0.406 -0.0746  0.0679  0.3673
 2865TIP3    H130010   4.039   4.963   0.443 -0.1829  0.1783  0.0169
 2865TIP3    H230011   4.125   4.838   0.445 -1.0195 -0.4215 -0.5660
 2866TIP3   OH230012   2.662   2.750  14.244  1.0037  0.2187  0.0224
 2866TIP3    H130013   2.593   2.799  14.200 -0.2732 -1.3744  0.1558
 2866TIP3    H230014   2.638   2.754  14.337 -1.4361 -3.7843 -0.2008
 2867TIP3   OH230015   4.690   6.281   5.666 -0.9160 -0.2392 -0.5670
 2867TIP3    H130016   4.675   6.275   5.760 -1.4185  0.4076 -0.6017
 2867TIP3    H230017   4.646   6.204   5.630 -0.7571 -0.4663 -0.2855
 2868TIP3   OH230018   0.236   0.651   3.741  0.3449 -0.6565  0.0128
 2868TIP3    H130019   0.189   0.572   3.767  4.5277 -2.9135  1.6914
 2868TIP3    H230020   0.230   0.709   3.816 -2.0314  0.4096 -0.9082
 2869TIP3   OH230021   6.474   3.059  15.188  0.4841 -0.3962 -0.5571
 2869TIP3    H130022   6.542   3.098  15.243 -0.6225  0.1424  0.4909
 2869TIP3    H230023   6.468   3.118  15.112 -0.9196  1.3774  0.8385
 2870TIP3   OH230024   1.828   1.758   2.464  0.4365 -0.1284  0.5270
 2870TIP3    H130025   1.802   1.686   2.521 -1.0897  0.6875  0.9245
 2870TIP3    H230026   1.894   1.807   2.514  0.0193 -0.1299  1.0828
 2871TIP3   OH230027   0.753   2.638  14.229  0.7480  0.2162  0.0279
 2871TIP3    H130028   0.690   2.570  14.206 -0.0970  0.5360  1.2817
 2871TIP3    H230029   0.725   2.714  14.178  0.6980  0.0902 -0.1364
 2872TIP3   OH230030   3.235   4.898  16.646 -0.5883  0.4293  0.5911
 2872TIP3    H130031   3.272   4.818  16.610 -0.4262  0.3389  0.9600
 2872TIP3    H230032   3.304   4.935  16.701 -0.5225  1.0225  0.1266
 2873TIP3   OH230033   6.271   1.225   6.617 -0.1411  0.4581 -0.1884
 2873TIP3    H130034   6.209   1.294   6.640 -1.4109 -1.0084  0.9297
 2873TIP3    H230035   6.217   1.147   6.604  1.3879 -0.6990  0.1095
 2874TIP3   OH230036   3.396   4.676   3.499  0.9386  0.2994 -0.8346
 2874TIP3    H130037   3.312   4.695   3.541  0.6475 -0.7319 -0.9162
 2874TIP3    H230038   3.417   4.586   3.526  2.1647  0.6410 -0.5734
 2875TIP3   OH230039   6.137   2.371  12.900  0.1337  0.2338 -0.0953
 2875TIP3    H130040   6.173   2.297  12.851 -1.5184 -0.6639 -0.0292
 2875TIP3    H230041   6.117   2.335  12.987  0.8322  1.1903  0.4739
 2876TIP3   OH230042   1.969   5.261   3.074 -0.1540 -0.0636 -0.2940
 2876TIP3    H130043   1.893   5.301   3.031  1.2718  4.0524  0.5637
 2876TIP3    H230044   1.931   5.217   3.151 -1.8819 -0.6872 -1.4241
 2877TIP3   OH230045   1.708   6.241  13.714 -0.3798  0.3477 -0.3045
 2877TIP3    H130046   1.704   6.162  13.769  0.0452 -0.5807 -1.5581
 2877TIP3    H230047   1.648   6.302  13.757 -2.6051 -1.4983 -0.5497
 2878TIP3   OH230048   1.089   5.961  14.751 -0.0905 -0.4480 -0.8188
 2878TIP3    H130049   1.150   6.006  14.810  0.8197 -0.5187 -1.6787
 2878TIP3    H230050   1.013   6.019  14.747 -0.6172 -0.9412  1.2226
 2879TIP3   OH230051   5.503   3.718  11.505  0.1372  0.8976 -0.2773
 2879TIP3    H130052   5.514   3.663  11.583  2.3985  1.0560 -0.4318
 2879TIP3    H230053   5.479   3.804  11.540  0.4011  0.7823  0.1986
 2880TIP3   OH230054   1.811   2.708  12.113  0.4578 -0.5498  0.2079
 2880TIP3    H130055   1.802   2.678  12.023  0.3414  0.4426 -0.1233
 2880TIP3    H230056   1.775   2.637  12.166  0.4446 -1.1026 -0.5277
 2881TIP3   OH230057   6.164   3.802  13.982 -0.6864  0.1005  0.1606
 2881TIP3    H130058   6.155   3.890  14.018 -0.7047 -0.7304  2.2973
 2881TIP3    H230059   6.197   3.749  14.054 -2.3279 -2.0302 -0.5377
 2882TIP3   OH230060   6.282   5.842  15.208 -0.2173  0.1931 -0.1607
 2882TIP3    H130061   6.272   5.887  15.124  1.8488  0.6141 -0.2347
 2882TIP3    H230062   6.233   5.895  15.270 -2.9536 -0.8722 -1.2672
 2883TIP3   OH230063   4.695   0.921  12.376 -0.0108  0.1450 -0.1867
 2883TIP3    H130064   4.667   0.838  12.336  0.7948 -0.2334  0.0096
 2883TIP3    H230065   4.789   0.911  12.388  0.3738  1.7110 -1.6118
 2884TIP3   OH230066   1.682   3.740   2.306  0.0663 -0.3250  0.3173
 2884TIP3    H130067   1.670   3.808   2.372 -1.0313  0.5939 -0.7673
 2884TIP3    H230068   1.593   3.716   2.279  0.4803 -0.6395 -0.8472
 2885TIP3   OH230069   3.064   3.728   1.089  0.2138  0.3879  0.3931
 2885TIP3    H130070   3.001   3.777   1.141  0.9660  0.1566  1.5470
 2885TIP3    H230071   3.149   3.769   1.109  0.6592 -0.4514  0.2510
 2886TIP3   OH230072   3.923   3.459   3.685 -0.3731 -0.2418  0.0755
 2886TIP3    H130073   3.906   3.439   3.593  0.1380  1.5430 -0.4495
 2886TIP3    H230074   4.008   3.504   3.685 -0.1339 -0.6219  1.4891
 2887TIP3   OH230075   0.065   2.943  16.217  0.3525  0.1676  0.4043
 2887TIP3    H130076   0.108   3.027  16.200 -0.0190  0.2849  0.0230
 2887TIP3    H230077   0.137   2.882  16.235  0.6078  0.6269  0.9573
 2888TIP3   OH230078   0.842   1.401   2.364 -0.2295 -0.4681 -0.3505
 2888TIP3    H130079   0.895   1.410   2.285 -0.3263  0.3721 -0.3268
 2888TIP3    H230080   0.899   1.357   2.427 -0.4400 -1.9609 -1.1523
 2889TIP3   OH230081   5.334   2.619   4.585  0.3000 -0.3403  0.2238
 2889TIP3    H130082   5.300   2.532   4.565  0.3118 -0.1424 -0.7086
 2889TIP3    H230083   5.256   2.673   4.597  0.2722 -0.1319 -0.8100
 2890TIP3   OH230084   3.395   0.723  12.734  0.7506 -0.3157  0.4230
 2890TIP3    H130085   3.465   0.674  12.691 -1.1283 -0.9310 -2.2482
 2890TIP3    H230086   3.405   0.812  12.700 -0.2403 -0.6083 -0.6811
 2891TIP3   OH230087   4.312   0.460   4.374 -0.4780  0.7319  0.0300
 2891TIP3    H130088   4.243   0.452   4.440 -1.0270 -0.8316 -0.6873
 2891TIP3    H230089   4.291   0.393   4.309  1.5913  0.3745 -0.3315
 2892TIP3   OH230090   0.990   1.816  16.508  0.0993 -0.3756 -0.1420
 2892TIP3    H130091   0.897   1.800  16.491 -0.1894  1.9929 -1.0622
 2892TIP3    H230092   1.031   1.729  16.503 -2.0834 -1.5154  0.6392
 2893TIP3   OH230093   1.811   4.359  16.397 -0.7226  0.3304  0.2336
 2893TIP3    H130094   1.725   4.398  16.414 -0.7878  0.7819 -1.0191
 2893TIP3    H230095   1.873   4.417  16.442 -0.9850  0.7234  0.0948
 2894TIP3   OH230096   0.251   4.667  12.924 -0.2450 -0.1838 -0.1672
 2894TIP3    H130097   0.328   4.713  12.893 -0.4223  0.1894 -0.0567
 2894TIP3    H230098   0.273   4.640  13.014 -0.9113  1.5400  0.5631
 2895TIP3   OH230099   3.762   3.935  14.965  0.0592  0.2163 -0.1965
 2895TIP3    H130100   3.786   3.891  15.046  1.8456  0.0936 -0.7373
 2895TIP3    H230101   3.832   3.999  14.951  0.0726 -0.0911 -1.8445
 2896TIP3   OH230102   0.939   0.634   6.204  0.2351  0.2041 -0.0649
 2896TIP3    H130103   0.982   0.634   6.118 -0.7312 -3.3611 -0.7044
 2896TIP3    H230104   0.858   0.683   6.190  0.4479  0.3311 -0.9668
 2897TIP3   OH230105   1.623   1.940   2.333  0.0244  0.5569 -0.5431
 2897TIP3    H130106   1.677   1.898   2.400  0.6150  2.6514  0.3711
 2897TIP3    H230107   1.619   1.876   2.262 -0.3159 -1.5849  1.3039
 2898TIP3   OH230108   1.409   1.846  11.127 -0.8005 -0.1628  0.5559
 2898TIP3    H130109   1.405   1.896  11.045 -0.3904 -0.0350  0.6129
 2898TIP3    H230110   1.325   1.800  11.130 -0.1053 -1.6060 -0.8482
 2899TIP3   OH230111   3.541   3.091  13.102  0.0714 -0.4504  0.2116
 2899TIP3    H130112   3.477   3.127  13.163  0.6888 -1.5176  1.5446
 2899TIP3    H230113   3.625   3.128  13.129  0.2155 -0.0815 -0.6919
 2900TIP3   OH230114   1.926   6.165   2.237  0.5408 -0.3614  0.1806
 2900TIP3    H130115   1.935   6.253   2.200 -1.8754 -0.3925 -0.6597
 2900TIP3    H230116   2.013   6.127   2.229  2.0399  2.3954  1.8906
 2901TIP3   OH230117   3.095   2.487   5.094  0.5149  0.1067  0.3603
 2901TIP3    H130118   3.173   2.515   5.143 -0.3754  1.7198  0.9293
 2901TIP3    H230119   3.029   2.472   5.162  0.8055 -3.2093  0.0685
 2902TIP3   OH230120   0.982   3.203   5.710 -0.6685 -0.6532 -0.8987
 2902TIP3    H130121   1.057   3.256   5.686  0.3343 -2.1195 -1.1681
 2902TIP3    H230122   0.932   3.257   5.770  1.8713 -0.4646  1.2417
 2903TIP3   OH230123   3.562   5.916   5.750  0.2020 -0.4626  0.2765
 2903TIP3    H130124   3.625   5.978   5.786  2.3814 -1.2170 -1.9741
 2903TIP3    H230125   3.562   5.843   5.812  1.6868 -0.5127  0.2436
 2904TIP3   OH230126   6.037   3.727   0.883  0.1384  0.3260 -0.2673
 2904TIP3    H130127   6.076   3.641   0.902 -0.8335 -0.1439 -0.3200
 2904TIP3    H230128   6.080   3.756   0.803 -0.5043 -0.7704 -1.0423
 2905TIP3   OH230129   6.710   3.420  14.139 -0.0479 -0.0369  0.3829
 2905TIP3    H130130   6.688   3.345  14.193 -1.2991 -0.9543 -1.2871
 2905TIP3    H230131   6.797   3.448  14.169  0.1623 -1.7406  1.4579
 2906TIP3   OH230132   5.064   6.529  10.536  0.7555 -0.3852  0.1796
 2906TIP3    H130133   4.976   6.496  10.552  0.6255 -0.0422  0.1880
 2906TIP3    H230134   5.107   6.460  10.486  0.4010 -0.4480 -0.0436
 2907TIP3   OH230135   1.699   4.945   1.116  0.2118  0.2113 -0.0362
 2907TIP3    H130136   1.766   4.996   1.161 -0.5380  0.6197  0.6399
 2907TIP3    H230137   1.708   4.857   1.151  0.1405  0.3538  0.3382
 2908TIP3   OH230138   2.000   2.665   0.074 -0.3515 -0.8288  0.2903
 2908TIP3    H130139   2.017   2.580   0.035  1.0141 -0.3901 -0.1034
 2908TIP3    H230140   1.948   2.645   0.153 -1.1476 -1.8937 -0.4792
 2909TIP3   OH230141   4.549   5.399  14.612 -0.2186 -0.7466 -0.0873
 2909TIP3    H130142   4.534   5.420  14.704  1.4021  0.4819 -0.0705
 2909TIP3    H230143   4.468   5.355  14.584 -1.3405  0.2204  1.5007
 2910TIP3   OH230144   5.633   4.710  14.137 -0.2330  0.5991 -0.3831
 2910TIP3    H130145   5.545   4.747  14.131 -0.4860  0.2256  0.7615
 2910TIP3    H230146   5.680   4.769  14.196  0.8426  1.7798 -2.3097
 2911TIP3   OH230147   5.245   6.122   2.292  0.5670 -0.1418  0.0508
 2911TIP3    H130148   5.251   6.040   2.244  1.0533  1.0189 -2.0149
 2911TIP3    H230149   5.201   6.182   2.231  1.3117  1.4523  1.0227
 2912TIP3   OH230150   5.124   2.110   3.296 -0.0324 -0.0034  0.0640
 2912TIP3    H130151   5.111   2.152   3.212 -1.0387 -0.4973 -0.0465
 2912TIP3    H230152   5.213   2.077   3.293  0.7287  1.9287  0.0939
 2913TIP3   OH230153   0.335   5.077   4.841  0.2042  0.2457 -0.0225
 2913TIP3    H130154   0.415   5.045   4.800 -0.2147 -1.4238  0.3822
 2913TIP3    H230155   0.267   5.062   4.775  0.3219  2.6782 -0.8085
 2914TIP3   OH230156   3.205   6.716   6.410  0.2955  0.5091 -0.1944
 2914TIP3    H130157   3.158   6.798   6.421  0.5924  0.8654 -1.3793
 2914TIP3    H230158   3.150   6.650   6.452 -0.8227  1.0512 -0.7617
 2915TIP3   OH230159   6.666   3.640   4.389 -0.5024  0.1742 -0.1309
 2915TIP3    H130160   6.639   3.651   4.298 -0.8803  2.0101  0.1633
 2915TIP3    H230161   6.605   3.694   4.439 -1.8683 -2.7051  1.5330
 2916TIP3   OH230162   5.004   4.887   5.243 -0.4314  0.3368 -0.0123
 2916TIP3    H130163   5.020   4.836   5.322  0.1681 -1.0385 -0.9876
 2916TIP3    H230164   4.920   4.855   5.210  0.3203 -0.6372 -1.0532
 2917TIP3   OH230165   0.494   6.530  15.750 -0.2895  0.1834  0.0672
 2917TIP3    H130166   0.468   6.621  15.764 -2.5674 -0.6378  2.0054
 2917TIP3    H230167   0.572   6.519  15.805  0.1181  1.0029 -0.3361
 2918TIP3   OH230168   6.434   6.396  12.868  0.4898  0.1574 -0.2777
 2918TIP3    H130169   6.430   6.303  12.889  2.1819 -0.2389 -1.4664
 2918TIP3    H230170   6.344   6.419  12.847 -0.0260 -1.1059  0.4068
 2919TIP3   OH230171   5.345   5.073  15.051  0.5663  0.1114  0.1421
 2919TIP3    H130172   5.289   5.040  15.121  1.1258 -1.6035 -0.1733
 2919TIP3    H230173   5.284   5.109  14.987 -0.0917 -0.2755  0.5395
 2920TIP3   OH230174   4.446   2.088   1.051  0.1669 -0.7302 -0.4604
 2920TIP3    H130175   4.376   2.134   1.004 -0.2721 -1.8944 -0.9765
 2920TIP3    H230176   4.521   2.148   1.047  0.0132 -0.6116 -2.2691
 2921TIP3   OH230177   6.222   5.667  12.938 -0.4808  0.1260  0.6377
 2921TIP3    H130178   6.272   5.608  12.994  0.0038 -1.0841 -0.9969
 2921TIP3    H230179   6.262   5.658  12.852 -1.6547  1.3815 -0.0753
 2922TIP3   OH230180   2.611   5.048  13.195  0.3501  0.0187  0.4186
 2922TIP3    H130181   2.653   5.117  13.144 -4.0136  1.6605 -1.3840
 2922TIP3    H230182   2.652   4.967  13.165  2.9191  1.4568 -0.2488
 2923TIP3   OH230183   0.055   5.113   0.483 -0.4558 -0.3536 -0.0975
 2923TIP3    H130184  -0.010   5.045   0.497  1.3700 -2.3710 -0.9621
 2923TIP3    H230185   0.055   5.127   0.388  2.0813 -2.2582 -0.4570
 2924TIP3   OH230186   5.977   5.419  13.289  0.4961  0.3575 -0.4669
 2924TIP3    H130187   6.005   5.413  13.380 -0.4737  0.2659 -0.1670
 2924TIP3    H230188   6.017   5.501  13.257  0.3380  0.7050  0.2151
 2925TIP3   OH230189   6.626   2.441  15.901 -0.1747 -0.2226 -0.5892
 2925TIP3    H130190   6.700   2.422  15.960 -0.8652 -1.6223 -0.1301
 2925TIP3    H230191   6.634   2.535  15.883  2.4132 -0.5485 -1.5339
 2926TIP3   OH230192   2.260   0.038  13.475 -0.0607 -0.4388  0.6108
 2926TIP3    H130193   2.169   0.054  13.503 -0.0528  0.2967  0.2397
 2926TIP3    H230194   2.271  -0.057  13.483 -1.0844 -0.6220 -0.0006
 2927TIP3   OH230195   6.634   1.301   3.792  0.1836  0.6386  0.2574
 2927TIP3    H130196   6.666   1.218   3.756 -1.5364  0.7500 -1.6879
 2927TIP3    H230197   6.697   1.322   3.862  0.6907 -2.2505  0.8004
 2928TIP3   OH230198   3.984   2.488  12.808  0.1614 -0.6722  0.0610
 2928TIP3    H130199   4.051   2.449  12.752  1.2863 -0.1885  1.0028
 2928TIP3    H230200   3.947   2.414  12.856  0.8321 -0.8352  0.3444
 2929TIP3   OH230201   3.751   6.264  13.588 -0.1490 -0.5223 -0.0502
 2929TIP3    H130202   3.658   6.240  13.589 -0.6700  1.2979 -1.1904
 2929TIP3    H230203   3.763   6.316  13.667 -0.9395  1.9802 -1.4830
 2930TIP3   OH230204   3.521   3.873   2.134  0.0627 -0.5833  0.2766
 2930TIP3    H130205   3.534   3.942   2.068 -1.3966 -1.2078 -0.7179
 2930TIP3    H230206   3.465   3.809   2.090  2.9174 -3.4672  0.4198
 2931TIP3   OH230207   1.754   0.941  15.544 -0.1285  0.2356 -0.1863
 2931TIP3    H130208   1.823   0.966  15.483  1.0053  2.1926  1.7781
 2931TIP3    H230209   1.752   0.845  15.540  0.5494  0.2470 -2.5103
 2932TIP3   OH230210   3.215   3.361   3.486  0.3089  0.2177 -0.2587
 2932TIP3    H130211   3.204   3.299   3.559 -0.6735  0.4739 -0.1711
 2932TIP3    H230212   3.258   3.437   3.526 -0.1705  0.3324  0.0603
 2933TIP3   OH230213   0.663   6.005   4.993 -0.5958 -0.2205  0.1465
 2933TIP3    H130214   0.671   6.061   4.916  0.5224 -1.3118 -0.5907
 2933TIP3    H230215   0.570   6.004   5.013 -0.5149  3.6628  1.6174
 2934TIP3   OH230216   0.150   3.894  14.848  0.6476 -0.3021 -0.0560
 2934TIP3    H130217   0.147   3.838  14.925 -0.1110 -0.2433 -0.0402
 2934TIP3    H230218   0.058   3.913  14.828  0.8257 -0.4791 -1.0903
 2935TIP3   OH230219   3.653   4.965   5.818  0.3138 -0.2638 -0.6740
 2935TIP3    H130220   3.740   4.957   5.857 -0.3179 -1.6425  0.5303
 2935TIP3    H230221   3.662   5.036   5.754  1.2737  2.6921  2.4126
 2936TIP3   OH230222   5.383   2.549   0.599  0.1444  0.6075  0.2300
 2936TIP3    H130223   5.431   2.536   0.518  1.0599  0.4726  0.7875
 2936TIP3    H230224   5.316   2.481   0.598  1.0662 -0.3206  0.2523
 2937TIP3   OH230225   0.276   1.534   5.368  0.4214 -0.1260  0.0519
 2937TIP3    H130226   0.260   1.444   5.338  1.6271 -0.5784  0.6828
 2937TIP3    H230227   0.369   1.548   5.353  0.1200  1.2910 -0.6769
 2938TIP3   OH230228   1.660   1.290  14.658 -0.1950  0.4317 -0.3220
 2938TIP3    H130229   1.572   1.253  14.656 -0.4625  1.0064  0.3614
 2938TIP3    H230230   1.707   1.238  14.723  0.6099 -1.2013 -2.1135
 2939TIP3   OH230231   1.290   6.572   3.795  0.0226 -0.3373  0.3712
 2939TIP3    H130232   1.224   6.532   3.739 -0.3939  1.4851 -0.5183
 2939TIP3    H230233   1.285   6.523   3.877 -1.4694 -1.1255 -0.1552
 2940TIP3   OH230234   0.334   4.268  12.211 -0.0318 -0.5932 -0.6470
 2940TIP3    H130235   0.256   4.316  12.240  0.0413 -1.4155  0.9959
 2940TIP3    H230236   0.370   4.322  12.140 -1.4181  0.4071 -0.6352
 2941TIP3   OH230237   2.155   0.930  11.460  0.1605 -0.1891  0.0765
 2941TIP3    H130238   2.221   0.998  11.455  1.1906 -1.1032  0.7710
 2941TIP3    H230239   2.125   0.919  11.370 -0.2610  1.3724 -0.0037
 2942TIP3   OH230240   2.559   1.098   5.627  0.0958 -0.2055  0.8267
 2942TIP3    H130241   2.547   1.117   5.720  2.2764 -0.6914  1.2654
 2942TIP3    H230242   2.577   1.003   5.625 -0.7476 -0.3544 -0.1884
 2943TIP3   OH230243   6.405   3.283  16.226 -0.7595  0.0766 -0.4216
 2943TIP3    H130244   6.322   3.263  16.270 -0.4644 -0.4950 -0.1127
 2943TIP3    H230245   6.461   3.317  16.296 -0.6482  0.2073 -0.5753
 2944TIP3   OH230246   1.215   4.190   4.973  0.5755  0.4220  0.0595
 2944TIP3    H130247   1.270   4.120   5.009  0.9198 -0.5638 -2.2044
 2944TIP3    H230248   1.276   4.248   4.928  0.0792  1.0735  0.2150
 2945TIP3   OH230249   2.205   4.729  12.509  0.2807 -0.2935 -0.3146
 2945TIP3    H130250   2.225   4.776  12.428 -0.5894  0.1294 -0.2898
 2945TIP3    H230251   2.161   4.649  12.480  1.4577 -0.9590 -0.3369
 2946TIP3   OH230252   5.303   2.667  10.685 -0.2189  0.5034  0.1988
 2946TIP3    H130253   5.289   2.600  10.619  0.5308  1.7926 -1.3509
 2946TIP3    H230254   5.389   2.703  10.665  0.4072  0.3884  2.4264
 2947TIP3   OH230255   1.380   4.335   1.640 -0.0346 -0.2723 -0.2768
 2947TIP3    H130256   1.428   4.403   1.592  0.7666  0.5898  1.6496
 2947TIP3    H230257   1.429   4.254   1.621  0.6011  0.1450 -0.4543
 2948TIP3   OH230258   0.269   5.476   4.404 -0.0463 -0.6821  0.4869
 2948TIP3    H130259   0.352   5.461   4.359  0.1085  0.0967  0.5031
 2948TIP3    H230260   0.205   5.425   4.354  0.7349 -2.8760  1.5905
 2949TIP3   OH230261   4.393   1.662  13.388  0.0822  0.1855  0.1187
 2949TIP3    H130262   4.423   1.719  13.459 -0.5726 -0.8858  1.3049
 2949TIP3    H230263   4.396   1.574  13.425 -1.4367 -0.2826 -0.7690
 2950TIP3   OH230264   2.038   0.652  15.441 -0.1634  0.5010  0.5530
 2950TIP3    H130265   2.064   0.644  15.349 -0.8523 -1.2591  0.4775
 2950TIP3    H230266   2.097   0.719  15.477  1.8362 -0.6010 -0.5391
 2951TIP3   OH230267   0.528   0.978  11.404  0.2784  0.4306  0.4214
 2951TIP3    H130268   0.608   0.948  11.446  0.8812  0.7066 -0.5186
 2951TIP3    H230269   0.509   1.062  11.445 -0.8476 -0.6556  2.3175
 2952TIP3   OH230270   6.567   6.490   4.383 -0.2913  0.1663 -0.1431
 2952TIP3    H130271   6.624   6.486   4.306  0.7759  0.5112  0.6180
 2952TIP3    H230272   6.530   6.578   4.381  0.0687  0.3196 -0.0234
 2953TIP3   OH230273   0.298   0.203  10.520 -0.2230 -0.3518  0.2301
 2953TIP3    H130274   0.381   0.181  10.563 -0.6653 -1.0719  0.7238
 2953TIP3    H230275   0.268   0.121  10.482 -0.3474  0.0652 -0.5997
 2954TIP3   OH230276   6.710   6.242  15.234 -0.4286 -0.0958  0.2479
 2954TIP3    H130277   6.671   6.211  15.316 -2.1752 -3.4152 -1.6441
 2954TIP3    H230278   6.758   6.167  15.200 -0.6479  0.8411 -2.2975
 2955TIP3   OH230279   3.894   5.231   4.919 -0.5409  0.4858  0.0526
 2955TIP3    H130280   3.969   5.283   4.946 -1.3160  2.6168 -1.5387
 2955TIP3    H230281   3.926   5.177   4.847 -0.0792 -0.1763  0.7401
 2956TIP3   OH230282   0.668   6.520   5.572 -0.8184  0.2551 -0.0021
 2956TIP3    H130283   0.597   6.461   5.547 -0.7588 -0.3516  1.1832
 2956TIP3    H230284   0.746   6.465   5.570 -0.8399  0.1313  1.6239
 2957TIP3   OH230285   4.202   0.764  12.956 -0.5273 -0.1547 -0.6022
 2957TIP3    H130286   4.206   0.793  12.865 -0.2722  0.3620 -0.4298
 2957TIP3    H230287   4.181   0.671  12.951  2.9530 -1.0431 -1.3137
 2958TIP3   OH230288   4.788   2.619   4.048  0.4264  0.1180 -0.0996
 2958TIP3    H130289   4.804   2.584   4.135  0.0775 -0.2720 -0.1905
 2958TIP3    H230290   4.693   2.621   4.039  0.4509  0.4986 -0.3376
 2959TIP3   OH230291   2.076   3.869   5.300  0.4862  0.3616  0.4495
 2959TIP3    H130292   2.089   3.859   5.206  0.9008 -1.7018  0.6628
 2959TIP3    H230293   2.045   3.959   5.311  2.2592  1.2817 -1.4312
 2960TIP3   OH230294   1.680   4.803  13.510 -0.4123 -0.3503  0.4472
 2960TIP3    H130295   1.734   4.754  13.573  0.8109  0.1522 -0.1831
 2960TIP3    H230296   1.703   4.894  13.525 -1.7067 -0.0406  0.7049
 2961TIP3   OH230297   4.884   3.008  14.186 -0.5152 -0.4422  0.1417
 2961TIP3    H130298   4.907   3.030  14.096  0.5982  0.2478  0.5744
 2961TIP3    H230299   4.900   3.088  14.235  1.3786 -1.5100  1.3802
 2962TIP3   OH230300   5.205   0.391   2.823 -0.1089 -0.2179 -0.1051
 2962TIP3    H130301   5.180   0.482   2.841  1.9476  0.1879  1.0592
 2962TIP3    H230302   5.248   0.394   2.738 -0.6084 -0.2316 -0.3616
 2963TIP3   OH230303   2.495   1.444  14.840  0.4759  0.4561  0.7194
 2963TIP3    H130304   2.501   1.360  14.886  0.3714 -0.5383 -0.9646
 2963TIP3    H230305   2.422   1.490  14.881  0.1034 -0.5753  1.2393
 2964TIP3   OH230306   0.987   4.212  15.827 -0.0723 -0.1235 -0.2540
 2964TIP3    H130307   0.999   4.303  15.854  0.6538  0.2758 -1.7741
 2964TIP3    H230308   0.965   4.218  15.734 -0.7961 -1.4704 -0.1861
 2965TIP3   OH230309   4.191   0.284   1.769 -0.3738 -0.4558  0.2301
 2965TIP3    H130310   4.256   0.352   1.753 -1.3349  0.4816  0.1989
 2965TIP3    H230311   4.113   0.314   1.723 -1.3906 -0.6398  1.7664
 2966TIP3   OH230312   4.313   4.095   5.661 -0.2471  0.4515 -0.1972
 2966TIP3    H130313   4.369   4.071   5.735 -0.7732  1.6210  0.6135
 2966TIP3    H230314   4.302   4.014   5.613 -1.0738 -0.7143  1.8117
 2967TIP3   OH230315   0.016   2.598  14.609  0.0647  0.4716  0.3543
 2967TIP3    H130316   0.056   2.550  14.681 -1.5998 -0.6629  0.5591
 2967TIP3    H230317   0.057   2.562  14.530 -0.4739 -0.6386  0.5677
 2968TIP3   OH230318   1.865   1.163   2.774 -0.1123  0.3474 -0.0983
 2968TIP3    H130319   1.951   1.122   2.776 -0.7525 -1.0295 -0.0092
 2968TIP3    H230320   1.818   1.117   2.704 -0.5402  1.5951 -0.6595
 2969TIP3   OH230321   2.904   3.644   3.752  0.1682 -0.0703 -0.2475
 2969TIP3    H130322   2.847   3.578   3.713 -1.5573 -0.2098  2.2934
 2969TIP3    H230323   2.850   3.722   3.758  1.3674  0.8399 -0.8709
 2970TIP3   OH230324   4.774   0.390  11.176 -0.1438 -0.0076 -0.1252
 2970TIP3    H130325   4.716   0.388  11.099  0.8511  1.4843 -0.9431
 2970TIP3    H230326   4.772   0.481  11.205  2.5699  0.3392 -0.8077
 2971TIP3   OH230327   2.020   0.881   6.163 -0.5178  0.9912 -0.2750
 2971TIP3    H130328   2.061   0.967   6.159 -2.3489  1.9459  0.3525
 2971TIP3    H230329   2.028   0.855   6.255  1.3563 -0.2729 -0.7079
 2972TIP3   OH230330   5.124   3.137  12.388 -0.1057 -0.1452 -0.1147
 2972TIP3    H130331   5.148   3.096  12.471  0.1800 -1.0300 -0.6158
 2972TIP3    H230332   5.033   3.110  12.373  0.1893 -0.9019 -0.6091
 2973TIP3   OH230333   1.257   5.576  16.554 -0.1118 -0.3930 -0.2924
 2973TIP3    H130334   1.163   5.591  16.547 -0.0585  0.1789  0.1669
 2973TIP3    H230335   1.273   5.500  16.498 -0.7309 -0.0544 -0.9463
 2974TIP3   OH230336   4.462   4.571  15.726 -0.5148  0.2213 -0.3404
 2974TIP3    H130337   4.394   4.635  15.702 -0.2298  0.9829  0.8071
 2974TIP3    H230338   4.520   4.619  15.785 -0.0156 -0.9717  0.1676
 2975TIP3   OH230339   6.595   4.057   3.654  0.0064  0.1678 -0.0728
 2975TIP3    H130340   6.554   4.066   3.568 -2.5953  0.3765  1.1158
 2975TIP3    H230341   6.624   4.146   3.675  1.9132 -0.1086 -1.2288
 2976TIP3   OH230342   5.462   0.476   0.632 -0.7784 -0.0420  0.4089
 2976TIP3    H130343   5.538   0.419   0.626 -0.9559 -0.2874  0.5009
 2976TIP3    H230344   5.388   0.417   0.642 -0.8260  0.2462  1.9016
 2977TIP3   OH230345   3.246   5.008  11.826  0.0723  0.6676 -0.3618
 2977TIP3    H130346   3.220   5.031  11.916 -0.1426  1.9535 -0.7297
 2977TIP3    H230347   3.341   5.003  11.829  0.0534  0.4657 -0.0078
 2978TIP3   OH230348   5.027   6.450   0.619 -0.8031 -0.0119  0.0310
 2978TIP3    H130349   5.091   6.415   0.681  0.8197 -1.0295 -2.0705
 2978TIP3    H230350   4.944   6.409   0.645  0.1996 -1.9511  0.3698
 2979TIP3   OH230351   1.078   1.519  13.270 -0.0920 -0.0285  0.4788
 2979TIP3    H130352   1.136   1.457  13.315  0.3695 -0.6128 -0.8756
 2979TIP3    H230353   1.102   1.511  13.178 -1.2918  0.8447  0.0767
 2980TIP3   OH230354   3.043   2.026   5.594  0.7851  0.4750 -0.1760
 2980TIP3    H130355   3.082   2.112   5.574  1.2504  0.2814 -0.1028
 2980TIP3    H230356   3.010   1.996   5.509 -0.8857  1.4615  0.0792
 2981TIP3   OH230357   3.401   0.099  14.015  0.3128 -0.1591 -0.6258
 2981TIP3    H130358   3.450   0.017  14.015 -0.7988 -0.8816  1.0661
 2981TIP3    H230359   3.416   0.136  13.928  4.3898  0.0686 -0.0056
 2982TIP3   OH230360   3.292   4.597  15.277 -0.2740 -0.0139  0.2037
 2982TIP3    H130361   3.305   4.659  15.349 -0.4789 -0.0735  0.2918
 2982TIP3    H230362   3.254   4.520  15.318  1.0040 -0.6337  0.2803
 2983TIP3   OH230363   3.465   4.480   0.126  0.5035  0.2682 -0.1065
 2983TIP3    H130364   3.450   4.551   0.188 -0.8417 -1.5839  1.8464
 2983TIP3    H230365   3.440   4.401   0.174 -0.0107 -1.3456 -2.8153
 2984TIP3   OH230366   3.674   4.803  16.220  0.3206  0.2331  0.2808
 2984TIP3    H130367   3.583   4.797  16.249  0.5750 -0.6724  0.9504
 2984TIP3    H230368   3.721   4.739  16.274  1.2031  0.0513 -0.6578
 2985TIP3   OH230369   5.445   2.094  11.371 -0.7381  0.0436  0.0024
 2985TIP3    H130370   5.493   2.146  11.436  0.2816 -1.0647  0.1869
 2985TIP3    H230371   5.459   2.003  11.399  0.6565 -0.5634 -2.3239
 2986TIP3   OH230372   4.959   1.905   3.505 -0.4874 -0.2694 -0.3892
 2986TIP3    H130373   5.008   1.951   3.573 -1.3077 -0.3465  0.2679
 2986TIP3    H230374   5.025   1.876   3.443  0.3253 -0.5237  0.5704
 2987TIP3   OH230375   3.618   2.736   2.930 -0.2521 -0.1979  0.2760
 2987TIP3    H130376   3.660   2.687   3.000 -0.5268 -1.0075 -0.1183
 2987TIP3    H230377   3.584   2.815   2.973 -1.9607 -1.4939  1.4560
 2988TIP3   OH230378   5.475   5.762   2.997 -0.1706 -0.3225 -0.7584
 2988TIP3    H130379   5.407   5.700   2.970  0.4811 -2.2656  1.6680
 2988TIP3    H230380   5.548   5.706   3.024  0.1839  1.4085  2.2947
 2989TIP3   OH230381   1.111   5.011  11.363  0.6553  0.3977 -0.0098
 2989TIP3    H130382   1.123   4.950  11.436 -0.6391 -1.5623 -1.3497
 2989TIP3    H230383   1.186   4.995  11.306 -0.0567 -0.5392 -0.7217
 2990TIP3   OH230384   3.143   0.002   5.375  1.0439  0.2800  0.4754
 2990TIP3    H130385   3.206   0.028   5.442  0.7040  0.4760  0.7231
 2990TIP3    H230386   3.104  -0.079   5.409 -0.4814  1.3600  1.4354
 2991TIP3   OH230387   6.444   0.372  16.324  0.3067  0.7512 -0.0281
 2991TIP3    H130388   6.400   0.316  16.260  0.7004  0.0174  0.3257
 2991TIP3    H230389   6.532   0.337  16.331 -0.2251 -0.3648  2.2133
 2992TIP3   OH230390   5.758   5.557  13.441  0.0579  0.1435 -0.1270
 2992TIP3    H130391   5.763   5.470  13.401  1.3947 -0.3367  0.9685
 2992TIP3    H230392   5.702   5.608  13.383 -2.7238 -2.0799  0.3708
 2993TIP3   OH230393   2.031   1.393   4.141 -0.0142  0.1430  0.2265
 2993TIP3    H130394   1.985   1.360   4.064 -2.7713 -0.0145  1.8176
 2993TIP3    H230395   2.038   1.488   4.126 -0.6151  0.1245 -0.2024
 2994TIP3   OH230396   3.574   4.364  11.632 -0.0979 -0.2454  0.4741
 2994TIP3    H130397   3.498   4.319  11.669  1.4656 -2.0707  1.7402
 2994TIP3    H230398   3.621   4.295  11.584  1.2944  0.5428  0.6483
 2995TIP3   OH230399   4.814   1.044  13.035  0.1663 -0.1525 -0.0304
 2995TIP3    H130400   4.726   1.024  13.002  0.2524  0.0144 -0.3643
 2995TIP3    H230401   4.848   0.959  13.062 -0.1177 -0.2107  0.1490
 2996TIP3   OH230402   6.043   2.199   4.824 -0.2317  0.2789 -0.0704
 2996TIP3    H130403   6.058   2.220   4.916  0.5065  0.3785 -0.2105
 2996TIP3    H230404   6.013   2.282   4.786 -1.8585 -0.0814  0.3481
 2997TIP3   OH230405   6.327   5.666   1.531 -0.4810 -0.3382  0.3137
 2997TIP3    H130406   6.383   5.645   1.605 -0.8777 -1.6857  0.2704
 2997TIP3    H230407   6.238   5.649   1.563 -0.6295 -1.3755 -0.5864
 2998TIP3   OH230408   2.154   1.542  14.053 -0.1031  0.2234  0.1717
 2998TIP3    H130409   2.121   1.568  14.139 -0.2915  0.6379 -0.0209
 2998TIP3    H230410   2.076   1.511  14.007  0.1153 -0.6669  0.3889
 2999TIP3   OH230411   5.382   5.636   5.201 -0.3232  0.4068 -0.1284
 2999TIP3    H130412   5.375   5.675   5.288 -0.7829 -0.0214  0.0278
 2999TIP3    H230413   5.292   5.620   5.174 -0.1391 -1.9791  0.4609
 3000TIP3   OH230414   0.628   1.657   6.246 -0.0826 -0.1744  0.2245
 3000TIP3    H130415   0.636   1.657   6.342 -3.4532 -0.7236  0.6265
 3000TIP3    H230416   0.704   1.608   6.216  1.2899  0.3428  2.5714
 3001TIP3   OH230417   4.749   0.220   4.585  0.0012 -0.4245 -0.1061
 3001TIP3    H130418   4.720   0.207   4.675 -0.5814  2.9725  0.3364
 3001TIP3    H230419   4.671   0.252   4.539  1.1021  1.4022 -0.8358
 3002TIP3   OH230420   1.577   2.617  15.203  0.4844 -0.0763 -0.0640
 3002TIP3    H130421   1.640   2.689  15.201 -0.4132  0.7128 -0.9599
 3002TIP3    H230422   1.498   2.654  15.242  0.8571 -1.3550  2.1220
 3003TIP3   OH230423   1.826   2.289  14.032  0.2935  0.0221  0.2336
 3003TIP3    H130424   1.893   2.273  13.966  0.2657  0.8067  0.0052
 3003TIP3    H230425   1.781   2.205  14.041  1.1181 -0.4359  0.1862
 3004TIP3   OH230426   0.013   1.103   0.022 -0.1157  0.1466  0.0355
 3004TIP3    H130427   0.067   1.178  -0.003 -0.1014  0.6612  1.5047
 3004TIP3    H230428   0.075   1.030   0.028  0.3716  0.6280  1.2403
 3005TIP3   OH230429   3.307   4.166  15.536  0.2148  0.2418  0.4142
 3005TIP3    H130430   3.387   4.185  15.586  2.0508 -1.0786 -1.8187
 3005TIP3    H230431   3.294   4.243  15.480  0.3179  0.1746  0.2983
 3006TIP3   OH230432   1.521   4.066   5.850 -0.7447  0.6561 -0.3699
 3006TIP3    H130433   1.524   4.087   5.943  0.5116  1.5479 -0.5758
 3006TIP3    H230434   1.493   3.975   5.846 -0.1182  0.3845  0.9255
 3007TIP3   OH230435   5.453   4.889  16.638 -0.7201 -0.6518  0.0429
 3007TIP3    H130436   5.481   4.980  16.643 -2.4427 -0.0269 -0.7277
 3007TIP3    H230437   5.515   4.848  16.578  1.5187 -0.6544  2.1971
 3008TIP3   OH230438   5.609   3.344   0.711  0.1670  0.4790  0.7772
 3008TIP3    H130439   5.656   3.427   0.702  0.0209  0.3142 -2.6265
 3008TIP3    H230440   5.517   3.369   0.717  0.0039  0.6310 -1.4958
 3009TIP3   OH230441   3.564   0.685   0.121 -0.3662 -0.1349  0.2268
 3009TIP3    H130442   3.614   0.607   0.098 -0.0243  0.2142 -0.2312
 3009TIP3    H230443   3.475   0.653   0.139 -0.1328 -0.6759  0.4254
 3010TIP3   OH230444   0.649   6.127   3.090  0.7146 -0.3439 -0.5346
 3010TIP3    H130445   0.653   6.222   3.076 -3.2118  0.2094  0.8114
 3010TIP3    H230446   0.689   6.115   3.177  2.4735 -0.2238 -1.2739
 3011TIP3   OH230447   1.960   3.835  13.363 -0.1479 -0.6215  0.0407
 3011TIP3    H130448   1.903   3.903  13.399  1.2437  0.4661  0.3014
 3011TIP3    H230449   1.993   3.872  13.281  1.7942 -0.2959  0.9146
 3012TIP3   OH230450   2.433   2.650  12.857 -0.4812  0.0785  0.2873
 3012TIP3    H130451   2.377   2.633  12.933 -0.3305  0.3083  0.4494
 3012TIP3    H230452   2.495   2.716  12.887 -0.2204 -0.0613  0.0592
 3013TIP3   OH230453   1.167   0.223   5.665 -0.0616 -0.1874 -0.0468
 3013TIP3    H130454   1.208   0.215   5.579  0.6178 -1.2484  0.3535
 3013TIP3    H230455   1.226   0.175   5.724 -0.2087  0.9967  1.1134
 3014TIP3   OH230456   3.584   2.394   1.429 -0.1384 -0.7192  0.0115
 3014TIP3    H130457   3.635   2.473   1.415  1.2160 -1.3434  1.1483
 3014TIP3    H230458   3.597   2.342   1.350  1.3480 -1.0257  0.4179
 3015TIP3   OH230459   0.536   1.859   5.655  0.3580  0.4218 -0.0138
 3015TIP3    H130460   0.493   1.839   5.739  0.2000 -1.6807 -0.5405
 3015TIP3    H230461   0.626   1.829   5.667 -0.1175 -1.6597 -1.1385
 3016TIP3   OH230462   3.288   6.167   1.743 -0.1398  0.4005 -0.1388
 3016TIP3    H130463   3.366   6.214   1.773  0.5515 -0.2451 -0.8880
 3016TIP3    H230464   3.257   6.218   1.668 -0.4814  0.6905  0.1957
 3017TIP3   OH230465   3.247   2.451   5.306 -0.3638 -0.1603 -0.2655
 3017TIP3    H130466   3.240   2.455   5.401  2.1926  1.3745 -0.0367
 3017TIP3    H230467   3.192   2.377   5.280  0.0085 -1.5181  2.5278
 3018TIP3   OH230468   3.350   3.850   5.011 -0.1099 -0.4855 -0.5960
 3018TIP3    H130469   3.428   3.794   5.016  0.6146  0.5778  0.2406
 3018TIP3    H230470   3.303   3.834   5.093 -0.1385 -0.2084 -0.5581
 3019TIP3   OH230471   5.926   3.847  14.265  0.1605 -0.4040 -0.0319
 3019TIP3    H130472   5.964   3.774  14.215  0.2684  0.6879 -1.6250
 3019TIP3    H230473   5.967   3.925  14.228  0.5297  0.4649  2.0654
 3020TIP3   OH230474   0.314   6.013   1.585 -0.3605  0.2722  0.2245
 3020TIP3    H130475   0.284   6.073   1.654  1.2951  1.0568  0.2957
 3020TIP3    H230476   0.334   6.070   1.511 -1.2953 -0.4823 -0.6534
 3021TIP3   OH230477   0.432   0.409   3.166  0.6647 -0.2115 -0.2974
 3021TIP3    H130478   0.514   0.394   3.119  1.3794  0.5886  0.6523
 3021TIP3    H230479   0.408   0.499   3.144 -0.0463 -0.4907 -0.6889
 3022TIP3   OH230480   4.638   4.379  10.597  0.7545 -0.1334  0.6865
 3022TIP3    H130481   4.651   4.468  10.630  0.4093  0.2840 -0.2608
 3022TIP3    H230482   4.543   4.365  10.604  0.4416  0.5501 -1.4944
 3023TIP3   OH230483   1.512   4.068  14.769  0.2621  0.3284  0.6561
 3023TIP3    H130484   1.547   4.076  14.680 -2.2031 -1.4805 -0.6019
 3023TIP3    H230485   1.531   4.152  14.810  0.8703  1.4930 -1.8210
 3024TIP3   OH230486   4.031   5.675   5.710  0.3966 -0.3546  0.2811
 3024TIP3    H130487   4.028   5.589   5.751 -0.0031  0.0863  1.2049
 3024TIP3    H230488   4.077   5.730   5.773 -1.7715  0.7596  1.0079
 3025TIP3   OH230489   4.267   3.024  16.781  0.0839  0.3679 -0.5330
 3025TIP3    H130490   4.223   2.946  16.748  0.5100 -0.9388  1.7617
 3025TIP3    H230491   4.201   3.067  16.836  0.5482  0.3446  0.0553
 3026TIP3   OH230492   5.042   3.433  12.218 -0.3223 -0.1232  0.1641
 3026TIP3    H130493   5.105   3.469  12.156 -0.2245 -0.2373  0.1991
 3026TIP3    H230494   5.084   3.355  12.253 -0.7694 -0.5938 -0.3335
 3027TIP3   OH230495   2.892   1.874  12.937 -0.4964 -0.1041  0.2449
 3027TIP3    H130496   2.972   1.832  12.967  0.9800  2.2164 -0.2119
 3027TIP3    H230497   2.852   1.809  12.878  0.4372 -1.7241  1.3036
 3028TIP3   OH230498   1.194   3.853  16.414  0.2256  0.0789 -0.2993
 3028TIP3    H130499   1.245   3.813  16.344  0.4893 -0.5792  0.2529
 3028TIP3    H230500   1.179   3.782  16.476 -1.7441  0.1311 -0.6377
 3029TIP3   OH230501   2.065   2.821   3.070 -0.2792  0.4590  0.4083
 3029TIP3    H130502   2.157   2.816   3.097 -0.1836  1.1998  0.2453
 3029TIP3    H230503   2.039   2.911   3.091 -0.3898  0.8788 -1.3668
 3030TIP3   OH230504   2.744   3.160  12.106 -0.3238  0.4864 -0.1489
 3030TIP3    H130505   2.831   3.138  12.139 -0.2756 -2.3165 -1.8433
 3030TIP3    H230506   2.684   3.112  12.162 -0.8219  1.9660  0.6567
 3031TIP3   OH230507   4.822   2.184   4.113  0.7236 -0.3307  0.2738
 3031TIP3    H130508   4.741   2.147   4.078  1.7250 -1.9862 -0.3614
 3031TIP3    H230509   4.803   2.200   4.205 -0.5567  0.0359 -0.0288
 3032TIP3   OH230510   1.092   5.542   1.375  0.1216 -0.0074 -0.1751
 3032TIP3    H130511   1.013   5.574   1.331 -1.5070 -1.4571  1.4855
 3032TIP3    H230512   1.091   5.448   1.361  1.6541 -0.0395 -0.2139
 3033TIP3   OH230513   6.727   1.943   4.423 -0.1661 -0.4250  0.1491
 3033TIP3    H130514   6.649   1.999   4.414 -1.3121 -2.0811 -0.8187
 3033TIP3    H230515   6.792   1.984   4.366 -0.8486  0.1218 -0.2618
 3034TIP3   OH230516   0.961   2.111  15.201  0.2339  0.9445  0.2717
 3034TIP3    H130517   0.903   2.036  15.207  0.4196  0.5420 -2.0358
 3034TIP3    H230518   0.962   2.148  15.290  0.0594 -1.6724  1.4574
 3035TIP3   OH230519   1.951   1.057   0.636  0.0696  0.3477  0.3457
 3035TIP3    H130520   2.009   1.028   0.706 -0.8964 -0.0886  0.9789
 3035TIP3    H230521   1.881   1.104   0.681  0.1550  1.2761 -0.4503
 3036TIP3   OH230522   1.931   5.775  14.501  0.0523  0.5626 -0.3709
 3036TIP3    H130523   2.013   5.730  14.484  1.0077  1.6564  1.1012
 3036TIP3    H230524   1.863   5.709  14.485  1.1794 -0.3045 -1.7819
 3037TIP3   OH230525   1.470   0.946  12.522 -0.7577  0.9408 -0.3742
 3037TIP3    H130526   1.390   0.956  12.469 -2.3012  0.6835  1.7685
 3037TIP3    H230527   1.468   1.020  12.582 -1.1671 -0.7336  1.8127
 3038TIP3   OH230528   2.223   4.328   3.396  0.7651  0.5931  0.2491
 3038TIP3    H130529   2.318   4.337   3.397  0.9172 -0.7395  0.9896
 3038TIP3    H230530   2.204   4.271   3.322  0.9652 -2.2269  2.1715
 3039TIP3   OH230531   1.756   3.962   1.148 -0.0544 -0.0794  0.1782
 3039TIP3    H130532   1.742   3.943   1.241  2.1838  0.2084  0.6331
 3039TIP3    H230533   1.809   4.042   1.148 -0.2419  0.0704 -1.3560
 3040TIP3   OH230534   5.600   1.915  12.085 -0.3367 -0.7312  0.0652
 3040TIP3    H130535   5.529   1.979  12.090 -0.0990 -0.5544  1.5904
 3040TIP3    H230536   5.633   1.922  11.996  0.1388  1.7554  0.3907
 3041TIP3   OH230537   2.678   1.498   1.617  0.6336 -0.1817  0.0600
 3041TIP3    H130538   2.730   1.441   1.560  0.6180  0.2284 -0.3716
 3041TIP3    H230539   2.674   1.452   1.701  2.1476  0.0393  0.2660
 3042TIP3   OH230540   5.287   0.762  15.580  0.0310 -0.0851 -0.0745
 3042TIP3    H130541   5.192   0.766  15.579  0.0203 -0.2469  0.3333
 3042TIP3    H230542   5.313   0.821  15.651  0.1684 -1.3495  0.9593
 3043TIP3   OH230543   5.668   1.670  10.673  0.7481  0.0638  0.0164
 3043TIP3    H130544   5.673   1.759  10.708 -0.4389  0.8841 -1.7056
 3043TIP3    H230545   5.754   1.655  10.635 -0.1410  2.2344 -3.3538
 3044TIP3   OH230546   5.665   6.028   1.542 -0.4398 -0.5202 -0.4410
 3044TIP3    H130547   5.686   6.103   1.487 -1.1394 -0.8480 -1.1820
 3044TIP3    H230548   5.722   6.037   1.618  0.8906 -0.2943 -1.4285
 3045TIP3   OH230549   3.420   3.524   1.115 -0.3161  0.2398  0.2720
 3045TIP3    H130550   3.427   3.605   1.065 -1.5597 -0.2060 -0.6601
 3045TIP3    H230551   3.339   3.534   1.165  0.2273  0.1192  1.2097
 3046TIP3   OH230552   2.775   6.479   2.883 -0.4492 -0.7451  0.7823
 3046TIP3    H130553   2.860   6.486   2.927 -0.7667  2.0019  1.1180
 3046TIP3    H230554   2.715   6.447   2.951  0.0103 -1.3507  0.9154
 3047TIP3   OH230555   4.359   1.736  12.264 -0.4078  0.4460 -0.1304
 3047TIP3    H130556   4.340   1.798  12.193 -0.1808 -0.0212 -0.6030
 3047TIP3    H230557   4.440   1.768  12.303 -0.3030  0.4578 -0.3579
 3048TIP3   OH230558   0.590   5.790  12.279 -0.4156  0.1238  0.3742
 3048TIP3    H130559   0.643   5.797  12.359  0.6568  2.2126 -0.4263
 3048TIP3    H230560   0.644   5.739  12.219 -0.3569  0.2157  0.3484
 3049TIP3   OH230561   0.705   1.989  11.726  0.0964  0.0434 -0.6059
 3049TIP3    H130562   0.758   2.033  11.659  1.0495  2.6163  1.6421
 3049TIP3    H230563   0.624   2.039  11.728  0.0450 -0.0565  0.0482
 3050TIP3   OH230564   6.008   2.673   1.762 -0.3891 -0.4989  0.4242
 3050TIP3    H130565   6.082   2.659   1.821  2.0945  1.6296 -1.9168
 3050TIP3    H230566   6.028   2.618   1.686 -0.3256  1.3052 -0.9049
 3051TIP3   OH230567   3.113   6.211   3.594  0.2170  0.5806  0.4513
 3051TIP3    H130568   3.147   6.300   3.596 -2.1874  1.5890  0.5214
 3051TIP3    H230569   3.022   6.221   3.564  0.1086 -1.9381 -0.2981
 3052TIP3   OH230570   4.400   3.326   1.115 -0.7716 -0.1354  0.3777
 3052TIP3    H130571   4.326   3.313   1.055 -0.6984 -0.2312  0.3073
 3052TIP3    H230572   4.431   3.415   1.098  0.0405 -0.5893 -0.6136
 3053TIP3   OH230573   5.861   6.173   0.179 -0.3316  0.1213  0.5682
 3053TIP3    H130574   5.799   6.116   0.223 -0.7528  0.6816  0.7022
 3053TIP3    H230575   5.932   6.114   0.151 -2.0041 -0.9650 -1.7168
 3054TIP3   OH230576   0.482   2.236   4.867  0.3003  0.1107 -0.0417
 3054TIP3    H130577   0.514   2.323   4.889  1.5062 -0.2090 -0.4493
 3054TIP3    H230578   0.391   2.250   4.840  1.1671  1.5955 -2.4369
 3055TIP3   OH230579   6.474   1.891   6.100 -0.1187  0.0339  0.0036
 3055TIP3    H130580   6.477   1.955   6.171  2.4743 -0.6759  0.6195
 3055TIP3    H230581   6.498   1.808   6.142  1.8398 -0.3371 -1.7113
 3056TIP3   OH230582   3.358   0.981   2.188  0.4107  0.1218 -0.1932
 3056TIP3    H130583   3.350   1.031   2.107  1.0510 -0.4143 -0.5990
 3056TIP3    H230584   3.450   0.956   2.192  0.1438 -0.8648  0.0978
 3057TIP3   OH230585   0.970   6.292  15.872 -0.1388 -0.0462  0.6178
 3057TIP3    H130586   0.992   6.209  15.829  1.3026  0.4997  0.2394
 3057TIP3    H230587   1.023   6.358  15.827 -1.7956  1.2182  0.4381
 3058TIP3   OH230588   2.147   1.296   0.476  0.1620 -0.0027  0.0591
 3058TIP3    H130589   2.233   1.277   0.514  0.0526 -1.3185 -0.2811
 3058TIP3    H230590   2.100   1.344   0.544  0.4245 -1.1533  1.0900
 3059TIP3   OH230591   0.384   4.531  12.692  0.4164 -0.5740  0.7397
 3059TIP3    H130592   0.443   4.604  12.710 -0.2407  0.3459 -0.6576
 3059TIP3    H230593   0.329   4.524  12.769  1.3027 -0.4279  1.4049
 3060TIP3   OH230594   5.608   2.328   1.842  0.8085  0.6582  0.5543
 3060TIP3    H130595   5.655   2.410   1.823 -0.0876  0.8094 -1.1333
 3060TIP3    H230596   5.568   2.303   1.759 -1.0512 -0.1473  1.6315
 3061TIP3   OH230597   1.226   0.504   6.065 -0.1098  0.0873  0.0644
 3061TIP3    H130598   1.247   0.592   6.034  1.4515  0.5394  2.1623
 3061TIP3    H230599   1.251   0.446   5.993  1.4894  1.1825 -0.3036
 3062TIP3   OH230600   6.727   3.505   3.963  0.3355 -0.1967 -0.0583
 3062TIP3    H130601   6.654   3.545   3.915  2.3511 -0.1097 -3.3289
 3062TIP3    H230602   6.725   3.413   3.937  1.6352 -0.0954 -0.5751
 3063TIP3   OH230603   2.903   0.217  11.688  0.1071  1.0241  0.4448
 3063TIP3    H130604   2.926   0.223  11.781  0.5150 -0.0201  0.4156
 3063TIP3    H230605   2.838   0.147  11.684  1.9795 -0.7504 -0.3808
 3064TIP3   OH230606   4.845   1.208  14.856 -0.3251  0.2474 -0.0445
 3064TIP3    H130607   4.759   1.171  14.837  0.5009 -0.8171 -1.9840
 3064TIP3    H230608   4.890   1.209  14.772  2.3735 -1.3706  1.2573
 3065TIP3   OH230609   4.518   4.393  14.693  0.4829 -0.1771  0.3245
 3065TIP3    H130610   4.565   4.462  14.740 -0.1335 -0.2698  1.1103
 3065TIP3    H230611   4.543   4.404  14.601 -0.9007  2.2114  0.1404
 3066TIP3   OH230612   1.185   5.732   4.026  0.3893  0.8024 -0.2467
 3066TIP3    H130613   1.133   5.677   4.085  3.3103 -1.6214  0.3210
 3066TIP3    H230614   1.150   5.820   4.038 -0.5412  0.0865  3.5593
 3067TIP3   OH230615   0.414   1.895  11.913 -0.3210 -0.1465  0.4302
 3067TIP3    H130616   0.331   1.919  11.872 -0.7929  0.4926  1.7098
 3067TIP3    H230617   0.426   1.959  11.984  0.4409 -1.2132  1.3067
 3068TIP3   OH230618   0.976   2.683   4.562 -0.0762  0.0041 -0.5048
 3068TIP3    H130619   1.068   2.703   4.546 -0.1471  1.0006  0.2539
 3068TIP3    H230620   0.975   2.589   4.578  0.7464 -0.0913 -0.9532
 3069TIP3   OH230621   6.437   5.308   3.250 -0.0905  0.3351  1.0974
 3069TIP3    H130622   6.533   5.311   3.241 -0.1559  1.2415  0.6074
 3069TIP3    H230623   6.423   5.298   3.344  0.4902 -0.8915  1.0816
 3070TIP3   OH230624   5.788   1.848   4.572  0.0370  0.1203 -0.1568
 3070TIP3    H130625   5.800   1.842   4.477 -0.5765 -1.4231 -0.1593
 3070TIP3    H230626   5.694   1.836   4.585 -0.4065  3.4762  0.4639
 3071TIP3   OH230627   6.146   5.537   6.155 -0.7897  0.4006  0.7572
 3071TIP3    H130628   6.233   5.545   6.195 -0.5426  2.0948 -0.0329
 3071TIP3    H230629   6.085   5.562   6.224 -0.4060  2.6458  0.3612
 3072TIP3   OH230630   2.297   4.631  11.598 -0.8831  0.1333 -0.4149
 3072TIP3    H130631   2.244   4.577  11.656 -0.6709 -0.2422 -0.5650
 3072TIP3    H230632   2.357   4.570  11.556  0.7948  0.7481  0.9661
 3073TIP3   OH230633   5.308   2.891  11.119  0.1288  0.0988  0.0347
 3073TIP3    H130634   5.328   2.896  11.026 -0.4931  2.3446 -0.0341
 3073TIP3    H230635   5.231   2.834  11.125 -0.7371  1.1105 -1.0156
 3074TIP3   OH230636   1.618   0.434   4.647  0.0379  0.3836 -0.1008
 3074TIP3    H130637   1.534   0.465   4.612 -0.8253  0.1196  1.6107
 3074TIP3    H230638   1.607   0.339   4.656  1.8915 -0.2640 -3.2839
 3075TIP3   OH230639   4.368   4.868   4.519  0.3584 -0.2911 -0.3971
 3075TIP3    H130640   4.342   4.835   4.433 -0.5625 -0.9725  0.1233
 3075TIP3    H230641   4.286   4.874   4.568  0.1786  4.2244 -0.8732
 3076TIP3   OH230642   6.256   5.315  16.201  0.9087  0.5106  0.0523
 3076TIP3    H130643   6.343   5.331  16.164  1.0741 -1.4365 -0.4611
 3076TIP3    H230644   6.268   5.329  16.295  1.5529  1.1359 -0.1108
 3077TIP3   OH230645   5.584   3.548  14.104 -0.6489  0.0071  0.0790
 3077TIP3    H130646   5.637   3.494  14.046 -2.1557 -1.2327 -0.2109
 3077TIP3    H230647   5.570   3.629  14.056  0.6731  0.2168  0.0233
 3078TIP3   OH230648   3.435   2.685   5.280  0.8175 -0.8980  0.1926
 3078TIP3    H130649   3.405   2.625   5.348 -2.3482 -0.0951 -0.3528
 3078TIP3    H230650   3.457   2.628   5.206  0.1641 -1.5387  0.4776
 3079TIP3   OH230651   1.783   5.179   4.759  0.1478 -0.0697 -0.1101
 3079TIP3    H130652   1.852   5.243   4.777 -0.1099  0.0626  0.4275
 3079TIP3    H230653   1.803   5.146   4.671  2.1104 -1.5753  0.8344
 3080TIP3   OH230654   2.361   2.961   1.460  0.6369 -0.1248  0.0587
 3080TIP3    H130655   2.454   2.969   1.484  0.2844 -1.2587  2.0405
 3080TIP3    H230656   2.327   3.050   1.465  1.4564  0.1929  0.0728
 3081TIP3   OH230657   3.001   2.213   6.207  0.2038 -0.2687  0.3265
 3081TIP3    H130658   2.961   2.127   6.220 -2.1095  0.6938  0.0423
 3081TIP3    H230659   2.961   2.269   6.274 -0.2350  1.1592 -1.0555
 3082TIP3   OH230660   1.664   3.846  15.518  0.4485 -0.0001  0.0396
 3082TIP3    H130661   1.709   3.814  15.439 -0.1224 -0.1377 -0.2369
 3082TIP3    H230662   1.642   3.936  15.497 -1.7118 -0.6738 -0.8908
 3083TIP3   OH230663   0.517   1.984   4.543 -0.0695  0.3636  0.3508
 3083TIP3    H130664   0.430   2.024   4.547 -0.0466  0.4374  0.1153
 3083TIP3    H230665   0.508   1.904   4.595  0.2424  1.3097  1.8965
 3084TIP3   OH230666   2.093   0.609  14.235  0.1118 -0.0414 -0.7879
 3084TIP3    H130667   2.146   0.536  14.202 -0.3437 -1.5291  1.5103
 3084TIP3    H230668   2.009   0.599  14.191  0.7270  0.4902 -2.1525
 3085TIP3   OH230669   2.472   6.117   2.233  0.5727 -0.3448  0.5310
 3085TIP3    H130670   2.534   6.184   2.204 -0.9848  0.3806 -1.4161
 3085TIP3    H230671   2.491   6.041   2.179  0.4396 -0.4827  0.6755
 3086TIP3   OH230672   0.844   5.944   6.547  0.4691 -0.3054  0.3567
 3086TIP3    H130673   0.832   5.918   6.639 -2.5068 -0.5622 -0.0238
 3086TIP3    H230674   0.819   5.866   6.497  0.6394  0.3011 -0.6855
 3087TIP3   OH230675   0.158   6.395   5.514  0.4745 -0.4302 -0.0479
 3087TIP3    H130676   0.093   6.458   5.545 -0.7668 -0.4160 -2.3781
 3087TIP3    H230677   0.164   6.330   5.583 -2.1656 -0.4816  0.2564
 3088TIP3   OH230678   4.364   1.344   1.468  0.2084 -0.4232 -0.2299
 3088TIP3    H130679   4.453   1.308   1.465  0.0170 -1.0035 -4.5608
 3088TIP3    H230680   4.308   1.269   1.486  0.3723 -0.7802 -1.1766
 3089TIP3   OH230681   6.373   2.604   5.343  0.0359  0.2111  0.5354
 3089TIP3    H130682   6.451   2.602   5.398  0.9025  1.7010 -0.5813
 3089TIP3    H230683   6.365   2.514   5.310  2.3202  0.4114 -0.7087
 3090TIP3   OH230684   1.109   3.921  16.714 -0.0868  0.1700 -0.2285
 3090TIP3    H130685   1.094   3.863  16.788 -1.9803 -0.4398 -1.0052
 3090TIP3    H230686   1.052   3.996  16.730  0.1304  0.4278 -0.6357
 3091TIP3   OH230687   1.910   1.200  15.705  0.1830  0.0576 -0.0509
 3091TIP3    H130688   1.831   1.199  15.652 -0.2204  1.2232  0.4935
 3091TIP3    H230689   1.982   1.201  15.641 -0.2885  1.0982 -0.5966
 3092TIP3   OH230690   3.381   1.839  16.677 -0.4699 -0.6785 -0.5941
 3092TIP3    H130691   3.402   1.765  16.619  1.3737  0.8623 -2.0364
 3092TIP3    H230692   3.462   1.855  16.725  0.3166  2.3025 -2.6287
 3093TIP3   OH230693   4.847   1.017  16.096 -0.4086 -0.1507 -0.1158
 3093TIP3    H130694   4.862   1.111  16.100  0.9870 -0.3968  1.5006
 3093TIP3    H230695   4.906   0.986  16.027  0.9145 -0.1188  0.9736
 3094TIP3   OH230696   4.905   1.548  15.954  0.4044  0.0661  0.6208
 3094TIP3    H130697   4.859   1.610  15.898 -0.3620  0.0574  1.2308
 3094TIP3    H230698   4.973   1.599  15.997  0.8445  0.1230 -0.1195
 3095TIP3   OH230699   2.673   5.547   3.120  0.2205 -0.2206  0.1283
 3095TIP3    H130700   2.760   5.579   3.096 -0.2095  0.5318 -0.5186
 3095TIP3    H230701   2.676   5.537   3.215  1.4529 -1.6143 -0.0393
 3096TIP3   OH230702   1.346   0.851  11.416 -0.7884 -0.3349 -0.6475
 3096TIP3    H130703   1.266   0.884  11.457 -1.5655 -0.5793 -1.9556
 3096TIP3    H230704   1.368   0.773  11.466 -0.6681  0.3891  0.4852
 3097TIP3   OH230705   3.951   3.201   4.217  0.2812 -0.0110 -0.4172
 3097TIP3    H130706   3.952   3.160   4.130  1.1780  0.0798 -0.4628
 3097TIP3    H230707   4.044   3.206   4.241  0.0022 -0.6364  0.8313
 3098TIP3   OH230708   5.413   1.151   1.004 -0.4801  0.0667  0.2034
 3098TIP3    H130709   5.505   1.174   0.989 -0.9366  2.5901  0.7668
 3098TIP3    H230710   5.364   1.223   0.964 -2.2263 -1.0689  0.1944
 3099TIP3   OH230711   2.650   0.789  17.090 -0.3986 -0.1620 -0.0538
 3099TIP3    H130712   2.719   0.756  17.034 -0.3978  0.5096 -0.4683
 3099TIP3    H230713   2.637   0.721  17.157  0.7781 -0.2150  0.1386
 3100TIP3   OH230714   4.771   0.329   2.128  0.4781  0.3083 -0.0139
 3100TIP3    H130715   4.857   0.315   2.088  0.6570  0.6413  0.2440
 3100TIP3    H230716   4.709   0.318   2.056  0.6393 -1.0982  0.0263
 3101TIP3   OH230717   6.646   4.665  13.157  0.4094 -0.2060 -0.1637
 3101TIP3    H130718   6.742   4.665  13.153  0.3845  0.4628 -2.0300
 3101TIP3    H230719   6.622   4.573  13.146  0.8578 -0.1754 -1.7319
 3102TIP3   OH230720   5.613   1.277   4.505  0.0835 -0.4750 -0.5885
 3102TIP3    H130721   5.618   1.348   4.440  0.9287 -0.9406 -1.0469
 3102TIP3    H230722   5.695   1.228   4.494  0.2078 -0.6234  0.7751
 3103TIP3   OH230723   3.187   0.500  13.627 -0.0611  0.1826  0.1720
 3103TIP3    H130724   3.248   0.450  13.572  1.4940  1.1036  1.0063
 3103TIP3    H230725   3.101   0.481  13.589  0.2808 -3.8056  0.9546
 3104TIP3   OH230726   1.570   3.925   0.541  0.6004  0.2541  0.1831
 3104TIP3    H130727   1.598   3.836   0.560 -1.2820 -0.2979  0.5391
 3104TIP3    H230728   1.604   3.977   0.614 -0.1055 -0.5570  1.1181
 3105TIP3   OH230729   2.766   0.914   3.265 -0.8497  0.1423  0.1235
 3105TIP3    H130730   2.752   0.821   3.281 -1.3261  0.1278 -0.3568
 3105TIP3    H230731   2.845   0.919   3.212 -0.5375  0.0492  0.5725
 3106TIP3   OH230732   1.463   2.331  12.139  0.2125 -0.4366 -0.1372
 3106TIP3    H130733   1.385   2.277  12.145  0.7809 -1.1240  1.6134
 3106TIP3    H230734   1.474   2.346  12.045 -1.9436 -0.3863 -0.4309
 3107TIP3   OH230735   3.355   3.020  14.554  0.2263  0.3221  0.4101
 3107TIP3    H130736   3.406   2.941  14.573  0.0650  0.2176  0.4097
 3107TIP3    H230737   3.275   3.011  14.606 -0.8028 -0.5760 -1.2386
 3108TIP3   OH230738   1.706   1.239   3.819  0.1470  0.0725 -0.2768
 3108TIP3    H130739   1.639   1.237   3.751  0.5722 -0.2515 -0.6866
 3108TIP3    H230740   1.698   1.154   3.862  0.6445 -0.1708 -0.6643
 3109TIP3   OH230741   2.285   2.739  13.083  0.1137  0.2038  0.0729
 3109TIP3    H130742   2.253   2.823  13.051  0.6218  0.8121  1.1245
 3109TIP3    H230743   2.211   2.702  13.131  0.6611  1.2736  1.8615
 3110TIP3   OH230744   1.190   0.032   3.403  0.3954  0.3390 -0.0436
 3110TIP3    H130745   1.206   0.098   3.336 -0.0051  1.4059  0.8989
 3110TIP3    H230746   1.267  -0.026   3.398  1.8591  2.1525  0.6282
 3111TIP3   OH230747   5.923   6.573  10.546 -0.0184 -0.0129  0.7600
 3111TIP3    H130748   5.870   6.575  10.467 -0.5312 -2.3412  0.9932
 3111TIP3    H230749   5.964   6.487  10.547  2.1636  0.9351  1.6723
 3112TIP3   OH230750   4.960   3.424  13.817 -0.0032  0.4695 -0.0770
 3112TIP3    H130751   5.002   3.454  13.898  0.4817  0.5562 -0.3570
 3112TIP3    H230752   4.866   3.422  13.838  0.0036  1.6440  0.1178
 3113TIP3   OH230753   4.859   5.930  15.525  0.3173  0.1149  0.4351
 3113TIP3    H130754   4.921   5.924  15.452 -1.0884 -1.0835 -0.7371
 3113TIP3    H230755   4.818   6.016  15.514  0.6292  0.2437  0.2548
 3114TIP3   OH230756   3.974   4.048   0.694 -0.2455  0.6343 -0.1907
 3114TIP3    H130757   4.053   3.994   0.705  0.6502  1.9861  0.3465
 3114TIP3    H230758   3.953   4.041   0.601 -0.0590 -0.4906 -0.1655
 3115TIP3   OH230759   0.930   4.676  14.935 -0.3351 -0.2475  0.2409
 3115TIP3    H130760   0.873   4.675  14.858 -1.2829 -1.7143  0.9143
 3115TIP3    H230761   1.016   4.654  14.901  0.2911  3.3759 -1.0220
 3116TIP3   OH230762   6.085   6.389  14.629 -0.1862 -0.1124  0.3651
 3116TIP3    H130763   6.061   6.303  14.593  1.0828 -0.6897  0.8535
 3116TIP3    H230764   6.042   6.452  14.571  0.1528 -1.0551 -0.9592
 3117TIP3   OH230765   1.614   4.817   0.761  0.5773  0.1905 -0.2801
 3117TIP3    H130766   1.583   4.772   0.840  0.4474 -1.5382 -1.2598
 3117TIP3    H230767   1.537   4.858   0.724 -0.1039 -1.8345 -1.2645
 3118TIP3   OH230768   4.020   2.650   3.389  0.0603 -0.2007 -0.4687
 3118TIP3    H130769   3.973   2.567   3.390 -0.1918 -0.0543 -0.1134
 3118TIP3    H230770   3.952   2.717   3.400  0.2797  0.0433 -0.5834
 3119TIP3   OH230771   4.138   1.989  15.930  0.1167 -0.2294 -0.4303
 3119TIP3    H130772   4.222   1.948  15.948  0.2974 -0.3201 -1.3980
 3119TIP3    H230773   4.091   1.926  15.876 -0.5553 -0.1560  0.0555
 3120TIP3   OH230774   1.897   6.255  10.880 -0.4977 -0.4456  0.2392
 3120TIP3    H130775   1.948   6.319  10.931 -0.2176  0.2385 -0.8696
 3120TIP3    H230776   1.943   6.248  10.797 -0.2795 -2.4501  0.4806
 3121TIP3   OH230777   2.863   5.696  11.278  0.2700 -0.9273  0.0054
 3121TIP3    H130778   2.836   5.605  11.266 -1.0139 -0.7417  1.1957
 3121TIP3    H230779   2.908   5.696  11.363  0.6230 -0.5199 -0.1797
 3122TIP3   OH230780   1.673   3.551   6.217 -0.0383 -0.0603 -0.0631
 3122TIP3    H130781   1.709   3.584   6.299 -1.0145 -0.8891  0.7172
 3122TIP3    H230782   1.579   3.572   6.222 -0.1379 -0.2620 -0.9020
 3123TIP3   OH230783   2.301   0.056  11.555  0.6977 -0.0177  0.9334
 3123TIP3    H130784   2.307   0.152  11.550  2.0416 -0.1152  0.1781
 3123TIP3    H230785   2.342   0.034  11.639 -1.0372  0.1385  1.8692
 3124TIP3   OH230786   0.119   4.987   5.801  0.3552  0.5435 -0.1046
 3124TIP3    H130787   0.156   5.010   5.716 -0.4922 -0.2436 -0.7021
 3124TIP3    H230788   0.192   4.999   5.863  1.0845  0.7581 -0.9804
 3125TIP3   OH230789   4.684   1.066   1.082  0.3500 -0.3572 -0.0239
 3125TIP3    H130790   4.612   1.047   1.022  1.2635 -1.5809 -0.7699
 3125TIP3    H230791   4.745   0.993   1.071  1.5891  0.5115  0.7844
 3126TIP3   OH230792   0.452   3.124  16.182  0.6988 -0.3691  0.3048
 3126TIP3    H130793   0.383   3.160  16.237 -0.2756 -2.2637  0.4109
 3126TIP3    H230794   0.424   3.143  16.092 -0.5375 -1.9928  0.3020
 3127TIP3   OH230795   5.456   3.196   6.130  0.3457  0.9840 -0.3322
 3127TIP3    H130796   5.526   3.141   6.096 -1.6660 -0.6434 -2.1189
 3127TIP3    H230797   5.471   3.197   6.225  1.2573 -1.5773 -0.3654
 3128TIP3   OH230798   3.006   0.906   3.099  0.2722  0.0546  0.3089
 3128TIP3    H130799   3.055   0.899   3.182 -0.3328  0.2599  0.6891
 3128TIP3    H230800   3.064   0.955   3.041  0.2067  0.9720  1.0003
 3129TIP3   OH230801   1.936   5.441  13.616 -0.2086 -0.0693 -0.0080
 3129TIP3    H130802   1.928   5.537  13.611  1.4374  0.0465 -0.9876
 3129TIP3    H230803   2.029   5.425  13.630 -0.5109 -1.5407  0.5182
 3130TIP3   OH230804   6.408   3.543  10.606 -0.0394  0.5528 -0.1805
 3130TIP3    H130805   6.316   3.518  10.596 -0.3736  1.1426  1.2347
 3130TIP3    H230806   6.445   3.532  10.518 -1.4903  0.4711 -0.8108
 3131TIP3   OH230807   0.313   1.014   5.346 -0.3083  0.0858  0.1377
 3131TIP3    H130808   0.345   0.985   5.261  0.3153 -2.2460  1.0829
 3131TIP3    H230809   0.219   1.028   5.333 -0.1632  0.0874 -0.9995
 3132TIP3   OH230810   4.656   3.732   1.562  0.6363 -0.2902  0.0261
 3132TIP3    H130811   4.625   3.676   1.634 -1.2054 -0.2017 -0.6329
 3132TIP3    H230812   4.599   3.809   1.566  1.0873  0.1105 -0.9955
 3133TIP3   OH230813   0.750   1.731  14.197  0.7084  0.1007  0.0259
 3133TIP3    H130814   0.825   1.785  14.170  0.2159  0.7239 -0.1302
 3133TIP3    H230815   0.698   1.721  14.117  0.3196  0.1753  0.2684
 3134TIP3   OH230816   2.043   4.214  13.159  0.2604 -0.1550  0.7818
 3134TIP3    H130817   2.014   4.292  13.205  0.7460  0.1402  0.6027
 3134TIP3    H230818   2.128   4.194  13.198 -0.8127 -1.8929  2.3670
 3135TIP3   OH230819   6.031   0.838  13.690  0.1639  0.2723 -0.1072
 3135TIP3    H130820   6.113   0.869  13.652  1.8195 -1.3645  1.9036
 3135TIP3    H230821   5.976   0.916  13.696  1.2131  1.2518 -2.2790
 3136TIP3   OH230822   1.986   0.577  15.840 -0.0302 -0.1019  0.3289
 3136TIP3    H130823   1.995   0.670  15.820 -0.2711 -0.1878 -0.2021
 3136TIP3    H230824   2.071   0.540  15.818 -0.3634 -0.2340 -0.7939
 3137TIP3   OH230825   0.872   6.181  14.757  0.3842  0.7768 -0.2353
 3137TIP3    H130826   0.803   6.184  14.823  1.3514  0.7888  0.8039
 3137TIP3    H230827   0.830   6.213  14.677 -0.3060  2.7579  0.8429
 3138TIP3   OH230828   5.777   2.824   6.619  0.4239  0.9657 -0.1502
 3138TIP3    H130829   5.714   2.890   6.591 -1.1347 -0.1987  0.5031
 3138TIP3    H230830   5.858   2.873   6.633 -0.0804  2.3675 -1.7936
 3139TIP3   OH230831   3.263   3.931  13.210  0.1527 -0.3734 -0.3043
 3139TIP3    H130832   3.178   3.912  13.169  0.3547  0.1579 -0.9702
 3139TIP3    H230833   3.253   3.899  13.300 -0.4772 -1.0588 -0.6064
 3140TIP3   OH230834   5.382   1.367  15.158  0.1353 -0.2154  1.0497
 3140TIP3    H130835   5.417   1.433  15.097 -2.9524 -0.6145 -1.4456
 3140TIP3    H230836   5.434   1.289  15.141 -0.0722 -0.0557 -0.5128
 3141TIP3   OH230837   3.588   0.421  11.056  0.5324 -0.0754  0.3562
 3141TIP3    H130838   3.537   0.366  10.996 -1.4152  0.9373  0.9769
 3141TIP3    H230839   3.596   0.368  11.135 -0.4858  0.1143  0.6055
 3142TIP3   OH230840   5.833   3.217   2.847 -0.1179  0.2080 -0.5352
 3142TIP3    H130841   5.865   3.167   2.922  0.1222  0.0160 -0.7651
 3142TIP3    H230842   5.743   3.240   2.871  0.5707  1.8545  0.6681
 3143TIP3   OH230843   5.992   0.930   2.869 -0.0089  0.4592  0.6573
 3143TIP3    H130844   6.014   0.941   2.962 -0.5399 -1.5181  1.0795
 3143TIP3    H230845   6.040   0.851   2.843  0.3471  1.1426 -0.8409
 3144TIP3   OH230846   4.536   0.042  13.478  0.0464 -0.0195 -0.4369
 3144TIP3    H130847   4.491   0.011  13.400 -0.9942  1.8984 -0.6578
 3144TIP3    H230848   4.474   0.027  13.550  0.7166 -1.1132 -0.0558
 3145TIP3   OH230849   0.421   6.016   3.040 -0.0952 -0.5769 -0.5339
 3145TIP3    H130850   0.444   5.930   3.077  0.4287 -1.1442 -2.1168
 3145TIP3    H230851   0.502   6.067   3.045 -0.3748 -0.2024  0.2945
 3146TIP3   OH230852   0.782   5.710   6.747 -0.4108  0.1847  0.1057
 3146TIP3    H130853   0.745   5.645   6.687 -1.6524  1.6990 -0.8568
 3146TIP3    H230854   0.721   5.711   6.821  1.3279 -1.9649  1.7122
 3147TIP3   OH230855   0.765   0.989  11.595  0.3141  0.1710  0.5372
 3147TIP3    H130856   0.827   0.922  11.625 -0.0534  0.8734  3.1078
 3147TIP3    H230857   0.810   1.072  11.612  1.0341  0.6959 -3.2051
 3148TIP3   OH230858   3.473   1.046   3.124  0.5126  0.1723  0.0330
 3148TIP3    H130859   3.509   1.028   3.037  1.2133  0.5532  0.2310
 3148TIP3    H230860   3.546   1.086   3.171 -0.2214  1.0887  0.4120
 3149TIP3   OH230861   1.879   2.825  17.052 -0.1880  0.1961  0.8022
 3149TIP3    H130862   1.912   2.760  17.115 -2.7501 -2.2145 -0.1166
 3149TIP3    H230863   1.930   2.810  16.973  0.0955  0.1924  0.9847
 3150TIP3   OH230864   6.282   5.080  11.624 -0.6038 -0.2312  0.2760
 3150TIP3    H130865   6.189   5.093  11.645 -0.6342  0.1725 -0.0910
 3150TIP3    H230866   6.287   5.093  11.529 -0.1965 -0.4185  0.2693
 3151TIP3   OH230867   3.640   2.728  14.827 -0.0105 -0.2814 -0.3488
 3151TIP3    H130868   3.696   2.789  14.875 -0.0620  0.0953 -0.7579
 3151TIP3    H230869   3.563   2.717  14.883 -1.0163  1.7575 -1.2080
 3152TIP3   OH230870   0.677   1.707   1.118  0.0679 -0.5424  0.6986
 3152TIP3    H130871   0.694   1.612   1.116 -0.6326 -0.7256  2.3070
 3152TIP3    H230872   0.720   1.737   1.197  0.2663  0.5004  0.2037
 3153TIP3   OH230873   1.178   2.315   4.211 -0.3449 -0.0366  0.3029
 3153TIP3    H130874   1.121   2.392   4.217  1.4234  1.4246 -0.6261
 3153TIP3    H230875   1.153   2.260   4.285 -2.4929  0.8322  0.2834
 3154TIP3   OH230876   5.139   3.969  17.026 -0.0116  0.6273 -0.3130
 3154TIP3    H130877   5.093   3.977  16.942 -0.5151  0.5601 -0.0434
 3154TIP3    H230878   5.227   3.940  17.001 -0.2394  0.3359 -0.8045
 3155TIP3   OH230879   2.153   1.631   3.911 -0.5531  0.1501 -0.0813
 3155TIP3    H130880   2.101   1.660   3.986 -0.6642 -0.5871  0.1412
 3155TIP3    H230881   2.236   1.678   3.919 -1.1868  1.3896 -0.4758
 3156TIP3   OH230882   2.861   4.746  11.075  0.1031  0.1704  0.2842
 3156TIP3    H130883   2.952   4.755  11.103  0.8038 -2.5211 -0.7996
 3156TIP3    H230884   2.862   4.767  10.981 -0.1450 -0.9310  0.0191
 3157TIP3   OH230885   5.939   0.021   1.238  0.2543  0.1718 -0.2516
 3157TIP3    H130886   5.846   0.004   1.251  0.1590 -0.8074 -1.9522
 3157TIP3    H230887   5.961   0.086   1.305 -1.2257 -0.8554  1.3258
 3158TIP3   OH230888   6.268   0.022   1.491 -0.0493 -0.4058  0.4192
 3158TIP3    H130889   6.288   0.101   1.542  1.9897 -0.4163 -0.2490
 3158TIP3    H230890   6.188  -0.012   1.530 -0.6953  1.6858  1.0808
 3159TIP3   OH230891   5.693   3.576   4.896 -0.2941 -0.0765  0.3994
 3159TIP3    H130892   5.659   3.617   4.816 -0.5364 -0.8397  0.1031
 3159TIP3    H230893   5.617   3.534   4.935 -0.0202 -0.3538  0.6346
 3160TIP3   OH230894   6.574   2.059  11.546  0.4449 -0.2190 -0.1913
 3160TIP3    H130895   6.507   2.010  11.498  0.2702 -1.3237  1.1238
 3160TIP3    H230896   6.605   2.125  11.483  0.8771 -2.1637 -2.1486
 3161TIP3   OH230897   5.238   5.331  13.001 -0.0260 -0.0350 -0.3610
 3161TIP3    H130898   5.165   5.293  12.952 -0.6080 -0.2181  0.6261
 3161TIP3    H230899   5.208   5.418  13.027  0.3616  0.1464 -0.5025
 3162TIP3   OH230900   2.522   3.079  12.922  0.1112  0.1077  0.2049
 3162TIP3    H130901   2.466   3.104  12.996 -1.3607 -1.6154 -0.2647
 3162TIP3    H230902   2.512   3.151  12.859 -1.9873 -0.3453 -0.0523
 3163TIP3   OH230903   1.954   5.610  15.667  0.2271 -0.6395 -0.8151
 3163TIP3    H130904   2.013   5.619  15.593  0.0215  0.7569 -0.8292
 3163TIP3    H230905   1.919   5.698  15.682 -0.3262 -1.0423  0.4530
 3164TIP3   OH230906   5.643   1.315  16.234  0.0347  0.0041  0.0626
 3164TIP3    H130907   5.635   1.225  16.267  0.4675  0.2416  0.8416
 3164TIP3    H230908   5.727   1.345  16.267  0.2836  0.4124 -0.9254
 3165TIP3   OH230909   3.411   4.131  11.424 -0.5632 -0.4359  0.3250
 3165TIP3    H130910   3.406   4.225  11.442 -1.9233 -0.4355  0.1004
 3165TIP3    H230911   3.452   4.125  11.337  2.5852 -0.2578  1.6851
 3166TIP3   OH230912   6.611   4.939   0.508  0.6369 -0.0695 -0.1599
 3166TIP3    H130913   6.523   4.904   0.517  0.7475 -0.2262  0.3700
 3166TIP3    H230914   6.657   4.876   0.453  0.5326 -0.1956 -0.1017
 3167TIP3   OH230915   5.174   5.986   3.675  0.4174  0.6351 -0.1658
 3167TIP3    H130916   5.150   5.894   3.688 -0.6281  0.9711  0.3678
 3167TIP3    H230917   5.101   6.023   3.625  0.5020  1.3417  0.2285
 3168TIP3   OH230918   3.195   5.450   0.631 -0.1904 -0.3184  0.5534
 3168TIP3    H130919   3.270   5.494   0.671  0.7068 -2.2561  1.1591
 3168TIP3    H230920   3.231   5.367   0.598 -1.1175  0.5899 -3.2639
 3169TIP3   OH230921   5.655   4.363   6.300 -0.5156  0.9138  0.0091
 3169TIP3    H130922   5.693   4.388   6.384  2.6219 -1.2545 -0.5890
 3169TIP3    H230923   5.703   4.415   6.236  0.4904 -0.7754 -0.6766
 3170TIP3   OH230924   4.332   2.198  12.843 -0.2774 -0.3147  0.3489
 3170TIP3    H130925   4.387   2.120  12.846  1.8004  1.0960  2.5457
 3170TIP3    H230926   4.393   2.271  12.843 -2.1628  1.3836 -0.9964
 3171TIP3   OH230927   5.991   5.420  17.095 -0.5157 -0.5304  0.2811
 3171TIP3    H130928   5.915   5.384  17.048 -0.8872  1.0260 -0.3714
 3171TIP3    H230929   6.006   5.358  17.166 -3.0606 -0.3627  1.0651
 3172TIP3   OH230930   5.123   0.298   3.247 -0.2594  0.0089 -0.3814
 3172TIP3    H130931   5.210   0.285   3.286  0.8920  0.9625 -2.4644
 3172TIP3    H230932   5.076   0.217   3.266  1.6989 -1.2719 -0.6996
 3173TIP3   OH230933   3.888   3.827   2.654 -0.5981  0.4404 -0.7404
 3173TIP3    H130934   3.979   3.797   2.650  0.1051  2.5728 -3.2971
 3173TIP3    H230935   3.838   3.757   2.613 -0.0213 -0.4197 -0.0052
 3174TIP3   OH230936   1.655   4.509  15.728 -0.5580 -0.2864 -0.1032
 3174TIP3    H130937   1.681   4.585  15.782 -0.2355 -0.1931 -0.3847
 3174TIP3    H230938   1.690   4.434  15.775  1.3492 -0.0811 -1.1044
 3175TIP3   OH230939   3.596   4.230   4.782  0.3033 -0.2637 -0.1360
 3175TIP3    H130940   3.508   4.259   4.807  0.5246  0.8938 -0.6011
 3175TIP3    H230941   3.593   4.135   4.789 -0.3415 -0.1337  1.9189
 3176TIP3   OH230942   1.972   2.790   5.785  0.4994 -0.1145  0.4555
 3176TIP3    H130943   1.952   2.844   5.862 -0.1357  0.1262  0.1318
 3176TIP3    H230944   2.059   2.754   5.803  0.3927 -0.0065  1.2566
 3177TIP3   OH230945   6.299   6.342   3.337  0.6749 -0.1519 -0.2746
 3177TIP3    H130946   6.259   6.268   3.292  0.2675  0.4282 -0.8831
 3177TIP3    H230947   6.379   6.360   3.286 -0.3281  1.1835 -1.4652
 3178TIP3   OH230948   4.879   2.122   0.463  0.2164  0.3214 -0.6559
 3178TIP3    H130949   4.946   2.119   0.394  3.0220  2.7630  1.6629
 3178TIP3    H230950   4.908   2.056   0.526 -1.6911 -1.1083 -1.2053
 3179TIP3   OH230951   0.325   3.558  11.268  0.0744 -0.2546 -0.0216
 3179TIP3    H130952   0.372   3.480  11.238  0.0206  0.0683 -0.9610
 3179TIP3    H230953   0.272   3.527  11.341 -0.0010 -1.1218 -0.4293
 3180TIP3   OH230954   2.295   0.950  13.180 -0.5148  0.2823  0.0684
 3180TIP3    H130955   2.336   0.900  13.250  0.6612 -0.0083 -0.8062
 3180TIP3    H230956   2.267   1.031  13.222 -0.0843 -0.0102  0.9341
 3181TIP3   OH230957   2.203   4.890   2.996  0.3165 -0.3890 -0.1233
 3181TIP3    H130958   2.225   4.929   3.081  1.7227  1.7883 -1.3934
 3181TIP3    H230959   2.151   4.957   2.952 -1.3285 -1.9261 -0.6219
 3182TIP3   OH230960   2.094   3.506   5.444 -0.0661 -0.4130 -0.2557
 3182TIP3    H130961   2.166   3.468   5.392  0.0938 -1.5725  0.7495
 3182TIP3    H230962   2.022   3.443   5.435  0.3330 -1.2620  1.7746
 3183TIP3   OH230963   2.410   4.300   4.661  0.2982 -0.0824  0.4434
 3183TIP3    H130964   2.470   4.273   4.592  0.0353  1.3112 -0.3751
 3183TIP3    H230965   2.446   4.263   4.742  1.1584 -0.8982 -0.3003
 3184TIP3   OH230966   4.712   0.481  12.249 -0.5089 -0.3586 -0.4572
 3184TIP3    H130967   4.694   0.418  12.179 -0.3128  1.1400 -1.9333
 3184TIP3    H230968   4.711   0.566  12.205  1.6432  0.4931  0.9766
 3185TIP3   OH230969   2.072   0.404   1.716  0.2614  0.1551  0.1763
 3185TIP3    H130970   2.132   0.329   1.726  0.0396  0.0573  0.8452
 3185TIP3    H230971   1.995   0.366   1.674 -0.5345 -0.3763  2.0354
 3186TIP3   OH230972   6.312   3.900  17.080 -0.9862 -0.7345 -0.1328
 3186TIP3    H130973   6.278   3.832  17.138 -1.7318 -0.3032 -0.0511
 3186TIP3    H230974   6.265   3.887  16.997 -0.4321 -0.9170 -0.4172
 3187TIP3   OH230975   6.047   5.504  16.678 -0.1127 -0.1038  0.2093
 3187TIP3    H130976   5.994   5.558  16.619  1.4334  0.5281 -0.6550
 3187TIP3    H230977   6.017   5.414  16.662  0.7836 -0.0448 -2.1857
 3188TIP3   OH230978   3.701   0.453   3.324 -0.5318 -0.3864 -0.1141
 3188TIP3    H130979   3.648   0.493   3.393 -2.0657 -1.3914 -0.6532
 3188TIP3    H230980   3.786   0.497   3.331 -0.6954 -0.3057  2.2469
 3189TIP3   OH230981   3.322   4.629   3.791  0.1362 -0.7389 -0.2372
 3189TIP3    H130982   3.407   4.669   3.773 -0.3804  1.1300  1.2156
 3189TIP3    H230983   3.344   4.540   3.821  1.4263 -0.9982 -1.8236
 3190TIP3   OH230984   2.169   3.548  13.507 -0.3378  0.1453 -0.1283
 3190TIP3    H130985   2.235   3.556  13.438  3.0169 -0.6496  2.6538
 3190TIP3    H230986   2.166   3.635  13.547 -0.8015  0.1126 -0.0847
 3191TIP3   OH230987   4.202   3.873  17.187  0.1388  0.0575  0.3137
 3191TIP3    H130988   4.284   3.895  17.143 -0.0633  0.9757  0.3744
 3191TIP3    H230989   4.181   3.785  17.156  0.9655 -0.0540  0.0367
 3192TIP3   OH230990   3.715   2.414  15.085 -0.1692  0.1482  0.6082
 3192TIP3    H130991   3.640   2.430  15.143 -0.1820  2.7825  0.0098
 3192TIP3    H230992   3.773   2.488  15.101  0.8027 -0.1584 -1.2490
 3193TIP3   OH230993   4.207   4.370   4.368 -0.1057 -0.0124  0.7025
 3193TIP3    H130994   4.227   4.311   4.295 -1.8366 -1.3607  1.2455
 3193TIP3    H230995   4.277   4.354   4.432 -0.9938 -2.2024  1.2166
 3194TIP3   OH230996   2.100   4.007   3.639 -0.0289  0.0654 -0.8640
 3194TIP3    H130997   2.038   4.040   3.704  1.4617  0.5230  0.3999
 3194TIP3    H230998   2.178   4.062   3.650  0.3300  0.0543 -2.9617
 3195TIP3   OH230999   5.378   0.894   1.118  0.1462  0.0577  0.1088
 3195TIP3    H131000   5.393   0.973   1.066  1.8552  0.1643  0.6882
 3195TIP3    H231001   5.291   0.865   1.093  0.3693  0.8783 -1.7700
 3196TIP3   OH231002   5.434   4.635   6.589 -0.3930  0.0268 -0.2852
 3196TIP3    H131003   5.429   4.628   6.684  0.0199  0.8674 -0.1959
 3196TIP3    H231004   5.345   4.660   6.562 -0.2665  0.7826 -0.0228
 3197TIP3   OH231005   4.033   1.219  11.942 -0.2301 -0.0292  0.3092
 3197TIP3    H131006   4.082   1.276  11.882 -2.5392  1.2823 -0.4264
 3197TIP3    H231007   3.985   1.159  11.885 -1.2238  0.1929  0.8955
 3198TIP3   OH231008   0.059   2.804   3.415  0.0600  0.2873 -0.2799
 3198TIP3    H131009   0.032   2.719   3.380 -0.4088 -0.8560  2.5743
 3198TIP3    H231010   0.144   2.821   3.373  1.5249 -2.9910  0.9977
 3199TIP3   OH231011   2.562   4.743  13.736 -0.1242  0.1156  0.2023
 3199TIP3    H131012   2.608   4.679  13.682  2.1415  0.9663  0.9981
 3199TIP3    H231013   2.485   4.768  13.684  0.0190 -1.7273 -0.9791
 3200TIP3   OH231014   0.919   3.910   1.108 -0.1989 -0.0240  0.5421
 3200TIP3    H131015   0.973   3.867   1.041  1.4426  0.3916  1.5417
 3200TIP3    H231016   0.902   3.840   1.172 -1.1425 -0.2343  0.0735
 3201TIP3   OH231017   0.310   0.758  15.085 -0.3146  0.1699  0.1772
 3201TIP3    H131018   0.303   0.847  15.051 -0.6589  0.1073  0.0854
 3201TIP3    H231019   0.244   0.753  15.154 -0.2070  0.0252  0.2717
 3202TIP3   OH231020   2.936   2.078  15.797 -0.1893 -0.4435  0.5887
 3202TIP3    H131021   2.978   1.998  15.768 -0.2083 -0.5243  0.7865
 3202TIP3    H231022   2.919   2.065  15.890 -1.7479 -0.9078  0.2640
 3203TIP3   OH231023   4.535   5.810   0.669 -0.0312 -0.2254  0.1910
 3203TIP3    H131024   4.599   5.786   0.736  0.5077  2.2987  0.6752
 3203TIP3    H231025   4.577   5.879   0.618 -2.0988  1.0755  0.1016
 3204TIP3   OH231026   4.860   6.257  17.086  0.3193  0.1890  0.4046
 3204TIP3    H131027   4.894   6.203  17.157  0.7940  1.3053  1.0569
 3204TIP3    H231028   4.872   6.347  17.116 -1.6249  0.6678 -0.0935
 3205TIP3   OH231029   3.373   3.587   3.601 -0.0777  0.2268 -0.0713
 3205TIP3    H131030   3.345   3.655   3.539 -1.4329 -1.3916 -1.3256
 3205TIP3    H231031   3.467   3.599   3.608  0.1558  0.4397 -2.5560
 3206TIP3   OH231032   2.237   4.527   0.286  0.2246  0.1822  0.2587
 3206TIP3    H131033   2.240   4.433   0.265  0.7573  0.2341  0.0907
 3206TIP3    H231034   2.179   4.564   0.220  1.3793  0.2383 -0.7645
 3207TIP3   OH231035   4.174   4.816   5.049 -0.4077  0.0208  0.4506
 3207TIP3    H131036   4.182   4.727   5.082 -2.0165 -0.1146  0.5401
 3207TIP3    H231037   4.080   4.829   5.034 -0.1609  1.5202 -0.0624
 3208TIP3   OH231038   5.122   1.603  12.847 -0.3121  0.3041 -0.0603
 3208TIP3    H131039   5.148   1.553  12.769 -1.4743  0.0339 -0.2961
 3208TIP3    H231040   5.164   1.688  12.835  2.4808 -0.8352  0.8116
 3209TIP3   OH231041   0.340   0.287  15.171 -0.0335 -0.4263 -0.3287
 3209TIP3    H131042   0.266   0.326  15.123  0.5157  0.7023 -0.2965
 3209TIP3    H231043   0.318   0.195  15.178 -1.7450 -0.0067  0.2242
 3210TIP3   OH231044   6.430   4.540  11.226  0.0726 -0.2431  0.3232
 3210TIP3    H131045   6.455   4.452  11.252 -0.6817 -1.0401 -1.4519
 3210TIP3    H231046   6.499   4.568  11.166  0.1708  0.2860  0.6738
 3211TIP3   OH231047   1.756   4.462  11.458 -0.3255 -0.1805  0.2428
 3211TIP3    H131048   1.729   4.549  11.489  0.1446 -0.0183  0.1957
 3211TIP3    H231049   1.809   4.480  11.380  1.2561 -0.4034  1.2246
 3212TIP3   OH231050   3.951   2.152   5.239  0.1808 -0.4897 -0.0202
 3212TIP3    H131051   3.876   2.139   5.297  0.6421  1.2928  1.0748
 3212TIP3    H231052   4.010   2.079   5.258  0.0835 -0.2297  1.4141
 3213TIP3   OH231053   4.355   1.464   0.807 -0.1764  0.1169 -0.4419
 3213TIP3    H131054   4.288   1.467   0.875  0.9569  0.3169  0.7121
 3213TIP3    H231055   4.405   1.384   0.826 -0.1358 -0.0679 -1.3206
 3214TIP3   OH231056   5.092   1.361   1.593  0.6628  0.0556  0.2061
 3214TIP3    H131057   5.072   1.322   1.508 -0.8410 -0.8700  0.9354
 3214TIP3    H231058   5.134   1.444   1.572  2.2577 -1.0824 -1.4131
 3215TIP3   OH231059   5.261   1.156   3.989  0.2492 -0.0961  0.3776
 3215TIP3    H131060   5.329   1.178   3.925  2.3223  1.5123  2.9146
 3215TIP3    H231061   5.287   1.070   4.022  1.5195  0.7355  1.7199
 3216TIP3   OH231062   4.096   0.693  13.616 -0.6981  0.4254  0.6760
 3216TIP3    H131063   4.150   0.646  13.553  0.6134  2.0790  0.4827
 3216TIP3    H231064   4.007   0.665  13.597 -0.2023 -0.1413 -0.9952
 3217TIP3   OH231065   6.661   3.216   0.542  0.0853 -0.1689 -0.7074
 3217TIP3    H131066   6.565   3.216   0.537 -0.0381  1.2491  0.7142
 3217TIP3    H231067   6.689   3.263   0.464 -0.3493 -0.8754 -1.2987
 3218TIP3   OH231068   0.268   4.840   5.417  0.2492  0.1715  0.1492
 3218TIP3    H131069   0.287   4.925   5.377 -0.1789 -1.1397 -3.1235
 3218TIP3    H231070   0.332   4.832   5.488  1.1020  2.6644 -0.2337
 3219TIP3   OH231071   2.037   1.110   1.941  0.0325  0.1767  0.0408
 3219TIP3    H131072   2.013   1.149   1.856 -1.1985  0.0347  0.3068
 3219TIP3    H231073   1.959   1.122   1.995 -0.3985 -2.5848  0.1725
 3220TIP3   OH231074   4.791   1.805  16.120  0.0648  0.2896  0.3805
 3220TIP3    H131075   4.766   1.713  16.128  3.4230 -0.9037 -0.8247
 3220TIP3    H231076   4.813   1.832  16.210 -0.8580 -0.1049  0.7294
 3221TIP3   OH231077   0.002   6.543  16.360  0.3098  0.3961 -0.2888
 3221TIP3    H131078  -0.083   6.585  16.367  0.1262  0.3334 -1.8073
 3221TIP3    H231079   0.024   6.548  16.267  2.0977  0.6704  0.0984
 3222TIP3   OH231080   5.405   1.149   1.590  0.1448  0.2575  0.0867
 3222TIP3    H131081   5.416   1.220   1.653  0.1815  0.9037 -0.6406
 3222TIP3    H231082   5.349   1.185   1.522  1.6865  0.2484 -1.2497
 3223TIP3   OH231083   4.677   0.516  13.238  0.9683 -0.0463 -0.0747
 3223TIP3    H131084   4.625   0.593  13.262  3.2448  1.7560 -0.6135
 3223TIP3    H231085   4.628   0.477  13.164 -0.1998  0.8773  0.1769
 3224TIP3   OH231086   1.631   6.149   0.920  0.4808 -0.2511  0.3911
 3224TIP3    H131087   1.572   6.220   0.894 -0.1814 -1.1608 -0.7226
 3224TIP3    H231088   1.614   6.080   0.856  2.7646 -0.5594  0.0075
 3225TIP3   OH231089   0.452   1.897  14.604 -0.5408 -0.0200  0.0111
 3225TIP3    H131090   0.385   1.840  14.566  0.3939 -0.9831 -0.2060
 3225TIP3    H231091   0.535   1.853  14.586  0.2486  1.6279 -0.5647
 3226TIP3   OH231092   5.302   2.964  16.462 -0.2224  0.2155  0.4100
 3226TIP3    H131093   5.259   3.042  16.427 -2.0892 -1.6421 -1.6988
 3226TIP3    H231094   5.238   2.926  16.522 -0.4541 -1.0553 -0.5933
 3227TIP3   OH231095   0.972   2.096  13.484  0.3672  0.4092 -0.6747
 3227TIP3    H131096   1.028   2.074  13.409 -0.9955 -1.5032 -1.2317
 3227TIP3    H231097   1.010   2.048  13.557  0.1667  0.0886 -0.7775
 3228TIP3   OH231098   3.983   4.960   3.563  0.2672 -0.1551 -0.3720
 3228TIP3    H131099   3.960   4.999   3.647  0.3529 -0.9058  0.0150
 3228TIP3    H231100   3.919   4.996   3.502  0.1315  0.3132  0.0363
 3229TIP3   OH231101   6.671   3.848   3.996 -0.1619 -0.2784 -0.3492
 3229TIP3    H131102   6.599   3.785   4.005 -0.3314  0.0356  0.5229
 3229TIP3    H231103   6.713   3.850   4.081  1.9779 -1.7199 -1.2939
 3230TIP3   OH231104   2.073   0.647   6.025 -0.4698  0.0822 -0.4956
 3230TIP3    H131105   2.158   0.612   6.054 -0.2811  0.2093 -0.8892
 3230TIP3    H231106   2.057   0.722   6.082 -0.5543 -0.2373 -0.0926
 3231TIP3   OH231107   6.214   5.480   5.570  0.2321 -0.3582 -0.0423
 3231TIP3    H131108   6.271   5.433   5.509  0.5172  0.2607 -0.2662
 3231TIP3    H231109   6.141   5.420   5.587 -0.0606 -0.3903 -1.3131
 3232TIP3   OH231110   3.614   0.503   2.018 -0.2431  0.6489  0.2009
 3232TIP3    H131111   3.544   0.439   2.008 -0.0203  0.3677  0.3962
 3232TIP3    H231112   3.618   0.519   2.113 -0.7526  1.4735  0.0911
 3233TIP3   OH231113   2.859   4.846   0.846  0.5408  0.1582 -0.4295
 3233TIP3    H131114   2.801   4.820   0.918  1.1768 -2.6300 -0.8171
 3233TIP3    H231115   2.841   4.939   0.834  0.6197  0.8402  3.4901
 3234TIP3   OH231116   3.680   4.294  13.468  0.8146  0.4852 -0.4855
 3234TIP3    H131117   3.709   4.229  13.532  1.1874  0.6621 -0.4714
 3234TIP3    H231118   3.760   4.341  13.443  0.8410 -0.2180 -1.8147
 3235TIP3   OH231119   4.974   4.139  16.276  0.3228 -0.3392 -0.3290
 3235TIP3    H131120   4.889   4.181  16.288  1.0153  1.1052 -0.2799
 3235TIP3    H231121   5.035   4.194  16.325  1.3899 -0.9737 -0.9153
 3236TIP3   OH231122   4.505   6.571  14.925  0.0252  0.2850 -0.5973
 3236TIP3    H131123   4.592   6.603  14.951 -0.5669  0.1454  1.7931
 3236TIP3    H231124   4.448   6.647  14.938 -0.5650 -0.2751  0.1856
 3237TIP3   OH231125   1.430   1.689  15.654  0.0245 -1.0686  0.7398
 3237TIP3    H131126   1.438   1.645  15.569 -0.0845  0.0953  0.1011
 3237TIP3    H231127   1.481   1.635  15.714 -0.3714 -2.2269  0.0640
 3238TIP3   OH231128   6.094   0.474   3.699 -0.6665 -0.0603  0.0683
 3238TIP3    H131129   6.055   0.514   3.621 -0.4903 -1.9977 -1.1011
 3238TIP3    H231130   6.023   0.422   3.737 -0.0275 -1.3768 -0.4653
 3239TIP3   OH231131   3.168   4.888  15.002  0.5212  0.0734 -0.3816
 3239TIP3    H131132   3.163   4.795  15.028 -0.5513  0.0229 -0.7417
 3239TIP3    H231133   3.199   4.933  15.081  0.0288 -0.4540  0.1225
 3240TIP3   OH231134   2.841   3.156  15.179 -0.0873 -0.0813 -0.1096
 3240TIP3    H131135   2.884   3.102  15.246  0.1279  0.5281  0.2624
 3240TIP3    H231136   2.757   3.180  15.218 -0.4115 -0.5838 -0.4942
 3241TIP3   OH231137   1.056   6.405  11.402 -0.1230  0.0306 -0.4556
 3241TIP3    H131138   1.015   6.408  11.316  1.3119 -0.0282 -1.1660
 3241TIP3    H231139   1.121   6.335  11.396 -0.7121 -0.6930  1.0176
 3242TIP3   OH231140   0.803   5.667   4.423 -0.2312  0.2409  0.0092
 3242TIP3    H131141   0.814   5.624   4.338 -1.8527  2.9528 -1.7213
 3242TIP3    H231142   0.714   5.700   4.422  0.3692  2.1514  1.8877
 3243TIP3   OH231143   5.142   5.976   1.619 -0.0508 -0.0032  0.3329
 3243TIP3    H131144   5.079   6.040   1.585 -1.0578 -1.7359 -1.3313
 3243TIP3    H231145   5.213   5.976   1.555  1.5839  1.6906  2.0237
 3244TIP3   OH231146   5.203   4.609  15.658 -0.1946  0.2734 -0.0002
 3244TIP3    H131147   5.172   4.519  15.653 -0.1762  0.2313  0.5863
 3244TIP3    H231148   5.277   4.606  15.719 -0.4788  0.7536  0.3821
 3245TIP3   OH231149   0.821   5.453   3.483  0.2243 -0.4556  0.0802
 3245TIP3    H131150   0.798   5.430   3.572 -1.8915 -0.2636 -0.3696
 3245TIP3    H231151   0.816   5.371   3.434 -0.5980 -0.2203 -0.2350
 3246TIP3   OH231152   0.967   5.687   3.408 -0.4904  0.3181  0.4408
 3246TIP3    H131153   0.904   5.616   3.400 -0.2828  0.2209 -0.4207
 3246TIP3    H231154   0.956   5.719   3.498 -2.4620  0.9802  0.0087
 3247TIP3   OH231155   2.089   5.352  12.977  0.4982 -0.3595 -0.5281
 3247TIP3    H131156   2.132   5.356  13.062 -1.1782  1.3553  0.3024
 3247TIP3    H231157   2.119   5.431  12.932 -1.1227  0.4757 -0.2158
 3248TIP3   OH231158   6.752   3.593  16.286 -0.0956  0.3815  0.1671
 3248TIP3    H131159   6.695   3.577  16.211 -0.8499 -1.0219  0.9928
 3248TIP3    H231160   6.698   3.642  16.348 -0.3890 -0.7669  0.8627
 3249TIP3   OH231161   4.082   5.822   6.892  0.2523 -0.6621 -0.1591
 3249TIP3    H131162   4.140   5.830   6.967  0.4210 -0.1957 -0.3362
 3249TIP3    H231163   3.998   5.797   6.929 -0.0522  0.9730  0.3530
 3250TIP3   OH231164   3.120   1.661   2.612 -0.2866 -0.3219 -0.3228
 3250TIP3    H131165   3.195   1.642   2.669 -0.9276 -1.7008  0.1294
 3250TIP3    H231166   3.056   1.593   2.635 -2.8497  2.4158  1.3590
 3251TIP3   OH231167   2.096   5.741  13.030 -0.2934  0.2982 -0.2668
 3251TIP3    H131168   2.020   5.710  13.081  1.0256 -0.0447  1.5826
 3251TIP3    H231169   2.094   5.836  13.039  0.4257  0.1973  1.2494
 3252TIP3   OH231170   1.293   5.076  16.022  0.7131  0.5426  0.4243
 3252TIP3    H131171   1.307   5.041  16.110  2.0611  0.5084  0.2142
 3252TIP3    H231172   1.381   5.088  15.986  0.1817 -0.6475 -1.4056
 3253TIP3   OH231173   4.777   1.507  14.803 -0.6561  0.1378 -0.0257
 3253TIP3    H131174   4.741   1.560  14.874 -4.8788 -1.5924 -0.5367
 3253TIP3    H231175   4.790   1.420  14.842 -1.6591 -0.4660 -0.9750
 3254TIP3   OH231176   4.871   5.444  16.475 -0.4066  0.5668  0.0751
 3254TIP3    H131177   4.801   5.472  16.533 -1.3609  2.4875 -1.8855
 3254TIP3    H231178   4.857   5.493  16.394  1.8922 -0.6760 -1.1825
 3255TIP3   OH231179   4.225   2.406  12.990 -0.7043  0.2576 -0.2643
 3255TIP3    H131180   4.237   2.441  12.902  0.3050  0.9823  0.1407
 3255TIP3    H231181   4.217   2.312  12.978 -0.2571  0.3199 -1.1066
 3256TIP3   OH231182   2.710   3.199  14.418 -0.1172 -0.0488 -0.9733
 3256TIP3    H131183   2.620   3.168  14.407 -0.1351 -0.5743  0.4047
 3256TIP3    H231184   2.744   3.148  14.491  0.7803  1.2502 -0.4327
 3257TIP3   OH231185   6.238   1.749   5.952 -0.0314 -0.4446  0.1382
 3257TIP3    H131186   6.186   1.761   6.032  0.9878 -1.9061  1.0590
 3257TIP3    H231187   6.315   1.701   5.980  0.8419 -0.1140 -1.5750
 3258TIP3   OH231188   4.619   2.160   5.083 -0.3758 -0.4075  0.0997
 3258TIP3    H131189   4.643   2.187   4.995 -0.0236  0.1558  0.3667
 3258TIP3    H231190   4.696   2.111   5.115 -1.3296 -2.5390 -0.7015
 3259TIP3   OH231191   6.248   6.590   1.119  0.5686 -0.4318  0.0955
 3259TIP3    H131192   6.221   6.508   1.161 -0.1790  0.0000  0.4704
 3259TIP3    H231193   6.273   6.648   1.191  0.3866 -0.0783 -0.1221
 3260TIP3   OH231194   3.400   2.448  11.402 -0.2376  0.9793  0.0763
 3260TIP3    H131195   3.416   2.379  11.337  2.4501  0.3624  1.2778
 3260TIP3    H231196   3.317   2.423  11.443 -0.4013 -0.3360 -0.9642
 3261TIP3   OH231197   3.917   6.692   4.774  0.0933 -0.0253  0.5325
 3261TIP3    H131198   3.976   6.730   4.839  0.8177 -0.6306  0.2449
 3261TIP3    H231199   3.906   6.601   4.801 -0.6972  0.0687  0.5634
 3262TIP3   OH231200   0.804   2.600   1.926  0.4479 -0.3828  0.1382
 3262TIP3    H131201   0.717   2.614   1.963 -0.3954  0.2621 -1.9495
 3262TIP3    H231202   0.842   2.530   1.979 -0.8607  0.1330  1.8356
 3263TIP3   OH231203   1.147   1.016   2.050  0.2586 -0.3605  0.4569
 3263TIP3    H131204   1.120   1.066   1.973  1.1028 -2.1401 -1.0794
 3263TIP3    H231205   1.067   1.003   2.101 -0.1814  1.4751  0.3018
 3264TIP3   OH231206   2.216   4.302  11.599  0.1881  0.0818  0.5631
 3264TIP3    H131207   2.133   4.287  11.644 -1.0248 -0.9309 -1.7834
 3264TIP3    H231208   2.242   4.215  11.568  1.3619  0.6051  0.0253
 3265TIP3   OH231209   4.128   5.561  15.221 -0.6369 -0.6598 -0.0862
 3265TIP3    H131210   4.210   5.531  15.261 -0.4623 -0.1111 -0.0230
 3265TIP3    H231211   4.098   5.487  15.168 -0.9272 -1.4365  1.1444
 3266TIP3   OH231212   3.289   6.336  11.961  0.4468 -0.3426  0.3212
 3266TIP3    H131213   3.308   6.259  12.016  0.6594  1.5130  3.0520
 3266TIP3    H231214   3.374   6.364  11.929  0.5305 -0.5111  0.3947
 3267TIP3   OH231215   1.446   4.589  11.754  0.3878  0.0763  0.6891
 3267TIP3    H131216   1.378   4.524  11.740 -1.0636  1.7777 -0.7749
 3267TIP3    H231217   1.429   4.623  11.841 -0.2635  0.0352  0.5853
 3268TIP3   OH231218   0.110   0.240   4.237  0.1499  0.3764  0.2959
 3268TIP3    H131219   0.150   0.156   4.260  1.3519  1.2581  1.6256
 3268TIP3    H231220   0.184   0.299   4.225 -0.6193  0.9626 -2.0007
 3269TIP3   OH231221   4.110   1.623  16.222 -0.0340  0.5575 -0.0832
 3269TIP3    H131222   4.204   1.610  16.205 -0.0142  1.4003 -0.6418
 3269TIP3    H231223   4.068   1.549  16.178  0.3264  0.4493 -0.2512
 3270TIP3   OH231224   2.974   6.096  13.507 -0.1439  0.4986  0.5577
 3270TIP3    H131225   3.046   6.077  13.446  0.7038  1.5085  1.1918
 3270TIP3    H231226   2.938   6.011  13.530  0.5981 -0.0003 -0.0931
 3271TIP3   OH231227   5.997   2.952  10.998  0.7401 -0.0658 -0.2976
 3271TIP3    H131228   6.009   2.978  10.906  0.6664 -2.7268 -1.1488
 3271TIP3    H231229   5.914   2.905  10.999 -0.1613  1.4480  1.5599
 3272TIP3   OH231230   3.003   1.014  14.183 -0.2586 -0.1289 -0.7918
 3272TIP3    H131231   3.058   0.952  14.136 -0.9239 -0.0785 -1.6820
 3272TIP3    H231232   2.917   1.005  14.141 -0.8333  0.0424  0.3289
 3273TIP3   OH231233   6.137   1.305   0.953 -0.0107  0.2776 -0.1167
 3273TIP3    H131234   6.204   1.251   0.996 -1.0986  1.0369  2.8146
 3273TIP3    H231235   6.056   1.256   0.964 -0.2127 -0.0604 -2.5607
 3274TIP3   OH231236   3.555   3.567  13.505  0.6173  0.0193 -0.2924
 3274TIP3    H131237   3.546   3.474  13.529  0.9750 -0.3029 -1.3558
 3274TIP3    H231238   3.648   3.578  13.485  0.2903  0.1625 -1.8679
 3275TIP3   OH231239   3.978   1.147  11.552 -0.3092  0.2732  0.0103
 3275TIP3    H131240   3.917   1.169  11.622  0.7022  1.8350  0.4567
 3275TIP3    H231241   3.945   1.195  11.476 -0.2593  0.2362 -0.0344
 3276TIP3   OH231242   3.252   0.449   3.640  1.2622 -0.5950  0.4824
 3276TIP3    H131243   3.193   0.375   3.652  2.0154 -1.3530 -0.3264
 3276TIP3    H231244   3.210   0.521   3.686 -1.3513 -0.5232 -1.8268
 3277TIP3   OH231245   0.867   1.840   1.259  0.3220 -0.0583  0.0425
 3277TIP3    H131246   0.906   1.786   1.327 -0.4348 -1.4537 -0.5906
 3277TIP3    H231247   0.844   1.922   1.303  1.3243 -0.3051  1.0689
 3278TIP3   OH231248   4.280   2.479   1.793  0.1480  0.7467  0.0709
 3278TIP3    H131249   4.279   2.490   1.698  0.2773 -3.8567 -0.6656
 3278TIP3    H231250   4.371   2.489   1.818  0.2925  0.7885 -0.4622
 3279TIP3   OH231251   2.402   4.803  10.614  0.1520  0.7371 -0.7246
 3279TIP3    H131252   2.425   4.729  10.557 -1.7859  0.5973 -1.3824
 3279TIP3    H231253   2.340   4.767  10.677  0.8048  1.3456  0.2941
 3280TIP3   OH231254   1.345   0.114  16.903 -0.7202 -0.5066 -0.5151
 3280TIP3    H131255   1.343   0.165  16.822 -1.7006  0.6332  0.1858
 3280TIP3    H231256   1.253   0.095  16.923 -0.7530  1.2901  1.5138
 3281TIP3   OH231257   0.431   0.084   2.560 -0.8136  0.2567  0.6481
 3281TIP3    H131258   0.487   0.071   2.637 -0.5659  0.8223  0.5697
 3281TIP3    H231259   0.356   0.027   2.575 -0.5398  0.0032  1.0832
 3282TIP3   OH231260   6.154   0.126   5.019  0.7275  0.1683 -0.4326
 3282TIP3    H131261   6.193   0.165   5.098 -0.5117  1.7914 -0.5617
 3282TIP3    H231262   6.153   0.032   5.037  1.8181  0.3662  0.8607
 3283TIP3   OH231263   4.387   0.189  16.866 -0.4147  0.3464 -0.0675
 3283TIP3    H131264   4.478   0.171  16.891 -0.5532 -0.0692  0.1583
 3283TIP3    H231265   4.388   0.279  16.833 -0.2487  1.0084  1.6342
 3284TIP3   OH231266   2.913   6.181  14.949  0.0286  0.3805 -0.3303
 3284TIP3    H131267   2.982   6.161  15.013  1.7397  1.9564 -1.5652
 3284TIP3    H231268   2.927   6.118  14.878 -1.1948 -0.6675  0.3123
 3285TIP3   OH231269   3.130   0.234   6.012 -0.1197  0.7300 -0.9119
 3285TIP3    H131270   3.046   0.233   6.057 -0.8118 -3.3850 -1.9400
 3285TIP3    H231271   3.193   0.201   6.077  0.0354  0.5275 -1.1616
 3286TIP3   OH231272   4.166   2.247   0.289 -0.1216 -0.1626 -0.7305
 3286TIP3    H131273   4.091   2.195   0.320 -1.1319  0.8163 -1.4418
 3286TIP3    H231274   4.243   2.199   0.320 -0.8911 -3.2555 -3.1004
 3287TIP3   OH231275   3.131   0.471   4.162 -0.1877 -0.6296 -0.2625
 3287TIP3    H131276   3.184   0.496   4.238 -0.9961 -2.5938  1.0226
 3287TIP3    H231277   3.099   0.554   4.127  1.3715  0.4131  0.6472
 3288TIP3   OH231278   3.952   0.984  16.957 -0.1894  0.6943  0.4058
 3288TIP3    H131279   3.895   0.952  16.887 -0.1468 -0.0025  0.6779
 3288TIP3    H231280   3.896   0.986  17.034 -0.1544  1.1648  0.4210
 3289TIP3   OH231281   3.445   3.482  14.342 -0.0551 -0.1783 -0.4988
 3289TIP3    H131282   3.442   3.558  14.284  1.5611  0.6767  0.4693
 3289TIP3    H231283   3.372   3.495  14.403  0.7970  1.1459  0.2787
 3290TIP3   OH231284   0.225   5.110  12.156 -0.8643  0.0968  0.0920
 3290TIP3    H131285   0.180   5.143  12.234  1.2977  1.8837  0.7139
 3290TIP3    H231286   0.178   5.149  12.083 -0.6586  1.5375  0.6937
 3291TIP3   OH231287   1.531   0.332  15.655 -0.1923  0.2570 -0.0267
 3291TIP3    H131288   1.610   0.371  15.616 -0.3451  1.8813  1.1532
 3291TIP3    H231289   1.460   0.390  15.627 -0.8189 -0.5805 -0.2028
 3292TIP3   OH231290   4.486   0.725  13.279 -0.0561  0.4104 -0.3265
 3292TIP3    H131291   4.397   0.699  13.301  0.4980 -1.1840  0.1394
 3292TIP3    H231292   4.494   0.814  13.313 -2.0278  1.2987 -2.0187
 3293TIP3   OH231293   2.864   2.618  15.689 -0.9373 -0.5709  0.0337
 3293TIP3    H131294   2.891   2.710  15.680 -1.9064 -0.3446 -0.7148
 3293TIP3    H231295   2.882   2.579  15.604 -1.3448 -0.8530  0.0741
 3294TIP3   OH231296   1.599   1.200  13.494  0.4873  0.6345  0.2283
 3294TIP3    H131297   1.639   1.269  13.442 -3.1135  1.2567 -2.1135
 3294TIP3    H231298   1.613   1.120  13.443  1.1102  0.3712  0.8107
 3295TIP3   OH231299   6.064   0.078   0.648 -0.0234  0.5970 -0.9490
 3295TIP3    H131300   6.043   0.103   0.557 -0.9329 -1.6545 -1.4228
 3295TIP3    H231301   5.980   0.049   0.684  0.8494 -1.3368 -0.3676
 3296TIP3   OH231302   2.510   1.701   4.923 -0.3397  0.0680  0.1089
 3296TIP3    H131303   2.597   1.685   4.887 -0.2366 -2.0140  1.1363
 3296TIP3    H231304   2.517   1.786   4.966  1.4988 -0.4942  1.0108
 3297TIP3   OH231305   0.780   3.687  13.213 -0.2573  0.1617 -0.5109
 3297TIP3    H131306   0.695   3.724  13.237 -0.0993  1.8185 -2.2670
 3297TIP3    H231307   0.777   3.681  13.117  1.3796 -0.3222 -0.5546
 3298TIP3   OH231308   1.563   0.265   1.149 -0.3752  0.1087 -0.7270
 3298TIP3    H131309   1.576   0.190   1.206 -0.9320 -0.2228 -1.0194
 3298TIP3    H231310   1.608   0.337   1.192 -0.5322 -0.2069 -0.0280
 3299TIP3   OH231311   5.417   4.133   1.060 -0.3427 -0.0823  0.0110
 3299TIP3    H131312   5.434   4.223   1.031 -0.4137  0.2762  1.0220
 3299TIP3    H231313   5.357   4.098   0.995  0.8420  0.0906 -1.2221
 3300TIP3   OH231314   1.273   6.078   1.848 -0.4041 -0.0302 -0.4119
 3300TIP3    H131315   1.186   6.097   1.815 -1.0535 -1.6043  0.3013
 3300TIP3    H231316   1.307   6.010   1.789 -0.1693 -0.3038  0.0291
 3301TIP3   OH231317   0.803   6.100  12.487  0.8698  0.3060  0.1761
 3301TIP3    H131318   0.767   6.186  12.508  1.1007  0.0982  1.5254
 3301TIP3    H231319   0.808   6.055  12.572  0.4197 -1.1702 -0.5552
 3302TIP3   OH231320   2.202   3.408  11.607  0.0935 -0.0817  0.1332
 3302TIP3    H131321   2.261   3.373  11.540  1.2015 -0.7304  1.4078
 3302TIP3    H231322   2.187   3.499  11.580  1.5748  0.0579 -0.3017
 3303TIP3   OH231323   2.151   1.464   0.255  0.4167 -0.0709 -0.3129
 3303TIP3    H131324   2.083   1.414   0.210  0.3569 -1.5517  1.3044
 3303TIP3    H231325   2.176   1.409   0.329  1.8712  1.3972  0.3515
 3304TIP3   OH231326   2.592   3.307  11.606  0.2742 -0.3557 -0.4123
 3304TIP3    H131327   2.650   3.352  11.545  0.5557  1.3791  1.0415
 3304TIP3    H231328   2.527   3.264  11.550 -0.1435  2.0614 -1.9362
 3305TIP3   OH231329   0.085   0.100  16.289  0.0018 -0.1361  0.5609
 3305TIP3    H131330   0.131   0.036  16.344  1.6699  0.3561 -0.1821
 3305TIP3    H231331   0.141   0.108  16.212 -0.5670  1.6506  0.3078
 3306TIP3   OH231332   3.588   4.037   1.251 -0.1996 -0.0587  0.2798
 3306TIP3    H131333   3.555   4.120   1.284  5.4194  2.0836  1.8208
 3306TIP3    H231334   3.579   3.976   1.325 -0.5519  0.4672  0.6712
 3307TIP3   OH231335   4.576   0.970  12.908 -0.4328  0.1122  0.4363
 3307TIP3    H131336   4.575   0.874  12.911  0.4142  0.0730 -0.2706
 3307TIP3    H231337   4.566   0.991  12.815  2.2678  0.6273  0.1773
 3308TIP3   OH231338   2.204   1.695   6.383 -0.0957 -0.5058  1.0168
 3308TIP3    H131339   2.132   1.660   6.435  0.1119  0.0743  1.7030
 3308TIP3    H231340   2.257   1.744   6.445  1.0333 -1.1296  0.5635
 3309TIP3   OH231341   6.599   4.889   1.468 -0.0104 -0.3295  0.0520
 3309TIP3    H131342   6.621   4.807   1.512  0.1409 -0.0937  0.4252
 3309TIP3    H231343   6.504   4.885   1.454 -0.0066 -0.5537  0.0945
 3310TIP3   OH231344   4.046   4.403   5.336  0.1013 -0.4382 -0.0669
 3310TIP3    H131345   4.135   4.404   5.371 -0.1951  0.5341  0.6964
 3310TIP3    H231346   4.058   4.399   5.241  1.0347  1.9396 -0.1078
 3311TIP3   OH231347   0.182   2.101   6.716 -0.1048  0.2868  0.1607
 3311TIP3    H131348   0.259   2.090   6.661 -0.1159  1.2755 -0.0726
 3311TIP3    H231349   0.128   2.024   6.698  0.1713  0.2962 -0.7540
 3312TIP3   OH231350   2.821   3.887   1.082 -0.1840  0.4961 -0.7153
 3312TIP3    H131351   2.798   3.978   1.103  0.2611  0.4036  0.2302
 3312TIP3    H231352   2.806   3.839   1.164  2.6296  0.2970 -0.2176
 3313TIP3   OH231353   4.523   5.485   4.662  0.5703 -0.2483  0.1207
 3313TIP3    H131354   4.468   5.441   4.597 -0.0569 -0.6081  0.8823
 3313TIP3    H231355   4.608   5.495   4.618  0.6574 -1.9650 -0.1846
 3314TIP3   OH231356   4.657   6.094  14.049  0.1276  0.2526 -0.8847
 3314TIP3    H131357   4.699   6.157  13.990  0.5733 -0.4917 -1.3820
 3314TIP3    H231358   4.722   6.025  14.060  0.1951  0.5638  0.8086
 3315TIP3   OH231359   6.120   2.209   0.200 -0.0020  0.3725 -0.0325
 3315TIP3    H131360   6.150   2.220   0.290 -0.6378  1.7456  0.0469
 3315TIP3    H231361   6.194   2.171   0.154  1.1086  1.6520  0.6300
 3316TIP3   OH231362   1.198   1.419   3.138 -0.3511  0.0953 -0.4996
 3316TIP3    H131363   1.166   1.329   3.141 -0.1208 -0.0030 -0.8833
 3316TIP3    H231364   1.148   1.460   3.068 -2.2984  1.0135  1.3273
 3317TIP3   OH231365   1.920   2.295  16.825 -0.0657 -0.1037 -0.0546
 3317TIP3    H131366   1.940   2.207  16.857  1.2380  0.1407 -0.1489
 3317TIP3    H231367   2.005   2.333  16.803 -0.7275  0.6640 -1.4127
 3318TIP3   OH231368   4.259   1.814  13.201  0.4837  0.1191  0.5823
 3318TIP3    H131369   4.280   1.765  13.281  0.5790  2.5852  2.1903
 3318TIP3    H231370   4.344   1.840  13.166  0.4269 -0.6347 -0.1377
 3319TIP3   OH231371   0.320   3.748   1.808 -0.3181 -0.2601  0.8993
 3319TIP3    H131372   0.273   3.822   1.769  0.7677 -0.2229 -0.4214
 3319TIP3    H231373   0.312   3.679   1.742 -0.0529 -0.8415  1.4705
 3320TIP3   OH231374   0.471   3.021   5.172  0.1279 -0.4179  0.5608
 3320TIP3    H131375   0.411   3.062   5.234 -0.5524 -0.1982 -0.2354
 3320TIP3    H231376   0.534   2.974   5.228 -0.9403 -0.8898  1.4077
 3321TIP3   OH231377   3.823   2.587   0.362  0.2405 -0.2658  0.4829
 3321TIP3    H131378   3.880   2.545   0.297 -0.8608 -1.8224  0.4766
 3321TIP3    H231379   3.884   2.623   0.427  1.2637 -0.7984 -0.1537
 3322TIP3   OH231380   6.788   6.420   1.301 -0.0817  0.1708 -0.3883
 3322TIP3    H131381   6.709   6.375   1.331 -0.0360  0.9983  1.0364
 3322TIP3    H231382   6.765   6.513   1.300  0.9285  0.4550  0.3067
 3323TIP3   OH231383   0.916   1.161   1.495  0.1174  0.4270 -0.8742
 3323TIP3    H131384   0.961   1.098   1.552  2.1601  0.5143 -2.2641
 3323TIP3    H231385   0.886   1.230   1.554 -0.1351 -0.7291  0.3910
 3324TIP3   OH231386   3.606   1.417  13.727  0.3081  0.1536 -0.2315
 3324TIP3    H131387   3.676   1.412  13.663  0.8580  0.8834  0.2987
 3324TIP3    H231388   3.645   1.383  13.808  0.2486  1.1119  0.2141
 3325TIP3   OH231389   1.868   3.369   4.616  0.2254 -0.3778 -0.0856
 3325TIP3    H131390   1.899   3.459   4.626  1.0827 -0.6311 -0.3209
 3325TIP3    H231391   1.791   3.363   4.672 -0.7395  0.9174 -1.2064
 3326TIP3   OH231392   3.840   2.701  13.504 -0.2542  0.1395 -0.5197
 3326TIP3    H131393   3.774   2.769  13.520 -0.0728  0.1175  0.4167
 3326TIP3    H231394   3.852   2.660  13.590  0.9450  0.1068 -0.6943
 3327TIP3   OH231395   0.393   5.170   3.844 -0.0728 -0.5561  0.1802
 3327TIP3    H131396   0.376   5.250   3.894  0.4246 -0.1438 -0.3009
 3327TIP3    H231397   0.383   5.196   3.753  0.6027 -0.9146  0.0001
 3328TIP3   OH231398   5.466   4.238  15.804  0.2064  0.2864  0.4541
 3328TIP3    H131399   5.483   4.163  15.860 -1.6099 -1.9691 -1.7904
 3328TIP3    H231400   5.523   4.226  15.729 -1.7925 -0.3167 -1.0719
 3329TIP3   OH231401   0.595   5.630  16.194  0.7873  0.3099  0.1073
 3329TIP3    H131402   0.560   5.543  16.180 -0.7477  0.8057  0.7082
 3329TIP3    H231403   0.680   5.629  16.150  0.3292 -1.1426 -0.8000
 3330TIP3   OH231404   0.283   0.152   0.263 -0.1045 -0.4526 -0.5988
 3330TIP3    H131405   0.213   0.203   0.304  1.0246  2.3577 -1.8618
 3330TIP3    H231406   0.238   0.095   0.200 -1.3556  0.2779 -0.3964
 3331TIP3   OH231407   0.974   3.339   3.900 -0.0700 -0.0010 -0.5903
 3331TIP3    H131408   1.053   3.357   3.951  1.5942 -1.2400 -2.5639
 3331TIP3    H231409   0.952   3.248   3.919  0.7200 -0.5639 -2.1301
 3332TIP3   OH231410   1.124   2.599  17.019  0.5464  0.1933 -0.3601
 3332TIP3    H131411   1.123   2.688  16.984  0.2293  0.8023  1.1326
 3332TIP3    H231412   1.193   2.555  16.970 -0.5936  0.6624 -2.5007
 3333TIP3   OH231413   0.109   3.869   5.588 -0.2516  0.1519  0.3875
 3333TIP3    H131414   0.115   3.962   5.567 -0.3691  0.3478  1.1757
 3333TIP3    H231415   0.031   3.838   5.542  1.0484 -0.0937 -1.7458
 3334TIP3   OH231416   2.501   0.799   0.487  0.0494  0.2828 -0.0964
 3334TIP3    H131417   2.575   0.812   0.427  2.3995  0.5170  2.6637
 3334TIP3    H231418   2.540   0.765   0.567 -2.6034  2.0530  2.1280
 3335TIP3   OH231419   0.579   2.477  13.820  0.2467 -0.5887  0.0247
 3335TIP3    H131420   0.661   2.431  13.802  0.5802  0.3464 -0.9756
 3335TIP3    H231421   0.513   2.408  13.825  1.3442 -1.5455  2.7875
 3336TIP3   OH231422   1.915   3.038   1.283 -0.1275 -0.1104 -0.2835
 3336TIP3    H131423   1.932   2.945   1.291 -1.0186 -0.3860 -1.2216
 3336TIP3    H231424   2.001   3.079   1.285  0.1803 -0.7215  2.3238
 3337TIP3   OH231425   3.339   6.177   5.791 -0.1504 -0.3898 -0.6192
 3337TIP3    H131426   3.366   6.091   5.758  1.7529 -0.2428  0.4252
 3337TIP3    H231427   3.412   6.235   5.768 -0.9640  0.7342 -0.4123
 3338TIP3   OH231428   1.707   3.349  11.884 -0.1564 -0.3423 -0.1272
 3338TIP3    H131429   1.753   3.368  11.802  1.0590  0.4882  0.7126
 3338TIP3    H231430   1.720   3.427  11.937 -1.6766 -0.5226  0.5390
 3339TIP3   OH231431   0.793   6.322  16.779 -0.1960  0.1859  0.2739
 3339TIP3    H131432   0.870   6.345  16.831 -1.3455  3.7453  0.6361
 3339TIP3    H231433   0.806   6.366  16.695 -1.1078 -0.5128 -0.2536
 3340TIP3   OH231434   6.284   4.796  13.723  0.1357 -0.0209  0.0488
 3340TIP3    H131435   6.197   4.758  13.738  0.5979 -0.8225  0.7334
 3340TIP3    H231436   6.309   4.833  13.808  0.8357 -0.5775  0.0931
 3341TIP3   OH231437   1.640   6.374  10.873  0.0624 -0.0580 -0.4162
 3341TIP3    H131438   1.730   6.341  10.871  0.1777  0.2240 -0.0270
 3341TIP3    H231439   1.603   6.338  10.954  0.0520  0.4096 -0.2099
 3342TIP3   OH231440   1.556   1.756   6.583 -0.4773  0.1559  0.4789
 3342TIP3    H131441   1.540   1.835   6.531 -0.4900 -1.4352 -2.1287
 3342TIP3    H231442   1.481   1.699   6.565  1.8400 -2.4689 -2.0538
 3343TIP3   OH231443   5.345   6.078  13.274  0.3345  0.4903 -0.4070
 3343TIP3    H131444   5.299   6.025  13.339 -0.6094  1.7851  0.0298
 3343TIP3    H231445   5.289   6.073  13.196 -0.8260  2.3534  0.2318
 3344TIP3   OH231446   4.470   5.851   3.606  0.0103  0.1616  0.4037
 3344TIP3    H131447   4.539   5.797   3.568 -0.3036 -0.6249  0.9283
 3344TIP3    H231448   4.453   5.918   3.540 -0.8819 -1.4655 -1.0988
 3345TIP3   OH231449   6.077   0.061  14.136 -0.6469 -0.3158  0.6387
 3345TIP3    H131450   6.045   0.021  14.056 -0.9543  1.0384  0.0594
 3345TIP3    H231451   6.166   0.088  14.115 -1.2157  1.3468  0.2470
 3346TIP3   OH231452   0.278   5.011   1.425  0.1406  0.2511  0.3401
 3346TIP3    H131453   0.333   5.082   1.390 -0.1177  0.1149 -0.3654
 3346TIP3    H231454   0.189   5.042   1.412  0.0161 -0.3790 -0.3649
 3347TIP3   OH231455   6.170   4.080   4.139 -0.0676  0.1390 -0.1734
 3347TIP3    H131456   6.220   4.159   4.120  0.6316  0.0226  1.0757
 3347TIP3    H231457   6.113   4.069   4.064  0.6006  1.2230 -0.8632
 3348TIP3   OH231458   5.262   6.624   3.016 -0.3026 -0.6412 -0.0431
 3348TIP3    H131459   5.260   6.560   3.087  0.9812 -0.9590 -0.2512
 3348TIP3    H231460   5.345   6.671   3.028  0.0861 -0.8919 -1.4763
 3349TIP3   OH231461   6.507   6.760   4.412  0.2463 -0.2113  0.4319
 3349TIP3    H131462   6.419   6.797   4.414 -0.5342 -1.9593  0.4557
 3349TIP3    H231463   6.537   6.766   4.503  0.7199  1.5658  0.2021
 3350TIP3   OH231464   1.446   3.767  16.966  0.2324 -0.0512 -0.1040
 3350TIP3    H131465   1.464   3.861  16.957  1.9981 -0.2562  0.7994
 3350TIP3    H231466   1.400   3.759  17.049 -0.0885  0.0235 -0.2717
 3351TIP3   OH231467   4.868   5.555  13.702  0.5542 -0.0357  0.0116
 3351TIP3    H131468   4.787   5.507  13.684  2.2829 -3.2748  0.0221
 3351TIP3    H231469   4.901   5.580  13.615  0.3784 -0.2267 -0.1099
 3352TIP3   OH231470   5.088   3.506  14.121 -0.0497  0.3269 -0.1183
 3352TIP3    H131471   5.102   3.414  14.144  1.9316  0.0824 -2.0641
 3352TIP3    H231472   5.044   3.543  14.198 -0.5031 -2.1162  0.8886
 3353TIP3   OH231473   2.539   4.286  16.823 -0.0431 -0.1701 -0.0983
 3353TIP3    H131474   2.444   4.290  16.834  0.0808  1.3661  0.6400
 3353TIP3    H231475   2.570   4.375  16.839  1.6499 -0.8809  0.9863
 3354TIP3   OH231476   0.232   6.367  11.332  0.3793 -0.1960  0.3472
 3354TIP3    H131477   0.231   6.428  11.405 -0.9014  1.9372 -1.3297
 3354TIP3    H231478   0.159   6.307  11.349 -0.3756  0.7388  0.4690
 3355TIP3   OH231479   5.487   1.844  16.336  0.5690  0.0289  0.0968
 3355TIP3    H131480   5.512   1.937  16.337  0.1884  0.1916  2.7326
 3355TIP3    H231481   5.449   1.829  16.423 -2.9182 -1.7082 -1.5401
 3356TIP3   OH231482   5.248   4.174  12.780 -0.1950  0.1887  0.0114
 3356TIP3    H131483   5.237   4.269  12.778 -2.0765  0.0038 -1.6126
 3356TIP3    H231484   5.221   4.149  12.868  1.3325  1.2184  0.8166
 3357TIP3   OH231485   0.439   6.756  14.352 -0.7551  0.7603 -0.0193
 3357TIP3    H131486   0.453   6.846  14.381  2.4159  0.4601 -0.2917
 3357TIP3    H231487   0.474   6.702  14.423 -1.0751 -0.2276 -0.5920
 3358TIP3   OH231488   2.196   0.801   4.138 -0.3554 -0.0977  0.2764
 3358TIP3    H131489   2.122   0.770   4.190 -0.3033  0.1135  0.4789
 3358TIP3    H231490   2.254   0.842   4.202 -0.1440 -0.1168  0.0941
 3359TIP3   OH231491   2.047   1.212   1.476 -0.8727 -0.1860 -0.4965
 3359TIP3    H131492   2.034   1.193   1.569 -0.1163  0.4462 -0.2584
 3359TIP3    H231493   2.056   1.307   1.471  0.7517 -0.3336 -0.9873
 3360TIP3   OH231494   3.996   5.273  14.047  0.4063  0.1978 -0.1719
 3360TIP3    H131495   4.003   5.367  14.031 -1.4224  0.5013  0.5955
 3360TIP3    H231496   3.974   5.236  13.962  2.1919  0.2870 -0.7135
 3361TIP3   OH231497   6.532   4.039   5.560  0.0222 -0.2998  0.3787
 3361TIP3    H131498   6.533   4.113   5.499 -0.2138  1.5747  2.5171
 3361TIP3    H231499   6.456   3.987   5.535  0.7404 -0.4078 -1.7663
 3362TIP3   OH231500   5.133   5.425   1.093 -0.2359 -0.0519 -0.1920
 3362TIP3    H131501   5.093   5.510   1.077  1.0118  0.4809 -0.6462
 3362TIP3    H231502   5.059   5.364   1.100 -1.1872  1.1608  0.8736
 3363TIP3   OH231503   6.648   3.220  11.651  0.5283 -0.3224 -0.0950
 3363TIP3    H131504   6.682   3.236  11.563 -0.4015  1.9006 -0.1324
 3363TIP3    H231505   6.588   3.146  11.640  2.6767 -2.0856 -0.6650
 3364TIP3   OH231506   1.646   1.770   4.772  0.1650 -0.6481 -0.2718
 3364TIP3    H131507   1.626   1.855   4.812  1.6204 -1.3018  2.0575
 3364TIP3    H231508   1.714   1.790   4.708 -1.6128  0.3134 -1.9565
 3365TIP3   OH231509   1.203   6.595   1.361  0.1677  0.3585 -0.3264
 3365TIP3    H131510   1.146   6.522   1.384  0.0507  0.2480 -0.9615
 3365TIP3    H231511   1.292   6.560   1.371  0.1627  0.7034  1.2368
 3366TIP3   OH231512   5.037   4.439  15.501 -0.2582  0.2224 -0.0540
 3366TIP3    H131513   5.102   4.495  15.459  0.9786 -0.5520  0.7596
 3366TIP3    H231514   5.086   4.362  15.529 -1.9908 -1.5098 -1.5287
 3367TIP3   OH231515   5.117   3.665  15.922 -0.5060  0.0121 -0.0124
 3367TIP3    H131516   5.168   3.682  16.002 -0.9143 -2.2934  0.8134
 3367TIP3    H231517   5.029   3.696  15.942 -0.5489 -0.3400  0.3459
 3368TIP3   OH231518   2.988   3.453  11.194 -0.2919  0.0033 -0.3898
 3368TIP3    H131519   3.083   3.447  11.189 -0.1544  1.1491  0.5335
 3368TIP3    H231520   2.956   3.380  11.141  1.1020 -0.7417 -0.2280
 3369TIP3   OH231521   4.975   1.536   6.096 -0.1916  0.6644 -0.0448
 3369TIP3    H131522   4.924   1.553   6.176  1.4145  2.6337  0.6684
 3369TIP3    H231523   4.994   1.623   6.061  1.9496  0.0045 -0.7089
 3370TIP3   OH231524   1.297   5.323  16.371 -0.4025  0.1006 -0.1091
 3370TIP3    H131525   1.240   5.253  16.402 -0.6457  0.4638  0.2717
 3370TIP3    H231526   1.386   5.287  16.378 -0.6060 -0.7428 -1.4063
 3371TIP3   OH231527   3.484   0.086  15.426 -0.4083 -0.3982  0.0120
 3371TIP3    H131528   3.430   0.163  15.444 -1.2248 -1.1067  0.6928
 3371TIP3    H231529   3.509   0.052  15.512 -0.1021 -0.9293 -0.2723
 3372TIP3   OH231530   1.717   0.130  14.035 -0.0495 -0.1363 -0.5097
 3372TIP3    H131531   1.746   0.207  13.986 -1.5589  0.9601  0.2336
 3372TIP3    H231532   1.633   0.156  14.072  1.1024 -0.8258  2.8932
 3373TIP3   OH231533   3.704   5.445  12.537 -0.3069 -0.3800  0.3068
 3373TIP3    H131534   3.776   5.395  12.498 -1.3215 -2.2655  0.7530
 3373TIP3    H231535   3.626   5.414  12.490 -0.9367  1.0938  0.3367
 3374TIP3   OH231536   1.296   2.186   0.442 -0.2095 -0.3069 -0.1777
 3374TIP3    H131537   1.320   2.237   0.520 -2.0910  0.6121 -0.1458
 3374TIP3    H231538   1.201   2.179   0.447 -0.2390 -1.3795 -1.7208
 3375TIP3   OH231539   3.658   5.888  15.105  0.6318  0.5528 -1.2148
 3375TIP3    H131540   3.607   5.950  15.157 -0.0704 -0.5599 -0.5473
 3375TIP3    H231541   3.718   5.848  15.168 -0.4987 -1.0991 -1.1309
 3376TIP3   OH231542   5.940   1.139   1.028 -0.3726  0.1624 -0.1395
 3376TIP3    H131543   5.895   1.105   1.105  1.7440  0.2658  1.2247
 3376TIP3    H231544   6.022   1.091   1.025  1.7006  3.3498  0.5136
 3377TIP3   OH231545   0.477   3.291  16.646 -0.3107 -0.7285  0.1739
 3377TIP3    H131546   0.414   3.318  16.713 -0.4341  1.1107 -0.6077
 3377TIP3    H231547   0.423   3.262  16.572 -0.3009  0.5693 -0.3860
 3378TIP3   OH231548   6.360   3.780  12.788 -0.2644 -0.2885 -0.0280
 3378TIP3    H131549   6.268   3.775  12.766 -0.0449 -0.6987 -0.8841
 3378TIP3    H231550   6.380   3.696  12.830 -0.3201 -0.1326  0.3110
 3379TIP3   OH231551   0.404   3.114  14.015  0.5357 -0.6325  0.0099
 3379TIP3    H131552   0.318   3.153  14.030  0.3754  0.4392 -3.1430
 3379TIP3    H231553   0.461   3.157  14.080 -1.0440 -0.6330  1.4763
 3380TIP3   OH231554   1.021   2.651   2.388  0.5561 -0.6527  0.2599
 3380TIP3    H131555   1.087   2.719   2.397 -0.9763  0.8431  0.6323
 3380TIP3    H231556   1.009   2.642   2.293 -0.8831  1.3535  0.1755
 3381TIP3   OH231557   5.337   0.237   3.876  0.1094  0.4090  0.2105
 3381TIP3    H131558   5.283   0.210   3.950 -0.4356  1.0481  0.0610
 3381TIP3    H231559   5.290   0.312   3.839  0.8680  0.6913 -0.1982
 3382TIP3   OH231560   0.286   2.714   4.516  0.2623  0.0710 -0.5693
 3382TIP3    H131561   0.372   2.742   4.548  1.4260 -3.3179 -0.2436
 3382TIP3    H231562   0.284   2.744   4.425  2.9024 -1.6585 -1.3244
 3383TIP3   OH231563   1.859   6.464  17.058 -0.5773 -0.0164 -0.8198
 3383TIP3    H131564   1.938   6.517  17.061 -1.4089  1.3311 -1.6139
 3383TIP3    H231565   1.863   6.408  17.136 -0.2826  2.1148  0.7742
 3384TIP3   OH231566   4.983   4.650   2.152 -0.3562 -0.8901 -0.4216
 3384TIP3    H131567   4.964   4.593   2.226 -1.4336 -1.1977 -0.9108
 3384TIP3    H231568   5.064   4.615   2.114  0.9698  0.0701  1.3596
 3385TIP3   OH231569   3.381   5.736   2.077 -0.2562 -0.0389  0.4632
 3385TIP3    H131570   3.432   5.743   2.159  0.5072  1.5925 -0.1055
 3385TIP3    H231571   3.325   5.813   2.077 -0.2924 -0.0519 -0.5181
 3386TIP3   OH231572   4.540   0.356  14.198 -0.0104  0.1424  0.4241
 3386TIP3    H131573   4.506   0.432  14.152  0.1952 -0.1411 -0.2074
 3386TIP3    H231574   4.496   0.357  14.283  0.7004  1.4942  0.7982
 3387TIP3   OH231575   3.741   5.989  15.582 -0.1779 -0.2625  0.6242
 3387TIP3    H131576   3.755   6.016  15.492  0.7029 -0.6141  0.6565
 3387TIP3    H231577   3.772   6.063  15.634 -1.2815  0.2096  0.6380
 3388TIP3   OH231578   5.351   1.180   6.598 -0.7582 -0.4430 -0.2158
 3388TIP3    H131579   5.442   1.195   6.623 -0.7241  0.1858 -0.6744
 3388TIP3    H231580   5.352   1.098   6.549 -0.3978 -0.3155 -0.4215
 3389TIP3   OH231581   1.159   0.353  12.359 -0.1981 -0.1346 -0.1341
 3389TIP3    H131582   1.230   0.392  12.410 -1.0694 -1.4178  2.2423
 3389TIP3    H231583   1.202   0.316  12.282  1.1406  2.2015 -0.6069
 3390TIP3   OH231584   3.062   0.151   1.022 -0.5210  0.2529  0.1556
 3390TIP3    H131585   3.034   0.185   1.107  2.7370  1.8454  0.7293
 3390TIP3    H231586   3.006   0.196   0.959 -3.2004 -1.1769  1.3457
 3391TIP3   OH231587   3.918   2.017  11.565 -0.6132  0.2717  0.5707
 3391TIP3    H131588   3.977   1.967  11.509 -1.7212  0.3283 -0.7008
 3391TIP3    H231589   3.904   1.961  11.641  1.0490  0.2592  0.9046
 3392TIP3   OH231590   2.205   3.204  13.041  0.3197  0.1832 -0.5690
 3392TIP3    H131591   2.254   3.268  12.989  0.9059  0.1014 -0.1347
 3392TIP3    H231592   2.233   3.219  13.131 -2.0030  1.4938  0.0079
 3393TIP3   OH231593   5.515   4.032  14.207  0.1528 -0.3817  0.2324
 3393TIP3    H131594   5.520   3.980  14.287  2.1978 -2.5199 -1.1630
 3393TIP3    H231595   5.598   4.079  14.204 -0.5050  0.7988  0.0390
 3394TIP3   OH231596   6.338   4.201   0.437  0.0808  0.4713 -0.2349
 3394TIP3    H131597   6.356   4.213   0.344 -0.9023  1.3539 -0.3330
 3394TIP3    H231598   6.354   4.287   0.476 -0.4793  0.3662  0.2436
 3395TIP3   OH231599   5.927   1.722  16.299  0.5101  0.2406  0.4131
 3395TIP3    H131600   5.862   1.672  16.347  0.8805  0.4512  1.1372
 3395TIP3    H231601   5.888   1.733  16.212 -1.1889  1.7823  1.2860
 3396TIP3   OH231602   3.552   0.093   5.189  0.0695  0.2653  0.6624
 3396TIP3    H131603   3.538   0.015   5.136  0.8394 -1.0794  2.3383
 3396TIP3    H231604   3.644   0.117   5.173  0.1010  0.2743  0.8525
 3397TIP3   OH231605   2.907   2.300  12.971 -0.2594  0.4672 -0.4112
 3397TIP3    H131606   2.944   2.375  13.017 -0.5641  0.6332 -0.4338
 3397TIP3    H231607   2.894   2.234  13.039  1.8106 -0.2956 -0.6829
 3398TIP3   OH231608   1.009   2.984   2.571  0.1557 -0.2852 -0.5629
 3398TIP3    H131609   1.067   2.959   2.499  0.5797  1.2783 -0.7969
 3398TIP3    H231610   1.068   3.013   2.640 -0.2242 -2.1266  0.6266
 3399TIP3   OH231611   1.816   6.444   1.079 -0.3726  0.0954 -0.2119
 3399TIP3    H131612   1.764   6.398   1.144 -0.9711  0.9374 -0.0757
 3399TIP3    H231613   1.752   6.481   1.019  0.1271  0.2075 -0.6871
 3400TIP3   OH231614   4.713   6.661  15.893  0.3082 -0.6696 -0.3328
 3400TIP3    H131615   4.742   6.743  15.853  1.6475 -0.3772  1.1639
 3400TIP3    H231616   4.783   6.598  15.875 -0.1320 -1.1552 -0.3905
 3401TIP3   OH231617   5.345   5.608   2.795 -0.2028 -0.5970  0.0667
 3401TIP3    H131618   5.272   5.551   2.771 -1.8978  0.4640  2.2755
 3401TIP3    H231619   5.320   5.695   2.763 -1.5107  0.4073  3.3832
 3402TIP3   OH231620   5.743   2.733   0.755  0.3538 -0.9111  0.2573
 3402TIP3    H131621   5.831   2.766   0.738  0.1297 -0.8675 -0.9111
 3402TIP3    H231622   5.690   2.765   0.682 -0.8679 -0.1253  1.4243
 3403TIP3   OH231623   6.756   0.560   3.819  0.0227  0.1119  0.0415
 3403TIP3    H131624   6.785   0.504   3.891 -1.1565 -0.7555 -0.1107
 3403TIP3    H231625   6.751   0.501   3.744  2.8695  1.3431 -1.2407
 3404TIP3   OH231626   2.007   5.428  14.571 -0.0155  0.3271  0.1692
 3404TIP3    H131627   1.917   5.460  14.575 -0.0917  0.1295  0.0218
 3404TIP3    H231628   2.058   5.503  14.540 -0.0544  0.5885  0.7218
 3405TIP3   OH231629   6.079   4.400  14.712 -0.4940 -0.0596  0.1199
 3405TIP3    H131630   5.985   4.405  14.694 -0.5459 -0.5772  0.2475
 3405TIP3    H231631   6.121   4.411  14.627 -0.6547  0.6064  0.1193
 3406TIP3   OH231632   1.895   1.259  10.551 -0.1045 -0.6460  0.1403
 3406TIP3    H131633   1.836   1.333  10.537  0.4677 -0.4301 -1.2184
 3406TIP3    H231634   1.948   1.285  10.626 -0.6863 -0.1816  0.3993
 3407TIP3   OH231635   1.767   0.455   5.104  0.3269  0.4386  0.0186
 3407TIP3    H131636   1.775   0.402   5.184 -0.9160  0.9284  0.4802
 3407TIP3    H231637   1.816   0.535   5.123  1.8266 -0.2979 -0.5159
 3408TIP3   OH231638   2.434   3.871  14.362  0.1369  0.4703 -0.2149
 3408TIP3    H131639   2.341   3.847  14.364  0.0703  0.5293  3.0958
 3408TIP3    H231640   2.435   3.965  14.377  0.7246  0.3301  0.7023
 3409TIP3   OH231641   0.028   1.594   5.726 -0.2704  0.1075  0.3975
 3409TIP3    H131642   0.104   1.614   5.780  0.1773 -1.6652  0.4994
 3409TIP3    H231643   0.002   1.506   5.754 -2.6764  0.8292  0.7287
 3410TIP3   OH231644   2.544   1.985  11.044 -0.3385 -0.3648 -0.5217
 3410TIP3    H131645   2.495   2.064  11.064 -0.7024  0.0651 -2.8637
 3410TIP3    H231646   2.591   2.005  10.963  3.1082 -1.0367  1.1059
 3411TIP3   OH231647   3.094   6.751  13.550 -0.1925 -0.0177 -0.1235
 3411TIP3    H131648   3.094   6.671  13.498 -0.8749  0.1503 -0.3886
 3411TIP3    H231649   3.019   6.801  13.518 -1.2504 -0.3433  1.6904
 3412TIP3   OH231650   3.543   2.296  16.104 -0.0498 -0.6368  0.2260
 3412TIP3    H131651   3.512   2.214  16.142 -0.7514 -0.8178 -0.7153
 3412TIP3    H231652   3.612   2.270  16.044  0.9882 -0.3585  1.2679
 3413TIP3   OH231653   1.069   0.387   4.563  0.0410 -0.0207 -0.2194
 3413TIP3    H131654   1.161   0.363   4.561 -0.3246 -1.7520  1.2368
 3413TIP3    H231655   1.042   0.372   4.654 -1.1790  2.5190 -0.0884
 3414TIP3   OH231656   1.421   3.880   6.631  0.6663  0.3650 -0.0422
 3414TIP3    H131657   1.432   3.797   6.678  1.0871  0.7034  0.4700
 3414TIP3    H231658   1.366   3.932   6.689 -2.3586 -0.6545 -1.7552
 3415TIP3   OH231659   5.893   4.772   5.473 -0.1179 -0.0695  0.3396
 3415TIP3    H131660   5.900   4.704   5.540 -0.5456 -0.4000  0.0507
 3415TIP3    H231661   5.959   4.837   5.499  0.1486 -0.4858  0.7365
 3416TIP3   OH231662   4.378   5.255  15.363 -0.0216 -0.1299  0.9195
 3416TIP3    H131663   4.314   5.219  15.424 -0.2895 -1.4930 -0.1040
 3416TIP3    H231664   4.438   5.306  15.418  0.2462 -1.9810  2.4622
 3417TIP3   OH231665   2.294   2.190   4.923 -0.2290  0.5318 -0.3410
 3417TIP3    H131666   2.339   2.146   4.995 -0.1657 -1.0287 -1.2838
 3417TIP3    H231667   2.318   2.282   4.933 -0.0648  0.3331  1.4898
 3418TIP3   OH231668   3.608   4.994   1.448  0.0013 -0.6088  0.0568
 3418TIP3    H131669   3.624   4.912   1.403 -0.2489 -0.2785 -0.6412
 3418TIP3    H231670   3.662   4.989   1.527 -0.1861 -1.5293  0.1316
 3419TIP3   OH231671   0.998   3.812  11.014 -0.4197 -0.7420  0.1544
 3419TIP3    H131672   1.073   3.760  10.985  0.1310  0.2073 -0.1660
 3419TIP3    H231673   0.999   3.803  11.110  0.0454 -0.8126  0.1478
 3420TIP3   OH231674   4.044   3.049   5.248  0.2645  0.0353  0.3128
 3420TIP3    H131675   3.971   2.994   5.222  1.0088 -0.9811  0.3205
 3420TIP3    H231676   4.110   3.036   5.179  0.6804  0.4667  0.6185
 3421TIP3   OH231677   5.932   1.387  14.819  0.2504 -0.0475 -0.2316
 3421TIP3    H131678   5.887   1.394  14.735  0.5113  0.6866 -0.3232
 3421TIP3    H231679   6.015   1.345  14.798  0.5743  0.6817 -0.4550
 3422TIP3   OH231680   2.592   4.748  12.510  0.0953 -0.5183  0.3484
 3422TIP3    H131681   2.559   4.838  12.519 -0.2996 -0.5368 -0.7706
 3422TIP3    H231682   2.591   4.731  12.416  2.8393 -0.7281  0.2884
 3423TIP3   OH231683   4.728   2.022   4.670  0.1334  0.9232  0.3247
 3423TIP3    H131684   4.639   1.990   4.655  0.5873 -0.8422  1.0905
 3423TIP3    H231685   4.716   2.106   4.715 -1.1434  0.8146  0.2282
 3424TIP3   OH231686   0.845   3.595  13.692  0.2103  0.2209  0.2579
 3424TIP3    H131687   0.755   3.612  13.664  0.9770  1.4972 -1.6342
 3424TIP3    H231688   0.838   3.584  13.787 -1.8068  1.2850  0.3061
 3425TIP3   OH231689   2.421   0.946  12.849  0.2247 -0.5218 -0.1391
 3425TIP3    H131690   2.463   1.002  12.914 -2.3495 -0.3522  1.5125
 3425TIP3    H231691   2.380   0.877  12.900 -0.5029 -1.3231 -1.7434
 3426TIP3   OH231692   1.974   3.298  11.162 -0.2502 -0.3253  0.3732
 3426TIP3    H131693   2.026   3.289  11.082 -0.0464  2.1126  0.1416
 3426TIP3    H231694   1.899   3.351  11.136 -0.1162  0.6207  1.7783
 3427TIP3   OH231695   1.150   0.416   4.852 -0.4325 -0.3909 -0.1146
 3427TIP3    H131696   1.145   0.460   4.937  0.9175 -1.6624  0.6690
 3427TIP3    H231697   1.230   0.365   4.857  0.9854  1.3368 -3.0755
 3428TIP3   OH231698   3.002   0.692  13.769  0.0270 -0.2442 -0.5445
 3428TIP3    H131699   3.020   0.636  13.693  1.3445  1.3194 -1.4340
 3428TIP3    H231700   2.925   0.652  13.810 -0.8674 -1.0234 -2.8309
 3429TIP3   OH231701   4.814   3.685   0.437  0.0668  0.6219 -0.3251
 3429TIP3    H131702   4.742   3.629   0.408 -0.3347  0.1650  1.4665
 3429TIP3    H231703   4.794   3.771   0.400 -1.8701  0.7004  0.8044
 3430TIP3   OH231704   0.249   5.672   2.393  0.3531 -0.0517 -0.0637
 3430TIP3    H131705   0.295   5.680   2.309  0.2671 -0.7024 -0.1784
 3430TIP3    H231706   0.163   5.711   2.377  0.9133  1.3516  0.2091
 3431TIP3   OH231707   0.402   0.821   2.113 -0.3921 -0.4723  0.0569
 3431TIP3    H131708   0.469   0.844   2.050  0.7658 -3.2919  0.1319
 3431TIP3    H231709   0.336   0.774   2.062 -0.8565 -0.3091  0.4937
 3432TIP3   OH231710   3.380   5.251  13.089  0.8076 -0.3884 -0.3309
 3432TIP3    H131711   3.359   5.197  13.013 -5.0619  0.1677  0.4458
 3432TIP3    H231712   3.359   5.196  13.164 -0.3739  1.2673  0.6047
 3433TIP3   OH231713   0.789   0.446   5.900 -0.1038  0.7040 -0.5862
 3433TIP3    H131714   0.873   0.431   5.943 -0.0241  4.2489  0.8283
 3433TIP3    H231715   0.724   0.426   5.967 -0.3214  0.0683 -0.9755
 3434TIP3   OH231716   0.351   2.367  12.894 -0.2818  0.5218  0.0710
 3434TIP3    H131717   0.270   2.356  12.844 -0.7767  0.3353  0.9021
 3434TIP3    H231718   0.343   2.453  12.935  0.3118  0.8579 -0.4875
 3435TIP3   OH231719   4.729   6.435  14.476  0.0549 -0.1167  0.5655
 3435TIP3    H131720   4.659   6.490  14.511  1.6698  0.2262  3.5607
 3435TIP3    H231721   4.709   6.427  14.383 -3.1652  1.0918  1.0404
 3436TIP3   OH231722   3.946   0.026   3.023  0.6000 -0.1563  0.3946
 3436TIP3    H131723   3.862   0.058   3.056  0.2458 -1.6112  1.0265
 3436TIP3    H231724   3.939  -0.069   3.032  1.3003 -0.4897 -2.0120
 3437TIP3   OH231725   3.726   0.825  15.741  0.5565  0.0818  0.3389
 3437TIP3    H131726   3.654   0.765  15.724  1.1853 -0.4723 -0.4957
 3437TIP3    H231727   3.710   0.859  15.829 -1.3600  0.8944 -0.2857
 3438TIP3   OH231728   0.350   2.449   1.843  0.3746  0.1703  0.0122
 3438TIP3    H131729   0.305   2.438   1.759 -0.2068 -1.4712  0.5132
 3438TIP3    H231730   0.377   2.361   1.868 -0.1617  0.4981  1.9336
 3439TIP3   OH231731   6.286   2.587  14.622 -0.3527 -0.1149  0.2689
 3439TIP3    H131732   6.266   2.519  14.558  1.9972 -2.0107  1.3763
 3439TIP3    H231733   6.372   2.563  14.657  0.4757  3.3141  0.9559
 3440TIP3   OH231734   0.106   1.102   2.785 -0.1124 -0.0989 -0.7279
 3440TIP3    H131735   0.175   1.140   2.731  1.5603 -1.2933  0.4381
 3440TIP3    H231736   0.058   1.045   2.726 -0.0321  0.6523 -1.5418
 3441TIP3   OH231737   0.829   2.294  12.417 -0.5086 -0.1731 -0.5493
 3441TIP3    H131738   0.921   2.318  12.432 -0.2106  0.0612 -2.4555
 3441TIP3    H231739   0.784   2.317  12.498  0.6790  2.0605 -0.4608
 3442TIP3   OH231740   2.067   5.376   0.048 -0.0710 -0.1085  0.2674
 3442TIP3    H131741   1.990   5.399   0.100  0.5455  2.6888  0.1087
 3442TIP3    H231742   2.140   5.380   0.110  0.3814  0.9851 -0.3024
 3443TIP3   OH231743   3.943   5.425  14.872  0.6555 -0.1994  0.1662
 3443TIP3    H131744   4.009   5.434  14.804 -0.5696  0.3333 -0.9951
 3443TIP3    H231745   3.895   5.345  14.848  0.3866 -0.1595  0.5552
 3444TIP3   OH231746   5.062   4.800   3.109 -0.5049 -0.5131  0.7046
 3444TIP3    H131747   5.048   4.889   3.078  0.6665 -1.0914 -1.7553
 3444TIP3    H231748   5.142   4.771   3.064 -0.7475 -2.7287  1.5691
 3445TIP3   OH231749   1.538   1.538   3.163 -0.3939  0.4397 -0.3925
 3445TIP3    H131750   1.505   1.544   3.073 -0.0216  1.3414 -0.4773
 3445TIP3    H231751   1.460   1.548   3.217 -0.5066  0.7659 -0.6090
 3446TIP3   OH231752   6.219   4.005   5.887  0.2488  0.2870 -0.1348
 3446TIP3    H131753   6.134   4.002   5.930  0.6090  1.7312  0.7373
 3446TIP3    H231754   6.242   3.913   5.872 -1.2694 -0.1312 -0.0270
 3447TIP3   OH231755   2.313   4.725  13.671 -0.0824  0.8063  0.5209
 3447TIP3    H131756   2.248   4.795  13.675 -0.5639  0.3678  0.5011
 3447TIP3    H231757   2.277   4.662  13.608 -0.1404  0.0558  1.2845
 3448TIP3   OH231758   0.130   3.979  13.281  0.4197  0.0560  0.3105
 3448TIP3    H131759   0.078   3.917  13.230 -0.3007  0.0977  0.9679
 3448TIP3    H231760   0.216   3.938  13.288  0.3493 -0.2217 -0.4247
 3449TIP3   OH231761   5.805   0.977  16.050  0.2862  0.2631 -0.2588
 3449TIP3    H131762   5.836   0.896  16.010 -1.3255 -0.5243 -0.0303
 3449TIP3    H231763   5.884   1.021  16.081  1.1566 -1.5659  0.2488
 3450TIP3   OH231764   0.390   0.437   2.759  0.0832  0.0322 -0.0816
 3450TIP3    H131765   0.396   0.438   2.664  0.5839  2.4176 -0.0812
 3450TIP3    H231766   0.305   0.396   2.777 -1.2588  1.9443 -1.6770
 3451TIP3   OH231767   4.155   0.421   2.741 -0.1687  0.4102 -0.4498
 3451TIP3    H131768   4.144   0.341   2.793 -1.7447  0.6286 -0.3972
 3451TIP3    H231769   4.206   0.479   2.798  0.9241 -0.5096 -0.4587
 3452TIP3   OH231770   5.452   6.191   0.329  0.0266 -0.0227 -0.3840
 3452TIP3    H131771   5.477   6.247   0.256 -0.4710 -0.1057 -0.6218
 3452TIP3    H231772   5.526   6.130   0.339  0.0828 -0.0334 -0.8413
 3453TIP3   OH231773   0.398   4.280  16.926  0.4721 -0.3043 -0.0164
 3453TIP3    H131774   0.476   4.325  16.893 -0.2049  1.2830  0.4763
 3453TIP3    H231775   0.370   4.225  16.852  1.2423  0.1726 -0.6882
 3454TIP3   OH231776   2.780   5.870   5.568  0.6361  0.4545 -0.1803
 3454TIP3    H131777   2.764   5.855   5.661 -0.5664  1.0293 -0.2782
 3454TIP3    H231778   2.699   5.909   5.535  0.8230 -0.3017 -1.6057
 3455TIP3   OH231779   5.905   4.157  11.601  0.0785 -0.1457  0.5340
 3455TIP3    H131780   5.814   4.130  11.591 -0.0712  0.9672 -1.7576
 3455TIP3    H231781   5.954   4.098  11.545  0.4865  0.5633  0.1307
 3456TIP3   OH231782   4.333   6.118  16.867  0.0758  0.6736  0.4476
 3456TIP3    H131783   4.301   6.031  16.842  0.2100  0.6646  0.3097
 3456TIP3    H231784   4.294   6.133  16.953  1.1281 -0.1073  1.0909
 3457TIP3   OH231785   6.206   2.982   1.303  0.4369 -0.3221 -0.1016
 3457TIP3    H131786   6.228   2.953   1.391  1.0664 -0.3294 -0.2534
 3457TIP3    H231787   6.256   3.063   1.292 -1.7092  1.1886  0.5263
 3458TIP3   OH231788   4.742   5.292  16.042  0.6424 -0.9499 -0.1371
 3458TIP3    H131789   4.661   5.329  16.007  0.5365 -1.8615 -0.8841
 3458TIP3    H231790   4.713   5.224  16.103  0.8042 -2.6185 -1.8425
 3459TIP3   OH231791   5.289   6.108  12.189  0.1557  0.4927  0.8661
 3459TIP3    H131792   5.224   6.038  12.190 -0.7529  1.3377  1.3605
 3459TIP3    H231793   5.239   6.188  12.174  1.2668  0.9734 -0.5269
 3460TIP3   OH231794   2.564   5.570   5.311 -0.0765  0.3124  0.2670
 3460TIP3    H131795   2.489   5.610   5.267  0.4265  0.9987  0.0033
 3460TIP3    H231796   2.526   5.504   5.369 -0.7502 -0.9497 -1.5058
 3461TIP3   OH231797   3.830   0.103  12.492 -0.0465 -0.4843  0.1823
 3461TIP3    H131798   3.841   0.017  12.451 -0.1127  0.7743 -2.7676
 3461TIP3    H231799   3.902   0.155  12.458 -0.3175  0.7902  1.4685
 3462TIP3   OH231800   5.461   2.106   0.353 -0.0433 -0.0196  0.0619
 3462TIP3    H131801   5.435   2.067   0.437  1.2052 -0.3466  0.3319
 3462TIP3    H231802   5.487   2.031   0.300 -2.0759  0.0640 -1.1216
 3463TIP3   OH231803   3.085   4.853   1.084 -0.7452  0.6105  0.1590
 3463TIP3    H131804   3.024   4.837   1.012 -0.0789 -0.0403 -0.2769
 3463TIP3    H231805   3.127   4.768   1.098 -0.5530  0.8471  1.0201
 3464TIP3   OH231806   5.544   3.213  13.013 -0.3798  0.5856 -0.2064
 3464TIP3    H131807   5.524   3.276  12.943  1.7819  0.9045 -0.5942
 3464TIP3    H231808   5.475   3.147  13.006 -1.8271  2.0815 -0.7865
 3465TIP3   OH231809   2.107   5.123   2.901  0.5976  0.4792 -0.5638
 3465TIP3    H131810   2.057   5.149   2.979  0.9113  1.3468 -0.6398
 3465TIP3    H231811   2.150   5.204   2.872  1.7582 -0.1608 -0.7046
 3466TIP3   OH231812   5.435   1.828  16.609  0.0640  0.3549  0.4468
 3466TIP3    H131813   5.512   1.841  16.664  1.6103  1.0340 -1.7298
 3466TIP3    H231814   5.364   1.871  16.656  1.1138  0.2049  2.2578
 3467TIP3   OH231815   4.544   1.639   2.353 -0.0113 -0.0782 -0.3921
 3467TIP3    H131816   4.535   1.562   2.297 -0.7100 -0.5699  0.3560
 3467TIP3    H231817   4.513   1.712   2.300  1.0571 -0.2260 -1.2598
 3468TIP3   OH231818   2.014   1.661  12.735 -0.1663  0.5091  0.0484
 3468TIP3    H131819   2.094   1.639  12.689 -0.9591 -1.6826 -0.4106
 3468TIP3    H231820   1.981   1.739  12.690 -0.0844 -0.6180 -2.1028
 3469TIP3   OH231821   1.139   3.382   4.139  0.6483 -0.3668 -0.4850
 3469TIP3    H131822   1.229   3.399   4.168  1.0375 -1.9855 -0.6480
 3469TIP3    H231823   1.122   3.292   4.166 -1.0386  0.0014 -0.2263
 3470TIP3   OH231824   0.927   3.554   2.694  0.6976  0.1246 -0.0528
 3470TIP3    H131825   1.008   3.525   2.652 -0.1303 -1.4522 -0.6590
 3470TIP3    H231826   0.876   3.593   2.623 -0.1698 -1.3626 -0.2819
 3471TIP3   OH231827   4.896   1.506  13.010  0.1557 -0.6147  0.5247
 3471TIP3    H131828   4.969   1.549  12.967 -2.9289  4.5446 -0.4543
 3471TIP3    H231829   4.889   1.421  12.968  2.9174  0.4717 -2.4964
 3472TIP3   OH231830   3.617   5.176   4.830  0.5685  0.6258  0.4762
 3472TIP3    H131831   3.702   5.145   4.800 -0.7741 -1.8764 -1.1352
 3472TIP3    H231832   3.597   5.251   4.774  1.5610  0.9943  0.6140
 3473TIP3   OH231833   4.915   0.484   5.058  0.0701 -0.4016  0.6265
 3473TIP3    H131834   5.002   0.513   5.031  0.3506 -1.4239  0.3636
 3473TIP3    H231835   4.905   0.398   5.016 -1.7268  0.3900 -0.6832
 3474TIP3   OH231836   5.775   4.003   2.125  0.0406 -0.1151 -0.0580
 3474TIP3    H131837   5.845   4.030   2.066  0.3848 -1.1039 -0.1167
 3474TIP3    H231838   5.799   3.914   2.152  0.2377  0.5422  2.1034
 3475TIP3   OH231839   0.199   5.129   4.463 -0.2670  0.2587 -0.3838
 3475TIP3    H131840   0.186   5.066   4.534 -0.1904  0.0507 -0.5533
 3475TIP3    H231841   0.117   5.178   4.459 -1.1780 -1.2555 -1.6512
 3476TIP3   OH231842   5.667   0.578  14.664  0.4672 -0.4863  0.2913
 3476TIP3    H131843   5.620   0.612  14.740  0.4696  1.9988 -0.7324
 3476TIP3    H231844   5.721   0.507  14.700  0.7390  0.8191  2.7016
 3477TIP3   OH231845   2.778   6.044   0.423  0.1923  0.0773 -0.3835
 3477TIP3    H131846   2.815   6.033   0.336  0.3116  2.2994 -0.6763
 3477TIP3    H231847   2.849   6.080   0.475 -0.1993 -0.1696  0.3392
 3478TIP3   OH231848   5.757   5.436   4.286 -0.2880 -0.4341  0.3700
 3478TIP3    H131849   5.787   5.367   4.228 -0.5267 -1.0668  0.9853
 3478TIP3    H231850   5.734   5.508   4.228 -0.0436 -0.8725 -0.2795
 3479TIP3   OH231851   1.276   3.524   3.050  0.1178 -0.7076 -0.2737
 3479TIP3    H131852   1.339   3.453   3.038  0.7774 -0.2352  0.3042
 3479TIP3    H231853   1.198   3.495   3.003  0.9977 -0.9905 -1.6146
 3480TIP3   OH231854   2.647   4.194   2.156  0.3423 -0.2999 -0.1574
 3480TIP3    H131855   2.642   4.150   2.241  0.4996  0.0846  0.0607
 3480TIP3    H231856   2.571   4.252   2.154  1.5785  1.4748  0.7831
 3481TIP3   OH231857   5.270   0.094   2.807 -0.5234 -0.2791  0.2914
 3481TIP3    H131858   5.285   0.053   2.722 -0.2037 -0.6800  0.5375
 3481TIP3    H231859   5.213   0.168   2.788  1.7336  1.3341 -0.7059
 3482TIP3   OH231860   1.344   3.618   3.289  0.4588  0.1628  0.4715
 3482TIP3    H131861   1.294   3.699   3.283  1.0690  0.4922 -0.3515
 3482TIP3    H231862   1.317   3.567   3.212  0.6380 -0.0892  0.5726
 3483TIP3   OH231863   5.433   2.941  14.293  0.0709  0.0010 -0.0840
 3483TIP3    H131864   5.498   2.879  14.325  1.6172  0.8728 -1.3873
 3483TIP3    H231865   5.434   3.012  14.357  0.0330 -0.2097  0.1521
 3484TIP3   OH231866   3.781   5.949   5.882 -0.6751 -0.2726  0.1937
 3484TIP3    H131867   3.843   5.897   5.933  1.6839  0.0506 -2.0892
 3484TIP3    H231868   3.771   6.030   5.931 -0.3239 -0.8711  1.2731
 3485TIP3   OH231869   4.230   0.596   4.746  0.5289  0.1851  0.4491
 3485TIP3    H131870   4.190   0.663   4.801 -1.5582 -1.0603  0.5509
 3485TIP3    H231871   4.175   0.592   4.668 -0.4465 -2.4962  1.1754
 3486TIP3   OH231872   0.597   3.454   1.123 -0.2181  0.9154 -0.2190
 3486TIP3    H131873   0.560   3.373   1.089 -0.7390  1.0961 -0.1067
 3486TIP3    H231874   0.675   3.428   1.171 -0.1144  0.5370 -0.5902
 3487TIP3   OH231875   6.698   6.722   1.995  0.3706  0.2477  0.1765
 3487TIP3    H131876   6.702   6.627   1.989  1.1926  0.3483 -1.3558
 3487TIP3    H231877   6.689   6.752   1.905  2.5515  1.6886  0.3470
 3488TIP3   OH231878   0.201   0.507  15.008 -0.0634 -0.5259 -0.5176
 3488TIP3    H131879   0.231   0.467  14.927 -0.4675 -0.4396 -0.7109
 3488TIP3    H231880   0.257   0.584  15.019 -0.5675 -0.0513 -1.1697
 3489TIP3   OH231881   0.901   3.701   2.973  0.2339  0.2179  0.3071
 3489TIP3    H131882   0.879   3.713   3.066  0.3236  1.8335  0.1592
 3489TIP3    H231883   0.891   3.607   2.958  1.0671 -0.2331  2.1636
 3490TIP3   OH231884   3.475   0.758  12.981  0.0726 -0.0487  0.0795
 3490TIP3    H131885   3.562   0.796  12.969  0.3369 -0.5956  0.2239
 3490TIP3    H231886   3.452   0.724  12.896  1.9068 -3.8441  0.8876
 3491TIP3   OH231887   4.860   2.909   4.179  0.3055 -0.0102 -0.5785
 3491TIP3    H131888   4.806   2.925   4.101 -0.0796  1.9779  0.0450
 3491TIP3    H231889   4.797   2.890   4.248  0.5875 -0.6517 -0.4928
 3492TIP3   OH231890   4.529   4.027   2.155  0.3585  0.0235 -0.5112
 3492TIP3    H131891   4.534   4.045   2.061  0.4174  0.7355 -0.3724
 3492TIP3    H231892   4.472   4.095   2.190  0.2326 -0.3154 -0.0456
 3493TIP3   OH231893   2.801   4.384  13.300  0.6760 -0.2144 -0.0434
 3493TIP3    H131894   2.831   4.367  13.211  0.5260 -0.2857 -0.0797
 3493TIP3    H231895   2.715   4.342  13.306 -1.5355  3.6618 -1.3450
 3494TIP3   OH231896   4.989   5.589  13.447  0.4060 -0.6151 -0.4783
 3494TIP3    H131897   4.910   5.547  13.412  0.2598 -0.1451 -0.7313
 3494TIP3    H231898   5.060   5.555  13.394  0.0182  1.2320 -2.3109
 3495TIP3   OH231899   0.615   3.128  15.076 -0.1800  0.3138 -0.6870
 3495TIP3    H131900   0.709   3.123  15.092  0.0855 -0.0447 -2.1584
 3495TIP3    H231901   0.582   3.040  15.097 -0.6715  1.1333  2.3243
 3496TIP3   OH231902   3.856   2.576  11.799 -0.1723 -0.0082 -0.6194
 3496TIP3    H131903   3.867   2.607  11.889  0.6790 -1.9978  0.0128
 3496TIP3    H231904   3.882   2.485  11.801 -1.0221 -0.3702 -2.7212
 3497TIP3   OH231905   6.738   6.026   2.570 -0.2186  0.0588  0.4906
 3497TIP3    H131906   6.798   6.024   2.645 -0.8335 -3.3515  1.0456
 3497TIP3    H231907   6.788   5.985   2.499 -0.3631  1.3762 -0.4002
 3498TIP3   OH231908   2.622   5.053   2.367 -0.2598 -0.3719 -0.0716
 3498TIP3    H131909   2.677   5.108   2.311  0.8361 -1.6351 -0.3123
 3498TIP3    H231910   2.637   5.085   2.456 -0.9369  0.7603 -0.3488
 3499TIP3   OH231911   2.918   2.288  13.929 -0.1606 -0.1600  0.0666
 3499TIP3    H131912   2.915   2.215  13.990  1.2044 -1.5452 -1.4175
 3499TIP3    H231913   2.998   2.274  13.878 -0.3319  1.8830 -0.8861
 3500TIP3   OH231914   0.959   2.446   5.815  1.0753 -0.5981  0.0959
 3500TIP3    H131915   0.876   2.492   5.808  0.5084 -1.0711  2.7522
 3500TIP3    H231916   1.011   2.478   5.740 -0.6800  1.3424 -0.3674
 3501TIP3   OH231917   5.601   2.480  16.764 -0.3775 -0.0369 -0.3217
 3501TIP3    H131918   5.633   2.479  16.855 -1.2737  3.0396  0.1500
 3501TIP3    H231919   5.679   2.502  16.712 -0.3701  0.9220  0.0658
 3502TIP3   OH231920   0.553   2.891   4.171 -0.7955 -0.1310 -0.4197
 3502TIP3    H131921   0.498   2.861   4.098 -1.2901  0.5499 -0.3315
 3502TIP3    H231922   0.633   2.839   4.163 -2.1870 -2.5842  0.6358
 3503TIP3   OH231923   0.463   4.218  11.737 -0.1937 -0.4916  0.0247
 3503TIP3    H131924   0.519   4.208  11.814  0.5894  0.1977 -0.4364
 3503TIP3    H231925   0.519   4.192  11.664  0.2451  2.0895 -0.6650
 3504TIP3   OH231926   5.523   2.216   2.864  0.5813 -0.0058 -0.6520
 3504TIP3    H131927   5.430   2.197   2.852  0.6131 -0.8786  0.3973
 3504TIP3    H231928   5.532   2.232   2.957  1.7291 -1.3801 -0.5030
 3505TIP3   OH231929   3.256   6.703  15.936 -0.5815 -0.4875 -0.5476
 3505TIP3    H131930   3.177   6.689  15.989 -1.5945  1.3371 -1.4395
 3505TIP3    H231931   3.223   6.704  15.846  0.4550  0.2894 -0.9317
 3506TIP3   OH231932   6.404   3.622  13.166 -0.2376  0.3525 -0.0624
 3506TIP3    H131933   6.332   3.589  13.113 -0.9557 -0.5743  1.4348
 3506TIP3    H231934   6.400   3.571  13.247  1.2500  1.2409  0.6164
 3507TIP3   OH231935   6.157   3.509  13.049  0.2388 -0.1854  0.0617
 3507TIP3    H131936   6.085   3.449  13.030 -0.1979  0.3106  0.1339
 3507TIP3    H231937   6.181   3.546  12.964 -1.0652  1.2979  0.2941
 3508TIP3   OH231938   4.152   5.153  11.986  0.1525  0.5532  0.6780
 3508TIP3    H131939   4.187   5.182  11.901 -0.4508  0.7764  0.4995
 3508TIP3    H231940   4.227   5.115  12.031  0.3304 -0.2175 -0.2433
 3509TIP3   OH231941   0.079   3.216   1.426  0.4282  0.3352  0.0351
 3509TIP3    H131942   0.124   3.299   1.437  0.2884  0.3182  0.7269
 3509TIP3    H231943  -0.014   3.238   1.426  0.3445  0.0565  1.4007
 3510TIP3   OH231944   0.481   3.096   6.508  0.2282 -0.1124 -0.0051
 3510TIP3    H131945   0.410   3.078   6.447 -0.4526  0.4484  0.6033
 3510TIP3    H231946   0.438   3.136   6.584  1.0609 -0.7284  0.8173
 3511TIP3   OH231947   3.743   5.551   4.486 -0.5125 -0.4654  0.4636
 3511TIP3    H131948   3.674   5.603   4.446 -0.2972 -0.4947  0.0403
 3511TIP3    H231949   3.787   5.509   4.411 -0.2671 -0.7248  0.7523
 3512TIP3   OH231950   5.882   5.367   2.569 -0.0407 -0.0966 -0.3028
 3512TIP3    H131951   5.972   5.367   2.601 -0.7652 -1.3869  2.0037
 3512TIP3    H231952   5.868   5.456   2.537  1.5242  0.6494  0.9226
 3513TIP3   OH231953   0.655   0.995  13.772 -0.0406 -0.0982  0.2798
 3513TIP3    H131954   0.622   1.082  13.792 -1.4562 -0.5645  0.0970
 3513TIP3    H231955   0.684   1.001  13.681 -1.0023 -0.0516 -0.0322
 3514TIP3   OH231956   2.287   4.738   6.584 -0.5153  0.2210  0.0317
 3514TIP3    H131957   2.252   4.825   6.605  0.4383  1.2537 -2.3240
 3514TIP3    H231958   2.379   4.742   6.609  0.0415  0.6539 -1.9289
 3515TIP3   OH231959   5.786   5.513  13.790 -0.4612 -0.3114 -0.0856
 3515TIP3    H131960   5.836   5.449  13.738  0.5657  1.2012 -1.0447
 3515TIP3    H231961   5.805   5.597  13.748  1.4359  1.2002  3.4028
 3516TIP3   OH231962   6.370   3.197  13.156 -0.4380 -0.0347 -0.0108
 3516TIP3    H131963   6.393   3.260  13.088 -0.2473 -1.5008 -1.3693
 3516TIP3    H231964   6.312   3.134  13.112  0.4211 -1.5425  0.9183
 3517TIP3   OH231965   5.565   4.511  16.858 -0.2287  0.1370 -0.2199
 3517TIP3    H131966   5.503   4.567  16.904 -0.8436 -1.1921  0.6330
 3517TIP3    H231967   5.647   4.522  16.906  0.1824  1.7462 -1.2306
 3518TIP3   OH231968   2.547   1.328  12.888  0.1373  0.2946 -0.4073
 3518TIP3    H131969   2.488   1.337  12.963  0.0099  1.0071 -0.5890
 3518TIP3    H231970   2.634   1.321  12.927  0.0006 -0.0992 -0.1654
 3519TIP3   OH231971   2.478   6.419   5.817 -0.2060  0.1572 -0.0876
 3519TIP3    H131972   2.433   6.503   5.815 -1.6580 -0.5620  0.9466
 3519TIP3    H231973   2.436   6.370   5.888  0.0912 -1.7180 -1.1332
 3520TIP3   OH231974   0.376   2.793  13.523 -0.0102  0.3327 -0.1344
 3520TIP3    H131975   0.357   2.720  13.582 -0.2325 -0.1642 -0.7996
 3520TIP3    H231976   0.295   2.843  13.519  0.0854  0.5143  0.1794
 3521TIP3   OH231977   0.399   3.585   0.806 -0.2024  0.2456 -0.1591
 3521TIP3    H131978   0.420   3.636   0.728  0.4153  2.4463  1.3622
 3521TIP3    H231979   0.479   3.537   0.826  0.4696  1.5648  0.4489
 3522TIP3   OH231980   4.020   3.690  11.879 -0.1341  0.2955 -0.5075
 3522TIP3    H131981   4.008   3.762  11.818  1.6278  0.3945 -0.7760
 3522TIP3    H231982   4.060   3.621  11.827 -0.7680 -0.4866  0.0141
 3523TIP3   OH231983   5.917   2.796  14.404  0.1631 -0.4375 -0.0531
 3523TIP3    H131984   5.925   2.828  14.314 -1.1094  0.7980  0.2496
 3523TIP3    H231985   5.834   2.749  14.405 -0.6766  1.0284  0.8924
 3524TIP3   OH231986   5.067   4.227  14.962  0.6764 -0.2011 -0.0385
 3524TIP3    H131987   4.983   4.227  14.915  1.1997 -4.0845 -1.3580
 3524TIP3    H231988   5.045   4.194  15.049  0.6862 -0.0799  0.0105
 3525TIP3   OH231989   4.181   6.147  14.269  0.8970  0.0762  0.3648
 3525TIP3    H131990   4.257   6.145  14.211  0.7521  0.8154  0.1365
 3525TIP3    H231991   4.200   6.080  14.335  0.4685 -1.7380 -1.2444
 3526TIP3   OH231992   4.976   6.568  11.343  0.0523 -0.0944 -0.5962
 3526TIP3    H131993   4.896   6.524  11.370  0.6002 -1.1584 -0.6554
 3526TIP3    H231994   5.014   6.600  11.425 -1.4131  2.2402 -0.7280
 3527TIP3   OH231995   5.448   6.118   4.520  0.1312  0.0157 -0.4123
 3527TIP3    H131996   5.434   6.023   4.524  0.4650 -0.0892 -1.5263
 3527TIP3    H231997   5.370   6.152   4.475 -1.2912  0.6148  2.2879
 3528TIP3   OH231998   2.764   4.525   0.266 -0.1469  0.0917 -0.5024
 3528TIP3    H131999   2.753   4.620   0.270 -0.9299 -0.0026 -0.3765
 3528TIP3    H232000   2.766   4.505   0.172 -1.0925  0.1131 -0.5369
 3529TIP3   OH232001   4.232   1.222  17.175 -0.3592  0.4365  0.3099
 3529TIP3    H132002   4.296   1.272  17.226 -0.6994  0.6589  0.5266
 3529TIP3    H232003   4.233   1.263  17.088  0.3372 -0.0462  0.0860
 3530TIP3   OH232004   5.426   0.333  15.052  0.5816  0.5856  0.1986
 3530TIP3    H132005   5.502   0.281  15.027  0.7550  0.6522  0.5758
 3530TIP3    H232006   5.461   0.396  15.116 -0.3089 -1.1897  2.5526
 3531TIP3   OH232007   5.057   1.767   5.992 -0.0391  0.1473 -0.1082
 3531TIP3    H132008   5.028   1.857   5.984 -1.6649 -0.3133  0.2093
 3531TIP3    H232009   5.135   1.771   6.047 -1.1360  1.1955  1.4546
 3532TIP3   OH232010   0.604   4.413   5.390 -0.4181  0.1231 -0.6184
 3532TIP3    H132011   0.558   4.329   5.393 -0.4810  0.1505 -0.8241
 3532TIP3    H232012   0.536   4.478   5.375 -0.3898  0.2300 -0.2988
 3533TIP3   OH232013   2.449   3.648   4.960  0.3185  0.2618 -0.8988
 3533TIP3    H132014   2.499   3.662   5.041 -0.6345 -0.1071 -0.2319
 3533TIP3    H232015   2.423   3.556   4.964  0.9276  0.0254 -2.0206
 3534TIP3   OH232016   3.507   5.918   4.184 -0.3232 -0.5022 -0.4422
 3534TIP3    H132017   3.502   5.908   4.089 -0.0882  0.2647 -0.5399
 3534TIP3    H232018   3.427   5.965   4.207 -0.7977 -1.4251 -0.1462
 3535TIP3   OH232019   4.675   5.340  14.366  0.2404  0.1644  0.1574
 3535TIP3    H132020   4.633   5.280  14.304  0.7220  0.1428 -0.1530
 3535TIP3    H232021   4.611   5.350  14.437 -0.1391 -0.1465 -0.1366
 3536TIP3   OH232022   2.034   2.481   2.216 -0.4236  0.0502 -0.4339
 3536TIP3    H132023   2.089   2.433   2.279 -2.6358 -0.3044  1.3430
 3536TIP3    H232024   2.023   2.567   2.256 -2.3213 -0.3612  0.0397
 3537TIP3   OH232025   1.546   0.186  16.472  0.8220  0.3951  0.0702
 3537TIP3    H132026   1.492   0.220  16.543 -0.0007 -0.9545  0.1361
 3537TIP3    H232027   1.526   0.242  16.397 -1.6751 -0.7888 -0.2503
 3538TIP3   OH232028   1.977   2.485  14.751  0.0794 -0.0941 -0.0670
 3538TIP3    H132029   2.025   2.403  14.741  1.2326  0.4870  0.4606
 3538TIP3    H232030   2.044   2.553  14.742 -0.0972  0.6951  3.2509
 3539TIP3   OH232031   0.178   4.171   4.685 -0.2413  0.1418 -0.3453
 3539TIP3    H132032   0.215   4.197   4.600  0.4099 -1.8361 -0.7233
 3539TIP3    H232033   0.083   4.174   4.672 -0.1529  0.3363 -0.9938
 3540TIP3   OH232034   0.486   3.835   6.262 -0.2544 -0.4537  0.1014
 3540TIP3    H132035   0.537   3.904   6.304 -0.6215 -0.6631  0.9075
 3540TIP3    H232036   0.455   3.874   6.180 -0.2513  0.2521  0.4316
 3541TIP3   OH232037   5.792   3.932   4.167 -0.5739  0.0143  0.0348
 3541TIP3    H132038   5.828   3.889   4.244  0.9132 -0.1388 -0.7143
 3541TIP3    H232039   5.753   4.013   4.201  1.1179  0.5536  0.8220
 3542TIP3   OH232040   0.790   0.629   4.234 -0.7422 -0.4136  0.2302
 3542TIP3    H132041   0.828   0.586   4.311  1.3542  0.2426 -0.3857
 3542TIP3    H232042   0.800   0.566   4.163  1.0695  0.4994 -0.3675
 3543TIP3   OH232043   6.774   4.264  16.574 -0.0045  0.8661  0.0520
 3543TIP3    H132044   6.707   4.210  16.533  0.4888 -0.5259  1.0237
 3543TIP3    H232045   6.780   4.231  16.663  2.3012  0.6162 -0.1408
 3544TIP3   OH232046   4.131   0.653   1.447  0.2169 -0.0899  0.2963
 3544TIP3    H132047   4.169   0.666   1.534 -0.7713  0.9220  0.6067
 3544TIP3    H232048   4.055   0.597   1.462  0.4541 -0.5005 -0.0258
 3545TIP3   OH232049   2.845   5.577  11.589  0.1497  0.2486 -0.2753
 3545TIP3    H132050   2.834   5.670  11.607  0.9349  0.0891  1.0717
 3545TIP3    H232051   2.771   5.535  11.634 -0.0177  0.1703 -0.6117
 3546TIP3   OH232052   1.942   5.139   2.117  0.2518 -0.5172  0.2442
 3546TIP3    H132053   1.918   5.211   2.059  1.5125 -0.7143 -0.5475
 3546TIP3    H232054   1.956   5.181   2.202  0.6953  0.1343 -0.1450
 3547TIP3   OH232055   5.731   0.964   0.730  0.3405 -0.0537 -0.0598
 3547TIP3    H132056   5.826   0.958   0.730  0.2716 -2.1535 -1.3102
 3547TIP3    H232057   5.707   0.954   0.823  1.2952 -1.1134  0.0985
 3548TIP3   OH232058   2.811   0.856  12.885 -0.3863  0.0659  0.5138
 3548TIP3    H132059   2.778   0.768  12.901 -0.0561 -0.0657  0.4867
 3548TIP3    H232060   2.900   0.855  12.921  0.2853 -0.1502 -1.0538
 3549TIP3   OH232061   0.099   1.733  11.407 -0.3754 -0.0050  0.4911
 3549TIP3    H132062   0.032   1.709  11.342 -1.2925 -0.1659  1.4558
 3549TIP3    H232063   0.154   1.797  11.363  0.7097 -2.0981 -1.3811
 3550TIP3   OH232064   4.060   5.437   1.287 -0.4083 -0.1860 -0.7079
 3550TIP3    H132065   3.967   5.415   1.290  0.0069 -2.4104  3.0976
 3550TIP3    H232066   4.089   5.411   1.200 -2.8534 -2.0775 -1.0651
 3551TIP3   OH232067   1.536   0.609   6.007 -0.1556 -0.0441  0.6361
 3551TIP3    H132068   1.563   0.567   5.925  0.0335 -0.2045  0.7804
 3551TIP3    H232069   1.605   0.672   6.025  0.7925 -1.3380  1.6736
 3552TIP3   OH232070   6.052   1.574   2.414  0.0621 -0.3914 -0.3722
 3552TIP3    H132071   6.014   1.659   2.435  0.6827 -0.0980 -0.4142
 3552TIP3    H232072   6.105   1.551   2.491  0.8685 -0.1636 -0.8388
 3553TIP3   OH232073   5.738   1.290  12.141  0.0348  0.1378  0.5821
 3553TIP3    H132074   5.744   1.336  12.057  1.0843  1.6847  1.4608
 3553TIP3    H232075   5.829   1.270  12.164 -0.1600  0.5997  1.8012
 3554TIP3   OH232076   4.180   5.821  15.010  0.0951  0.1375  0.4140
 3554TIP3    H132077   4.101   5.796  14.963  0.8576 -0.8295 -0.3955
 3554TIP3    H232078   4.185   5.760  15.084 -0.3789  0.7875  1.0035
 3555TIP3   OH232079   0.725   2.512   4.944 -0.1001  0.3931  0.5185
 3555TIP3    H132080   0.783   2.439   4.965 -1.5253 -1.1694 -0.6646
 3555TIP3    H232081   0.741   2.529   4.851 -2.5012 -1.0894 -0.2533
 3556TIP3   OH232082   6.584   2.671   1.444 -0.8509  0.1254  0.6401
 3556TIP3    H132083   6.607   2.697   1.533 -0.2820  1.9527 -0.0118
 3556TIP3    H232084   6.639   2.595   1.426 -0.5913  0.0636  1.6549
 3557TIP3   OH232085   5.461   3.175  14.467 -0.8931  0.2382  0.5182
 3557TIP3    H132086   5.529   3.221  14.417 -0.1738  2.0220  2.9533
 3557TIP3    H232087   5.388   3.237  14.469 -0.5331  0.6420  2.4673
 3558TIP3   OH232088   2.993   1.680  16.797  0.2043 -0.8722  0.1016
 3558TIP3    H132089   2.939   1.734  16.740  0.5858  0.2137  0.7507
 3558TIP3    H232090   2.938   1.666  16.875 -0.4077 -2.5419 -0.5755
 3559TIP3   OH232091   4.227   4.796   3.947 -0.9625 -0.5304 -0.5288
 3559TIP3    H132092   4.297   4.733   3.963 -1.9027 -1.2816  0.9686
 3559TIP3    H232093   4.271   4.880   3.938  0.2224 -1.1993 -1.1792
 3560TIP3   OH232094   6.698   5.887  10.793  0.2125  0.1845  0.2547
 3560TIP3    H132095   6.681   5.852  10.705  0.7926 -0.2145  0.2975
 3560TIP3    H232096   6.668   5.978  10.788 -0.8991 -0.1739  0.0121
 3561TIP3   OH232097   1.993   1.667   2.927 -0.0949  0.5017 -0.1998
 3561TIP3    H132098   1.974   1.657   3.021  3.2564  1.2381  0.6895
 3561TIP3    H232099   1.961   1.755   2.906 -0.3906  0.5457  0.4093
 3562TIP3   OH232100   2.648   6.467   6.140 -0.3800  0.1252 -0.2468
 3562TIP3    H132101   2.632   6.374   6.124 -1.6136  0.3109 -0.2120
 3562TIP3    H232102   2.577   6.512   6.094 -2.0726  0.8469  2.7706
 3563TIP3   OH232103   6.325   5.529   0.128 -0.2687  0.3431  0.2926
 3563TIP3    H132104   6.252   5.485   0.170  0.0227  0.3437  0.8209
 3563TIP3    H232105   6.369   5.461   0.077  0.1165  0.0402  1.0184
 3564TIP3   OH232106   2.908   1.783   2.802 -0.5376  0.1945  0.5440
 3564TIP3    H132107   2.886   1.691   2.788  1.3087 -0.1700 -0.2791
 3564TIP3    H232108   2.988   1.797   2.752  0.9114  1.4476  2.9806
 3565TIP3   OH232109   5.662   3.656   5.903  0.3204 -0.2202  0.6178
 3565TIP3    H132110   5.604   3.707   5.959  3.0957  2.4447  1.3548
 3565TIP3    H232111   5.687   3.581   5.957  0.9003  0.9186  2.0088
 3566TIP3   OH232112   3.156   2.204   4.318  0.1573 -0.1923 -0.4417
 3566TIP3    H132113   3.140   2.211   4.412 -1.6666  0.4681 -0.7584
 3566TIP3    H232114   3.176   2.294   4.291 -0.1467 -0.2353 -0.8130
 3567TIP3   OH232115   0.764   3.362   6.229  0.1160  0.1199  1.1297
 3567TIP3    H132116   0.859   3.361   6.221  0.0171 -0.8363 -0.3808
 3567TIP3    H232117   0.742   3.279   6.271 -0.0973 -0.1967  0.4185
 3568TIP3   OH232118   4.899   5.170  14.238 -0.5728  0.6305 -0.3228
 3568TIP3    H132119   4.937   5.257  14.225 -0.5630  0.4603 -1.6363
 3568TIP3    H232120   4.837   5.180  14.309  0.8881  1.2433  0.9124
 3569TIP3   OH232121   1.714   0.304  14.662  0.7220 -0.6893  0.5089
 3569TIP3    H132122   1.741   0.378  14.608  1.0077 -0.6069  0.7634
 3569TIP3    H232123   1.646   0.339  14.719  0.1722 -0.8593 -0.0276
 3570TIP3   OH232124   3.102   3.667  17.066 -0.1061 -0.0225  0.7129
 3570TIP3    H132125   3.173   3.634  17.011 -0.2315  0.6219  0.1550
 3570TIP3    H232126   3.024   3.620  17.035  0.0441 -0.6236  1.2295
 3571TIP3   OH232127   6.584   0.294   3.666 -0.3438 -0.5681  0.2444
 3571TIP3    H132128   6.536   0.342   3.734  2.1252  1.2478  0.8600
 3571TIP3    H232129   6.652   0.247   3.714  1.0932  0.3017 -0.8439
 3572TIP3   OH232130   6.654   3.453   3.167 -0.0521  0.2429 -0.3976
 3572TIP3    H132131   6.695   3.534   3.198  0.0468  0.0122  0.0822
 3572TIP3    H232132   6.576   3.443   3.220  1.0389 -1.0829  1.0624
 3573TIP3   OH232133   0.155   2.465   5.632 -0.4965 -0.0250  0.4942
 3573TIP3    H132134   0.124   2.553   5.651 -1.7376  0.0669 -1.6527
 3573TIP3    H232135   0.244   2.463   5.667 -1.9044  0.5380  4.5969
 3574TIP3   OH232136   2.946   4.676   1.803  0.2187  0.1931 -0.3492
 3574TIP3    H132137   2.976   4.726   1.880 -0.8176 -0.2587  0.3664
 3574TIP3    H232138   2.865   4.720   1.777 -0.5222 -0.8935  0.0815
 3575TIP3   OH232139   4.103   1.774   3.158  0.8757  0.0422 -0.1573
 3575TIP3    H132140   4.041   1.847   3.149  0.6418 -0.2901 -1.4472
 3575TIP3    H232141   4.155   1.777   3.078  0.5171 -1.5052 -0.4762
 3576TIP3   OH232142   5.622   5.554   0.003  0.1266 -0.0277  0.1715
 3576TIP3    H132143   5.596   5.490   0.069  0.8579 -0.9720 -0.4392
 3576TIP3    H232144   5.625   5.638   0.050 -0.3967 -0.5093  1.0773
 3577TIP3   OH232145   1.596   4.641   3.572 -0.6154 -0.5470  0.0839
 3577TIP3    H132146   1.610   4.696   3.649 -0.8400  1.3934 -1.1958
 3577TIP3    H232147   1.605   4.551   3.605 -0.6257  0.2098  2.3321
 3578TIP3   OH232148   6.655   2.571   5.398 -0.1747  0.3655  0.1103
 3578TIP3    H132149   6.714   2.639   5.366  0.8334 -0.5962 -0.1642
 3578TIP3    H232150   6.672   2.496   5.340 -0.1372 -0.6109  1.3408
 3579TIP3   OH232151   1.473   4.392  15.049 -0.0771 -0.0633  0.1521
 3579TIP3    H132152   1.535   4.389  14.976 -0.1155  1.3281  0.0332
 3579TIP3    H232153   1.391   4.420  15.010 -0.2961 -0.0509  0.6108
 3580TIP3   OH232154   3.755   3.009   1.836  0.3305 -0.5765 -0.2468
 3580TIP3    H132155   3.843   3.029   1.865  1.1932 -0.9309 -2.3941
 3580TIP3    H232156   3.733   3.078   1.773 -2.1720  1.2265  2.3625
 3581TIP3   OH232157   3.640   2.434  16.340  0.1404 -0.0047  0.2669
 3581TIP3    H132158   3.589   2.391  16.272 -0.9686 -1.0073  1.6505
 3581TIP3    H232159   3.574   2.472  16.399  1.0683  1.3573  0.4771
 3582TIP3   OH232160   4.485   5.509  16.887 -0.4040 -0.4829  0.7054
 3582TIP3    H132161   4.517   5.597  16.865 -2.3837  0.2481  0.5743
 3582TIP3    H232162   4.532   5.451  16.828 -0.9188  0.7679 -1.0090
 3583TIP3   OH232163   1.913   1.381   3.360  0.2987 -0.0005  0.1622
 3583TIP3    H132164   1.896   1.357   3.451  0.4195  0.6158  0.3492
 3583TIP3    H232165   1.937   1.473   3.364 -0.8096  0.3409 -0.6202
 3584TIP3   OH232166   3.300   5.879   5.727  0.7056 -0.3723  0.2862
 3584TIP3    H132167   3.395   5.884   5.726  0.6977 -0.2021  0.3783
 3584TIP3    H232168   3.277   5.873   5.819  0.5421  1.4214  0.4033
 3585TIP3   OH232169   1.782   5.584   4.985  0.1448 -0.3296 -0.1095
 3585TIP3    H132170   1.825   5.641   5.049 -0.4006 -0.4809  0.3966
 3585TIP3    H232171   1.777   5.499   5.028  0.0992 -0.5284 -0.5007
 3586TIP3   OH232172   6.114   2.535   0.087  0.0970 -0.4290  0.4158
 3586TIP3    H132173   6.111   2.497   0.175 -1.2746  0.5515  0.8192
 3586TIP3    H232174   6.093   2.461   0.029  0.0282 -0.8676  0.9862
 3587TIP3   OH232175   4.662   3.632  14.404 -0.2855 -0.6407  0.0877
 3587TIP3    H132176   4.675   3.723  14.431 -0.3231 -0.8270  0.7543
 3587TIP3    H232177   4.647   3.637  14.309 -1.4964  0.1759  0.2951
 3588TIP3   OH232178   0.494   1.492   4.637  0.2317 -0.1086  0.1825
 3588TIP3    H132179   0.444   1.440   4.575  1.1316 -0.1530 -0.5298
 3588TIP3    H232180   0.551   1.429   4.681 -0.4630 -0.0913  1.1358
 3589TIP3   OH232181   1.968   2.084  14.696 -0.5092  0.6979  0.1761
 3589TIP3    H132182   1.916   2.021  14.646 -0.5322  1.3783 -0.6904
 3589TIP3    H232183   1.981   2.042  14.781  0.9185 -1.2469 -0.9108
 3590TIP3   OH232184   2.703   5.967   2.448 -0.1839  0.1849 -0.4042
 3590TIP3    H132185   2.682   5.896   2.387 -0.1049  1.1270 -1.5608
 3590TIP3    H232186   2.626   6.023   2.448 -0.1815  0.2053  0.3718
 3591TIP3   OH232187   4.253   0.111   1.574  0.1624 -0.1462 -0.6747
 3591TIP3    H132188   4.231   0.177   1.641  2.5880  0.2609 -0.1739
 3591TIP3    H232189   4.288   0.037   1.624  1.0109 -0.2660 -1.4153
 3592TIP3   OH232190   6.039   1.915  12.646  0.0472  0.1894  0.0864
 3592TIP3    H132191   5.989   1.863  12.583 -0.4384  1.1937 -0.3854
 3592TIP3    H232192   6.070   1.852  12.711  1.5535 -1.0628 -1.7566
 3593TIP3   OH232193   0.668   1.298   0.472  0.3178  0.1810  0.7487
 3593TIP3    H132194   0.714   1.379   0.492 -0.9389  0.9539  0.5813
 3593TIP3    H232195   0.607   1.286   0.545 -0.5772  0.2109  0.0268
 3594TIP3   OH232196   2.928   3.749  12.130 -0.3843  0.4575 -0.2218
 3594TIP3    H132197   2.946   3.662  12.096 -0.0066  0.0864  0.8778
 3594TIP3    H232198   2.934   3.739  12.225 -2.6823  1.1384  0.0692
 3595TIP3   OH232199   6.440   4.675   1.336  0.0209 -0.0184  0.2643
 3595TIP3    H132200   6.523   4.627   1.337 -0.7652 -1.4243  0.4932
 3595TIP3    H232201   6.393   4.640   1.260 -0.4971  0.5562  0.3099
 3596TIP3   OH232202   2.442   2.635   0.728  0.5954  0.1507  0.2826
 3596TIP3    H132203   2.514   2.665   0.673  0.8958  1.3894  1.2942
 3596TIP3    H232204   2.479   2.632   0.817 -0.4612  0.3586  0.7505
 3597TIP3   OH232205   0.938   1.641  14.807 -0.0895  0.2385 -0.3158
 3597TIP3    H132206   0.981   1.724  14.784 -0.9070  0.4569 -1.1411
 3597TIP3    H232207   0.845   1.660  14.800 -0.2876 -0.8856 -1.0411
 3598TIP3   OH232208   0.718   5.821  12.512 -0.0434  0.3997 -0.1432
 3598TIP3    H132209   0.813   5.813  12.514 -0.0717  0.1619  0.2725
 3598TIP3    H232210   0.695   5.862  12.596 -0.4704 -1.3293  0.6188
 3599TIP3   OH232211   5.519   2.247   3.838 -0.4119 -0.5862  0.0635
 3599TIP3    H132212   5.443   2.201   3.804 -1.5628  0.4751  1.1177
 3599TIP3    H232213   5.585   2.238   3.769 -1.2140 -2.1535 -0.5559
 3600TIP3   OH232214   3.327   0.405  16.532 -0.4176  0.3999  0.4798
 3600TIP3    H132215   3.391   0.413  16.602 -0.8765 -0.2048  0.9766
 3600TIP3    H232216   3.243   0.397  16.577 -0.7867  0.6252 -0.1525
 3601TIP3   OH232217   1.375   3.165   4.237  0.1401  0.4137 -0.2372
 3601TIP3    H132218   1.438   3.105   4.199 -0.4500 -0.9560  0.8729
 3601TIP3    H232219   1.290   3.132   4.210 -0.2134  0.4735  0.7435
 3602TIP3   OH232220   4.417   6.013  15.721  0.0307 -0.4138 -0.3823
 3602TIP3    H132221   4.338   6.053  15.684  0.1219 -0.4495 -0.6102
 3602TIP3    H232222   4.384   5.945  15.780 -0.0877 -0.9432 -1.0612
 3603TIP3   OH232223   5.066   5.719  11.498  0.1714 -0.6127  0.4253
 3603TIP3    H132224   5.100   5.634  11.524  1.6355 -0.1471  0.1067
 3603TIP3    H232225   5.125   5.782  11.538 -2.4234  0.4328  2.9727
 3604TIP3   OH232226   3.939   2.252  15.192  0.1353 -0.6576  0.1086
 3604TIP3    H132227   3.862   2.202  15.167  0.2071 -1.1109  0.7569
 3604TIP3    H232228   3.914   2.297  15.273 -0.3379  1.3650 -1.1010
 3605TIP3   OH232229   5.779   1.628  16.084 -0.5435 -0.3197 -0.6343
 3605TIP3    H132230   5.687   1.645  16.103 -0.2714  1.8607 -1.0254
 3605TIP3    H232231   5.780   1.602  15.992 -0.5025  3.2695 -1.7900
 3606TIP3   OH232232   3.947   6.743   4.045 -0.0627  0.2516  0.4208
 3606TIP3    H132233   3.915   6.733   4.135 -1.2484 -1.8078 -0.1828
 3606TIP3    H232234   3.965   6.654   4.015  5.4851  1.0181  0.3077
 3607TIP3   OH232235   6.376   2.651  10.500  0.2836 -0.2513  0.2004
 3607TIP3    H132236   6.456   2.605  10.524 -0.7230 -2.3812 -0.2647
 3607TIP3    H232237   6.320   2.644  10.578  0.0182  0.0234  0.0387
 3608TIP3   OH232238   4.793   0.620  16.360 -0.4629 -0.0800  0.3720
 3608TIP3    H132239   4.849   0.654  16.430 -0.8205  0.8217  0.2208
 3608TIP3    H232240   4.755   0.540  16.397  0.2383 -0.2301  0.7892
 3609TIP3   OH232241   2.075   2.501  16.575 -0.2429  0.9075  0.8393
 3609TIP3    H132242   2.143   2.568  16.570  0.8757 -0.2796 -1.2460
 3609TIP3    H232243   2.124   2.420  16.591 -1.4075  0.3146  1.5117
 3610TIP3   OH232244   2.248   0.491  15.040 -0.3902  0.0383  0.2004
 3610TIP3    H132245   2.295   0.557  14.988 -2.2292  0.8072 -0.5404
 3610TIP3    H232246   2.274   0.408  15.000  1.4227  0.2955  0.7127
 3611TIP3   OH232247   3.287   2.759  14.908 -0.6066  0.8727  0.4097
 3611TIP3    H132248   3.285   2.762  14.812 -2.9191  0.6028  0.4098
 3611TIP3    H232249   3.295   2.665  14.928 -1.2728  0.8329  0.4837
 3612TIP3   OH232250   2.774   3.428  14.990  0.3102  0.2820 -0.0080
 3612TIP3    H132251   2.864   3.444  14.963  0.2305  0.6083 -0.0730
 3612TIP3    H232252   2.781   3.356  15.053  0.5878  0.1345 -0.2028
 3613TIP3   OH232253   3.192   2.805  15.616 -1.0634 -0.1829  0.3825
 3613TIP3    H132254   3.199   2.839  15.705  0.6008  2.0650 -0.5162
 3613TIP3    H232255   3.099   2.818  15.593 -1.2420  0.3513  1.3635
 3614TIP3   OH232256   2.920   3.172   4.009  0.4587  0.3617  0.1480
 3614TIP3    H132257   2.870   3.230   4.066 -0.7122 -0.8387  0.4005
 3614TIP3    H232258   2.854   3.130   3.954  1.4056  0.2697 -0.9579
 3615TIP3   OH232259   2.242   4.694   1.779  0.0320 -0.2537 -0.1542
 3615TIP3    H132260   2.291   4.714   1.699 -0.5072 -1.6494 -0.8622
 3615TIP3    H232261   2.299   4.723   1.850  1.1234 -0.2398 -1.0032
 3616TIP3   OH232262   5.048   3.066  13.970 -0.0825 -0.1551 -0.4806
 3616TIP3    H132263   5.116   3.004  13.996 -1.7079 -1.8186 -0.0070
 3616TIP3    H232264   5.060   3.141  14.028  0.7829 -0.8093  0.2158
 3617TIP3   OH232265   0.504   3.174   1.060  0.0996 -0.2457  0.3138
 3617TIP3    H132266   0.536   3.146   0.974 -0.9848 -0.6284  0.0115
 3617TIP3    H232267   0.484   3.092   1.105  0.1063 -0.0286  0.7109
 3618TIP3   OH232268   6.409   4.868  11.308 -0.2780 -0.0938 -0.9265
 3618TIP3    H132269   6.500   4.895  11.291 -0.5139  2.0684  0.7531
 3618TIP3    H232270   6.356   4.933  11.262 -0.9526 -0.3003 -0.4575
 3619TIP3   OH232271   0.248   5.960  11.839  0.2940  0.3888 -0.0053
 3619TIP3    H132272   0.161   5.919  11.850  0.0912  1.1706  1.7096
 3619TIP3    H232273   0.309   5.887  11.846 -0.1625  0.0525  0.6818
 3620TIP3   OH232274   4.924   5.561  12.202 -0.2327  0.1976  0.3552
 3620TIP3    H132275   4.851   5.577  12.141 -1.2556 -0.9232  1.2468
 3620TIP3    H232276   4.889   5.501  12.267  1.7941 -1.2376  0.2379
 3621TIP3   OH232277   6.178   5.881   3.166  0.1337  0.3573 -0.1254
 3621TIP3    H132278   6.108   5.817   3.180  0.0645  0.0204 -1.7977
 3621TIP3    H232279   6.249   5.853   3.224 -0.5420 -0.2054  0.4447
 3622TIP3   OH232280   2.813   3.361   3.431  0.7582  0.0089  0.2720
 3622TIP3    H132281   2.834   3.420   3.359  0.5429 -1.8434 -1.3887
 3622TIP3    H232282   2.881   3.294   3.428  0.1689 -0.6558  1.1625
 3623TIP3   OH232283   4.460   2.910  11.048 -0.3674 -0.2566  0.1458
 3623TIP3    H132284   4.368   2.888  11.065  0.1876 -1.5811  1.7186
 3623TIP3    H232285   4.473   2.890  10.956 -2.2274  2.2161 -0.7783
 3624TIP3   OH232286   0.432   4.190   6.174 -0.0824 -0.5689  0.5062
 3624TIP3    H132287   0.503   4.130   6.154  1.1936  0.4696  1.7462
 3624TIP3    H232288   0.413   4.177   6.267  0.6680  1.3310  0.9854
 3625TIP3   OH232289   0.961   3.611   3.802 -0.4450  0.1257  0.0581
 3625TIP3    H132290   1.005   3.540   3.849 -1.7263 -1.1637 -0.5933
 3625TIP3    H232291   0.870   3.607   3.831 -0.5363  1.5430  0.0306
 3626TIP3   OH232292   6.477   0.627  16.813 -0.3746 -0.6750 -0.5566
 3626TIP3    H132293   6.564   0.590  16.802  0.3606  0.6656  0.3591
 3626TIP3    H232294   6.489   0.721  16.798 -1.6579 -0.4729 -0.4280
 3627TIP3   OH232295   5.914   4.608  14.887  0.2133 -0.2356 -0.2445
 3627TIP3    H132296   5.871   4.678  14.937  1.1939 -1.1310  2.0317
 3627TIP3    H232297   5.851   4.536  14.890 -0.2958  0.1226 -1.5613
 3628TIP3   OH232298   2.661   5.039  12.315 -0.3107  0.6006  0.3688
 3628TIP3    H132299   2.691   5.099  12.247  0.1969 -0.3417 -0.2657
 3628TIP3    H232300   2.569   5.023  12.292  0.0081 -0.1545 -0.4578
 3629TIP3   OH232301   4.499   0.847  16.482  0.3270  0.5204 -0.2316
 3629TIP3    H132302   4.548   0.925  16.456  1.3607 -0.2810 -0.7292
 3629TIP3    H232303   4.434   0.835  16.412  2.2141 -0.8419 -1.8754
 3630TIP3   OH232304   0.198   6.185   2.985 -0.3585 -0.3968  0.5341
 3630TIP3    H132305   0.268   6.120   2.992  0.2032  0.1931  0.5018
 3630TIP3    H232306   0.123   6.136   2.951  0.5590 -0.6857 -1.1760
 3631TIP3   OH232307   2.731   3.890  11.691  0.9201  0.4930 -0.0118
 3631TIP3    H132308   2.717   3.818  11.752 -1.8771  0.1484 -0.9643
 3631TIP3    H232309   2.773   3.850  11.615 -0.3964 -0.1286 -0.4364
 3632TIP3   OH232310   3.334   2.067   3.083 -0.3200  0.0866  0.3381
 3632TIP3    H132311   3.333   2.010   3.006 -0.2099 -2.6214  2.2289
 3632TIP3    H232312   3.424   2.102   3.086  0.9199 -2.9063  1.3055
 3633TIP3   OH232313   6.255   1.336  11.273 -0.0931 -0.0745 -0.4729
 3633TIP3    H132314   6.218   1.266  11.220 -2.5382  1.3319 -0.8080
 3633TIP3    H232315   6.296   1.395  11.209  0.8093 -0.5315 -0.3250
 3634TIP3   OH232316   1.086   1.798  15.368 -0.2412 -0.6412  0.0768
 3634TIP3    H132317   1.113   1.749  15.290 -1.1254 -0.8332 -0.1206
 3634TIP3    H232318   1.108   1.741  15.441  0.6464 -0.4377 -0.0138
 3635TIP3   OH232319   3.576   6.251   1.743 -0.1771 -0.1535  0.4718
 3635TIP3    H132320   3.611   6.195   1.811 -0.5773  0.4944  1.2370
 3635TIP3    H232321   3.609   6.339   1.764 -3.0035  0.7013  1.8724
 3636TIP3   OH232322   0.040   6.131  15.538 -0.3283  0.0898 -0.4341
 3636TIP3    H132323  -0.051   6.142  15.567 -0.2162  4.6513 -1.1251
 3636TIP3    H232324   0.089   6.197  15.587  2.1483 -0.4823 -1.9716
 3637TIP3   OH232325   6.374   3.316  16.928 -0.1182 -0.2212 -0.7804
 3637TIP3    H132326   6.302   3.270  16.973 -0.6542 -0.7596 -2.1450
 3637TIP3    H232327   6.369   3.406  16.962 -0.3648 -0.6527  0.3821
 3638TIP3   OH232328   6.449   0.765  12.478 -0.1056 -0.1658  0.0498
 3638TIP3    H132329   6.364   0.765  12.522  0.3089 -0.3782  0.8671
 3638TIP3    H232330   6.431   0.730  12.391 -1.3179  2.1318 -0.7146
 3639TIP3   OH232331   3.179   5.721  14.877 -0.4285  0.6329 -0.0679
 3639TIP3    H132332   3.112   5.663  14.913  1.1564 -2.1496 -1.2616
 3639TIP3    H232333   3.243   5.730  14.947 -0.7005  0.9972  0.1368
 3640TIP3   OH232334   3.959   2.750   2.048 -0.8085  0.3336  0.2206
 3640TIP3    H132335   4.041   2.761   2.001 -0.4750  0.7502  0.8921
 3640TIP3    H232336   3.898   2.716   1.982 -0.0505 -0.1781 -0.2341
 3641TIP3   OH232337   4.388   5.869  14.802 -0.6435  0.8644 -0.7025
 3641TIP3    H132338   4.450   5.940  14.819  1.6697 -0.9728 -0.8597
 3641TIP3    H232339   4.341   5.858  14.884  1.6270  0.1797  0.5889
 3642TIP3   OH232340   0.559   4.130  13.661  0.1175  0.4795  0.3864
 3642TIP3    H132341   0.618   4.063  13.695 -0.0373  0.3278  0.3578
 3642TIP3    H232342   0.521   4.171  13.739 -0.2003  0.1648  0.4006
 3643TIP3   OH232343   5.479   2.412   3.452 -0.1254 -0.3374  0.4769
 3643TIP3    H132344   5.558   2.378   3.411  0.6733  1.8131  0.0990
 3643TIP3    H232345   5.505   2.429   3.543 -0.4979 -0.6563  0.6463
 3644TIP3   OH232346   0.533   2.776   3.134 -0.2565  0.2134 -0.0459
 3644TIP3    H132347   0.450   2.808   3.167 -1.6076 -1.4762 -1.5647
 3644TIP3    H232348   0.537   2.685   3.163  0.3024 -0.1792 -1.2668
 3645TIP3   OH232349   2.258   4.437   6.060 -0.1531 -0.1630  0.1081
 3645TIP3    H132350   2.191   4.393   6.113 -0.8678  0.3850 -0.3191
 3645TIP3    H232351   2.226   4.527   6.050  0.1745 -0.1431 -0.8828
 3646TIP3   OH232352   5.311   2.560   5.515  0.2726  0.6766  0.2872
 3646TIP3    H132353   5.327   2.525   5.428 -0.2973 -0.7060  0.7121
 3646TIP3    H232354   5.337   2.652   5.509  0.8922  0.4350 -1.1363
 3647TIP3   OH232355   1.132   1.613  16.095  0.0090 -0.2320  0.4903
 3647TIP3    H132356   1.162   1.703  16.107  2.8968 -0.8863 -0.9961
 3647TIP3    H232357   1.166   1.587  16.010 -2.6475 -2.0798 -0.1490
 3648TIP3   OH232358   3.587   4.294  12.003  0.3836  0.0545 -0.3954
 3648TIP3    H132359   3.569   4.353  11.931  1.0425  1.9531  0.9149
 3648TIP3    H232360   3.681   4.280  12.001  0.5307  0.7844  0.5429
 3649TIP3   OH232361   1.071   6.506   5.320 -0.0530 -0.1338  0.2617
 3649TIP3    H132362   1.068   6.602   5.321 -0.0910 -0.1061  2.2279
 3649TIP3    H232363   1.028   6.481   5.238  1.1844  1.5407 -0.9829
 3650TIP3   OH232364   1.685   2.273  12.731  0.2134 -0.1264 -0.2508
 3650TIP3    H132365   1.630   2.273  12.652 -0.5779 -2.4346  0.2165
 3650TIP3    H232366   1.688   2.181  12.757  1.5532  0.4206  1.6801
 3651TIP3   OH232367   5.052   3.835   0.435  0.2815  0.1109 -0.4187
 3651TIP3    H132368   5.021   3.781   0.362 -0.1458  0.5035 -0.5334
 3651TIP3    H232369   5.018   3.792   0.513 -0.0461  0.2037 -0.5086
 3652TIP3   OH232370   6.583   6.501   5.212 -0.2505 -0.0507  0.0386
 3652TIP3    H132371   6.527   6.520   5.137  0.0010 -1.0728 -0.4258
 3652TIP3    H232372   6.662   6.464   5.174 -0.1120 -0.5626  0.8106
 3653TIP3   OH232373   2.878   2.603  12.139 -0.1058 -0.4838  0.2313
 3653TIP3    H132374   2.925   2.571  12.062  1.2742  0.0409  0.8303
 3653TIP3    H232375   2.791   2.562  12.133  0.5251 -1.7257 -0.7328
 3654TIP3   OH232376   1.959   2.746   1.289  0.0825  0.1741  0.6177
 3654TIP3    H132377   2.003   2.661   1.279 -0.9015 -0.4196  1.1486
 3654TIP3    H232378   1.901   2.734   1.364 -0.4346  1.1670  0.3923
 3655TIP3   OH232379   1.511   3.602   4.548 -0.3294 -0.0099  0.2552
 3655TIP3    H132380   1.520   3.691   4.583  1.3433 -0.7469  1.8247
 3655TIP3    H232381   1.570   3.601   4.472 -1.6101  0.6565 -0.8072
 3656TIP3   OH232382   0.157   3.453   0.713 -0.5212 -0.6331  0.5353
 3656TIP3    H132383   0.208   3.520   0.760 -1.5421  0.2974  0.3537
 3656TIP3    H232384   0.155   3.379   0.774  0.9740 -0.6768  0.5751
 3657TIP3   OH232385   4.697   3.303   4.178 -0.2211 -0.2185  0.3028
 3657TIP3    H132386   4.697   3.396   4.197 -1.4451 -0.1778  0.1729
 3657TIP3    H232387   4.645   3.295   4.097  0.4205 -0.9445 -0.0534
 3658TIP3   OH232388   3.032   0.520  12.695  0.0894 -0.5103  0.1529
 3658TIP3    H132389   3.048   0.546  12.786  0.0605  0.3612 -0.0881
 3658TIP3    H232390   2.969   0.584  12.662 -0.4271 -1.2299 -0.2802
 3659TIP3   OH232391   1.119   0.034  17.095  0.0541  0.0790  0.0193
 3659TIP3    H132392   1.058   0.087  17.145 -1.1185 -1.0343 -0.1837
 3659TIP3    H232393   1.075  -0.050  17.083  1.9543 -1.0767  0.5868
 3660TIP3   OH232394   1.587   4.943  15.653  0.4439 -0.0561 -0.2487
 3660TIP3    H132395   1.534   5.010  15.696 -1.4386 -1.6605  0.0557
 3660TIP3    H232396   1.634   4.900  15.725  1.3184  0.6072 -0.4005
 3661TIP3   OH232397   0.947   2.569   3.745 -0.3198  0.1122 -0.1410
 3661TIP3    H132398   1.037   2.543   3.729 -0.4173  0.3745 -1.2139
 3661TIP3    H232399   0.953   2.650   3.795 -0.0021 -1.3311  2.2790
 3662TIP3   OH232400   0.458   0.096   4.057  0.1341 -0.5695  0.0229
 3662TIP3    H132401   0.540   0.047   4.054  0.5210 -0.0240  1.0950
 3662TIP3    H232402   0.478   0.178   4.012 -0.8812 -1.8029 -2.9725
 3663TIP3   OH232403   1.187   2.979  11.208  0.0862  0.2529  0.3655
 3663TIP3    H132404   1.193   2.953  11.116 -0.7830  0.4789  0.2270
 3663TIP3    H232405   1.277   2.977  11.240  0.3827  0.0199 -0.4495
 3664TIP3   OH232406   2.350   2.152  13.598 -0.0882  0.1372 -0.2260
 3664TIP3    H132407   2.381   2.075  13.644  2.7524 -0.0290 -2.1380
 3664TIP3    H232408   2.374   2.226  13.655  2.1403 -0.1403 -0.6962
 3665TIP3   OH232409   5.765   2.425  11.665 -0.5110 -0.1010  0.2322
 3665TIP3    H132410   5.761   2.400  11.758  0.8675  0.8320  0.5795
 3665TIP3    H232411   5.844   2.382  11.632  1.4310  2.9072  0.6297
 3666TIP3   OH232412   6.174   6.684   2.257  0.2529 -0.1387  0.2008
 3666TIP3    H132413   6.224   6.673   2.338 -0.5336  0.9668  0.8632
 3666TIP3    H232414   6.236   6.661   2.187  1.2529 -0.1403  1.0641
 3667TIP3   OH232415   5.306   4.813  12.391 -0.0078 -0.2811  0.3632
 3667TIP3    H132416   5.383   4.864  12.366 -0.2589 -0.3931 -0.6995
 3667TIP3    H232417   5.341   4.730  12.422  0.3163 -0.3087 -0.0596
 3668TIP3   OH232418   4.263   4.572  17.074 -0.5388 -0.3558 -0.0420
 3668TIP3    H132419   4.241   4.665  17.065  3.2959  0.7634  0.6243
 3668TIP3    H232420   4.318   4.568  17.152 -0.8298 -3.2962  0.0941
 3669TIP3   OH232421   3.992   4.079   5.312 -0.4080 -0.0008  0.3159
 3669TIP3    H132422   4.017   4.140   5.242 -3.6795  0.3418 -0.7329
 3669TIP3    H232423   3.972   4.136   5.387  0.2873 -0.1183  0.5908
 3670TIP3   OH232424   1.384   1.338   5.238  0.4992  0.4633  0.3506
 3670TIP3    H132425   1.373   1.330   5.143  0.9991 -1.3342  0.4055
 3670TIP3    H232426   1.374   1.249   5.271  0.6347  1.0151  1.9654
 3671TIP3   OH232427   0.919   0.221  17.126  0.4446  0.7559  0.5616
 3671TIP3    H132428   0.874   0.247  17.206 -0.9195  1.0876 -0.2812
 3671TIP3    H232429   0.859   0.160  17.084  1.2231  0.4552 -0.1323
 3672TIP3   OH232430   1.629   4.687  13.058  0.0836  0.5874 -0.6902
 3672TIP3    H132431   1.723   4.702  13.048  0.5618 -0.4492  1.4757
 3672TIP3    H232432   1.617   4.595  13.034 -0.1251  0.3590  0.2414
 3673TIP3   OH232433   2.892   3.291   2.563 -0.6921 -0.1431 -0.2400
 3673TIP3    H132434   2.878   3.339   2.645 -0.5254  1.1648 -0.9494
 3673TIP3    H232435   2.987   3.295   2.549 -0.5073 -1.7370  0.2725
 3674TIP3   OH232436   0.604   5.501   6.059  0.2000  0.0272 -0.0685
 3674TIP3    H132437   0.618   5.527   6.150 -0.9251 -0.0693  0.1501
 3674TIP3    H232438   0.658   5.423   6.047  0.3449  0.0362  0.5150
 3675TIP3   OH232439   0.043   4.193   3.460 -0.2568  0.3193  0.5937
 3675TIP3    H132440   0.058   4.123   3.397  1.5388 -0.2303  1.5467
 3675TIP3    H232441   0.043   4.273   3.408 -1.3064 -0.2831 -0.3811
 3676TIP3   OH232442   4.684   1.390  10.518 -0.1868 -0.0690  0.7804
 3676TIP3    H132443   4.767   1.397  10.565  1.4372  1.1671 -2.0549
 3676TIP3    H232444   4.655   1.480  10.506  0.4934 -0.1362 -2.1348
 3677TIP3   OH232445   2.998   4.622   0.410  0.1137  0.0804  0.6194
 3677TIP3    H132446   2.992   4.644   0.503 -1.6167  0.6889  0.4100
 3677TIP3    H232447   2.912   4.646   0.375  1.0178  0.6522 -1.3140
 3678TIP3   OH232448   3.825   2.796   0.747 -0.1133  0.0098  0.0837
 3678TIP3    H132449   3.737   2.781   0.713  0.3427 -2.8244 -0.1303
 3678TIP3    H232450   3.850   2.882   0.714 -1.9934 -0.0247 -1.6193
 3679TIP3   OH232451   3.664   3.734  13.762 -0.0902  0.1027 -0.5975
 3679TIP3    H132452   3.754   3.766  13.750 -0.7253  1.7808 -1.2622
 3679TIP3    H232453   3.632   3.719  13.673 -0.3588 -0.8383 -0.3504
 3680TIP3   OH232454   0.041   3.229   1.156  0.7500 -0.1650 -0.0752
 3680TIP3    H132455   0.064   3.211   1.247 -1.5326  0.2307  0.6281
 3680TIP3    H232456   0.008   3.319   1.157  0.1854 -0.3441 -1.1894
 3681TIP3   OH232457   5.003   2.932  14.967 -0.1836 -0.0603  0.3992
 3681TIP3    H132458   5.049   2.869  14.913 -0.7068  0.5935 -0.8505
 3681TIP3    H232459   4.913   2.931  14.933 -0.4283  0.6430  1.0042
 3682TIP3   OH232460   4.675   5.867  13.165 -0.2586  0.7020  0.1433
 3682TIP3    H132461   4.624   5.882  13.244  0.3632  0.8059  0.5355
 3682TIP3    H232462   4.684   5.954  13.125 -0.0524  0.7458  0.2855
 3683TIP3   OH232463   0.191   1.671  17.149 -0.6655  0.3915  0.3012
 3683TIP3    H132464   0.282   1.692  17.129 -0.6550  1.3135  1.2416
 3683TIP3    H232465   0.177   1.705  17.237 -1.3264 -1.6022  1.0375
 3684TIP3   OH232466   0.138   2.927  11.337  0.7057 -0.2553 -0.0351
 3684TIP3    H132467   0.230   2.942  11.360  1.1648 -0.2669 -1.7618
 3684TIP3    H232468   0.140   2.902  11.245 -0.8247 -2.4472  0.4443
 3685TIP3   OH232469   6.756   1.444  14.605  0.0063  0.0011 -0.0290
 3685TIP3    H132470   6.814   1.417  14.534  1.3253 -0.6872  1.2572
 3685TIP3    H232471   6.669   1.451  14.564  0.6786 -0.5988 -1.6385
 3686TIP3   OH232472   4.968   6.253  13.387  0.0351  0.3303 -0.1419
 3686TIP3    H132473   4.932   6.297  13.464 -0.6999  0.2545 -0.4334
 3686TIP3    H232474   4.950   6.160  13.402 -1.1493  0.4114 -0.9170
 3687TIP3   OH232475   5.618   5.299  14.577 -0.3294  0.7355  0.3124
 3687TIP3    H132476   5.564   5.229  14.541 -0.1845  0.4811  0.5810
 3687TIP3    H232477   5.704   5.260  14.588 -0.1090  1.1128 -0.0243
 3688TIP3   OH232478   4.085   0.056   6.422  0.1235  0.2430  0.0308
 3688TIP3    H132479   4.013  -0.001   6.393  1.0071 -0.7745 -0.2157
 3688TIP3    H232480   4.049   0.144   6.417 -1.3891 -0.2954  0.7111
 3689TIP3   OH232481   4.279   1.774   3.385 -0.4309  0.4243  0.8708
 3689TIP3    H132482   4.200   1.771   3.331 -0.4706 -0.1784  0.9506
 3689TIP3    H232483   4.338   1.711   3.344  0.2583  1.3437  0.4346
 3690TIP3   OH232484   0.376   3.642   2.129 -0.3133  0.3294 -0.5530
 3690TIP3    H132485   0.469   3.643   2.110 -0.1126  0.9799  0.3974
 3690TIP3    H232486   0.347   3.732   2.112 -0.6058  0.3210 -0.1163
 3691TIP3   OH232487   5.091   5.071  16.765  0.1974  0.1672  0.8804
 3691TIP3    H132488   5.127   4.983  16.767 -0.6260 -0.2449 -0.6450
 3691TIP3    H232489   5.056   5.081  16.676 -0.8736  1.5596  1.4167
 3692TIP3   OH232490   4.485   4.842  15.943  0.1999  0.2338  0.1692
 3692TIP3    H132491   4.579   4.853  15.932  0.3277 -0.3907  0.5954
 3692TIP3    H232492   4.476   4.763  15.997 -0.6087 -0.6316 -1.1648
 3693TIP3   OH232493   0.143   5.935  15.382  0.0693  0.1415  0.4549
 3693TIP3    H132494   0.081   5.869  15.411  0.0688 -0.1812 -0.2679
 3693TIP3    H232495   0.121   6.013  15.434  0.0353 -0.3989  1.2666
 3694TIP3   OH232496   3.986   4.374   3.407 -0.0735 -0.2179  0.0450
 3694TIP3    H132497   4.066   4.341   3.448  0.1685  1.6680  1.2434
 3694TIP3    H232498   3.924   4.384   3.479 -0.7699  0.0746 -0.5820
 3695TIP3   OH232499   4.499   1.465   4.631 -0.1220  0.0894 -0.3767
 3695TIP3    H132500   4.554   1.391   4.657  0.6227  1.2858  1.6823
 3695TIP3    H232501   4.415   1.425   4.608  0.2659 -1.4122  0.6290
 3696TIP3   OH232502   6.503   5.623   4.184 -0.3328 -0.8860  0.1941
 3696TIP3    H132503   6.482   5.610   4.276  0.5626 -2.4355  0.2169
 3696TIP3    H232504   6.533   5.537   4.154  1.1876  0.0267 -1.0508
 3697TIP3   OH232505   0.248   2.074  13.662  0.0985  0.4783 -0.4905
 3697TIP3    H132506   0.285   1.989  13.637 -0.2995  0.2463 -0.2970
 3697TIP3    H232507   0.157   2.069  13.632 -0.0832  0.6167  0.0325
 3698TIP3   OH232508   2.029   2.811  15.846 -0.1755 -0.3179 -0.5408
 3698TIP3    H132509   1.938   2.829  15.870  0.2417 -0.3089  1.1771
 3698TIP3    H232510   2.047   2.725  15.885  0.9774  0.3452  0.4616
 3699TIP3   OH232511   6.351   4.782   0.563 -0.2708 -0.5143 -0.1250
 3699TIP3    H132512   6.263   4.756   0.592 -0.5414  2.0237  1.7312
 3699TIP3    H232513   6.405   4.705   0.578 -1.7640 -1.4361  0.8190
 3700TIP3   OH232514   6.334   6.286  15.572  0.8600  0.1816  0.4566
 3700TIP3    H132515   6.263   6.237  15.531  1.0883  0.1659  0.0754
 3700TIP3    H232516   6.295   6.323  15.651  1.3899 -2.9318  2.3269
 3701TIP3   OH232517   4.537   5.201  11.727 -0.0926 -0.1996  0.3477
 3701TIP3    H132518   4.606   5.210  11.662  1.2599  1.0707  1.8974
 3701TIP3    H232519   4.583   5.184  11.809 -1.7267 -1.1719  1.1189
 3702TIP3   OH232520   1.770   0.051   5.493 -0.4793 -0.3551  0.5035
 3702TIP3    H132521   1.781  -0.044   5.493 -0.3143 -0.3363  0.2954
 3702TIP3    H232522   1.721   0.069   5.573 -0.3947 -0.6020  0.6132
 3703TIP3   OH232523   1.455   0.707   2.751 -0.5821 -0.5349 -0.1472
 3703TIP3    H132524   1.512   0.746   2.684  0.7507  2.8191  2.6061
 3703TIP3    H232525   1.373   0.755   2.744 -0.1904  0.3512  0.9624
 3704TIP3   OH232526   4.158   6.556   3.654 -0.2084  0.2748 -0.5404
 3704TIP3    H132527   4.137   6.649   3.651 -2.0100 -0.0669  0.3007
 3704TIP3    H232528   4.179   6.533   3.563 -1.5141  1.1315 -1.0880
 3705TIP3   OH232529   4.100   1.391  13.260  0.2627  0.4124  0.1522
 3705TIP3    H132530   4.077   1.327  13.328  1.8598  1.4712  1.7816
 3705TIP3    H232531   4.032   1.457  13.265  0.0732  0.2043  0.3289
 3706TIP3   OH232532   4.775   2.573  13.287  0.6419  0.7359  0.2885
 3706TIP3    H132533   4.765   2.645  13.225  1.2597  0.2182 -0.4280
 3706TIP3    H232534   4.686   2.558  13.320  0.1436  0.4323 -1.1374
 3707TIP3   OH232535   2.498   4.732   4.551 -0.3508  0.2627 -0.3672
 3707TIP3    H132536   2.439   4.660   4.532  0.2162 -0.8240  1.7991
 3707TIP3    H232537   2.552   4.740   4.472 -0.6495 -1.4560 -0.7701
 3708TIP3   OH232538   3.510   6.295   2.594  0.3224 -0.4568  0.0729
 3708TIP3    H132539   3.442   6.328   2.653  1.4476  1.8839  0.2038
 3708TIP3    H232540   3.590   6.340   2.623  1.1788 -0.2916 -2.3531
 3709TIP3   OH232541   0.313   5.958  11.401 -0.0174  0.2097 -0.1378
 3709TIP3    H132542   0.297   5.911  11.319 -2.6787 -0.3438  0.5890
 3709TIP3    H232543   0.370   6.031  11.377 -1.3387  0.5033 -2.6562
 3710TIP3   OH232544   6.531   3.764   1.285 -0.2716  0.5258  0.1003
 3710TIP3    H132545   6.577   3.828   1.340 -1.1541 -0.7736  2.5224
 3710TIP3    H232546   6.581   3.683   1.296 -1.4460 -0.1859  0.4436
 3711TIP3   OH232547   1.569   4.860  11.341 -0.9024  0.1563 -0.6077
 3711TIP3    H132548   1.599   4.921  11.274  0.4442 -0.8587 -0.9786
 3711TIP3    H232549   1.511   4.799  11.294  2.0025 -2.1206 -1.5798
 3712TIP3   OH232550   1.356   4.242   5.409 -0.0406  0.6926 -0.3255
 3712TIP3    H132551   1.367   4.312   5.345  1.0425  0.1617 -0.7493
 3712TIP3    H232552   1.402   4.167   5.371 -2.7527 -0.8570 -0.7894
 3713TIP3   OH232553   6.761   5.052   5.320  0.0673  0.6495 -0.4974
 3713TIP3    H132554   6.753   5.101   5.403  2.1626  0.4550 -0.1128
 3713TIP3    H232555   6.820   5.105   5.267  2.3297 -1.2967 -0.1150
 3714TIP3   OH232556   0.934   4.944   5.550 -0.8640 -0.2834  0.1169
 3714TIP3    H132557   0.975   4.864   5.518 -1.1423 -0.0430 -0.8654
 3714TIP3    H232558   0.890   4.918   5.632 -1.6147 -1.3195 -0.5908
 3715TIP3   OH232559   6.414   5.294  11.838 -0.1258  0.4247  1.1864
 3715TIP3    H132560   6.393   5.263  11.750 -0.6259  0.1622  1.3928
 3715TIP3    H232561   6.371   5.230  11.896  2.3007 -0.9086  1.6460
 3716TIP3   OH232562   3.749   0.038  13.978 -0.0262  0.0807  0.3145
 3716TIP3    H132563   3.758  -0.049  14.017 -3.2562  0.3726  2.1006
 3716TIP3    H232564   3.698   0.023  13.898  1.7026  0.1360 -0.8634
 3717TIP3   OH232565   1.173   4.772  14.807  0.4214 -0.7884  0.1416
 3717TIP3    H132566   1.154   4.853  14.759 -1.7415 -1.2873  0.0517
 3717TIP3    H232567   1.234   4.725  14.750  0.6777  0.1943 -0.4271
 3718TIP3   OH232568   4.505   6.661   3.440 -0.2210 -0.5329  0.1893
 3718TIP3    H132569   4.498   6.681   3.534 -1.0185  0.0463  0.0091
 3718TIP3    H232570   4.589   6.615   3.432  0.1294 -0.0776  1.0980
 3719TIP3   OH232571   5.877   5.678  13.979 -0.5398  0.1866 -0.2605
 3719TIP3    H132572   5.857   5.737  13.906 -0.8162  1.4712  0.8241
 3719TIP3    H232573   5.840   5.594  13.952 -0.4815  0.5849 -1.6727
 3720TIP3   OH232574   0.196   4.084  12.065  0.3318 -0.1678  0.0066
 3720TIP3    H132575   0.226   4.143  12.134 -0.1413  0.2310 -0.1190
 3720TIP3    H232576   0.239   4.001  12.083  0.9758  0.2054  0.2140
 3721TIP3   OH232577   4.244   5.817   0.007  0.2989 -0.1373 -0.2626
 3721TIP3    H132578   4.279   5.848   0.090  0.4999 -1.2879  0.1042
 3721TIP3    H232579   4.299   5.741  -0.016 -2.6143 -2.8663  1.0115
 3722TIP3   OH232580   3.718   5.928   4.918  0.0314 -0.5709 -0.1167
 3722TIP3    H132581   3.783   5.944   4.850 -0.3856 -1.0259 -0.6301
 3722TIP3    H232582   3.714   5.832   4.925  0.7725 -0.5353  1.2402
 3723TIP3   OH232583   1.005   2.028  11.511  0.3004  0.2254 -0.0353
 3723TIP3    H132584   1.077   2.007  11.569  0.7373  0.6137 -0.4263
 3723TIP3    H232585   0.995   2.123  11.518 -0.4705  0.1230  0.3554
 3724TIP3   OH232586   2.509   3.782   2.659 -0.3551 -0.0201  0.1471
 3724TIP3    H132587   2.522   3.693   2.624 -1.5417  0.8422 -2.8038
 3724TIP3    H232588   2.461   3.828   2.590 -0.6696  2.6646  2.0033
 3725TIP3   OH232589   5.377   3.226  15.825  0.4317 -0.4466  0.3963
 3725TIP3    H132590   5.443   3.294  15.823  0.8393 -0.8341  0.5470
 3725TIP3    H232591   5.311   3.257  15.887  0.7150 -0.2844  0.6172
 3726TIP3   OH232592   5.128   2.532  12.093 -0.1596  0.1944 -0.4247
 3726TIP3    H132593   5.138   2.619  12.054  0.5205  0.3977  0.1762
 3726TIP3    H232594   5.159   2.543  12.183  3.3169 -1.4289 -1.2753
 3727TIP3   OH232595   1.013   5.848   5.537 -0.2075  0.1491 -0.1444
 3727TIP3    H132596   1.034   5.758   5.559 -0.4448 -0.4222 -2.1161
 3727TIP3    H232597   0.919   5.857   5.554  0.1587  0.6332  1.8850
 3728TIP3   OH232598   1.079   5.405   3.371  0.0984 -0.2768 -0.3644
 3728TIP3    H132599   1.020   5.433   3.441  0.2461 -0.7800 -0.0308
 3728TIP3    H232600   1.031   5.420   3.290 -1.1326 -2.1797 -0.0373
 3729TIP3   OH232601   4.976   6.107   6.437  0.3145 -0.2453  0.3266
 3729TIP3    H132602   5.009   6.111   6.527 -1.0213 -0.0728  0.8191
 3729TIP3    H232603   5.044   6.151   6.385  1.5003 -1.0646  1.1117
 3730TIP3   OH232604   0.320   1.494  15.863  0.6966 -0.1188 -0.0390
 3730TIP3    H132605   0.368   1.544  15.929 -0.2779 -0.4759  0.9757
 3730TIP3    H232606   0.369   1.413  15.854 -0.7553 -1.4194  2.5699
 3731TIP3   OH232607   4.178   6.616  15.565 -0.0488 -0.3001  0.2347
 3731TIP3    H132608   4.183   6.575  15.652  1.6249  0.1115  0.3709
 3731TIP3    H232609   4.262   6.596  15.525 -0.8434 -0.5624 -1.3569
 3732TIP3   OH232610   4.944   0.820   0.307 -0.5520 -0.5198  0.0653
 3732TIP3    H132611   4.963   0.812   0.400  1.8532 -0.0777 -0.3288
 3732TIP3    H232612   4.889   0.745   0.287  2.1698 -2.9597  1.0826
 3733TIP3   OH232613   1.894   4.925   2.470 -0.6182  0.4351  0.1540
 3733TIP3    H132614   1.869   4.834   2.487 -1.1935  0.8322  1.5928
 3733TIP3    H232615   1.951   4.948   2.544  1.1442  0.6747 -1.1915
 3734TIP3   OH232616   5.598   1.065  15.888  0.3951 -0.1123 -0.2394
 3734TIP3    H132617   5.571   1.140  15.941 -0.0269  0.0865 -0.7251
 3734TIP3    H232618   5.660   1.017  15.944 -0.7322 -0.4154  0.7974
 3735TIP3   OH232619   2.067   2.493   1.269 -0.0064  0.2332 -0.2219
 3735TIP3    H132620   2.148   2.463   1.229  0.9315  1.5433  0.6306
 3735TIP3    H232621   2.077   2.472   1.362 -0.4383  0.8210 -0.0355
 3736TIP3   OH232622   1.475   6.094   2.020 -0.6915 -0.4751  0.6771
 3736TIP3    H132623   1.386   6.094   1.985 -0.2183  1.3295 -0.7054
 3736TIP3    H232624   1.522   6.156   1.964  0.7640  0.6921  3.0493
 3737TIP3   OH232625   4.505   1.260   3.441 -0.3449 -0.6508  0.2771
 3737TIP3    H132626   4.457   1.319   3.383 -2.4270 -0.8224  1.7152
 3737TIP3    H232627   4.582   1.234   3.390 -1.4483  0.1177 -1.9219
 3738TIP3   OH232628   1.525   4.717   2.249 -1.0575  0.0530  0.3357
 3738TIP3    H132629   1.567   4.803   2.241 -0.7285 -0.2288 -1.0905
 3738TIP3    H232630   1.435   4.737   2.277 -0.5899  0.7682  1.3799
 3739TIP3   OH232631   1.871   2.188   2.713  0.1413 -0.3713  0.0157
 3739TIP3    H132632   1.831   2.211   2.797  0.1854 -0.7905  0.1597
 3739TIP3    H232633   1.807   2.212   2.647  0.7496  1.4451  0.0523
 3740TIP3   OH232634   0.411   3.799  11.819 -0.9232  0.4903 -0.0934
 3740TIP3    H132635   0.379   3.888  11.805  0.2414  1.1443  1.0712
 3740TIP3    H232636   0.486   3.811  11.878 -2.3876 -1.4838  2.3593
 3741TIP3   OH232637   0.266   4.196   4.434  0.0337  1.0922  0.0088
 3741TIP3    H132638   0.203   4.256   4.393 -0.3629 -0.1343 -1.2644
 3741TIP3    H232639   0.327   4.174   4.363  1.5535  1.7614  1.0601
 3742TIP3   OH232640   6.051   3.521  12.553  0.1407  0.1698 -0.2346
 3742TIP3    H132641   6.068   3.449  12.492  1.7558 -0.0461  0.4209
 3742TIP3    H232642   6.098   3.596  12.515  0.4402  0.2539  0.2879
 3743TIP3   OH232643   1.866   0.530   4.541  0.0067  0.7924 -1.0754
 3743TIP3    H132644   1.864   0.625   4.529 -2.8215  1.1309  1.0534
 3743TIP3    H232645   1.779   0.508   4.575 -0.1417 -2.8813 -3.3037
 3744TIP3   OH232646   3.113   6.787   0.066 -0.3279  0.5483  0.2827
 3744TIP3    H132647   3.183   6.725   0.088 -1.1293  0.1960  2.0524
 3744TIP3    H232648   3.159   6.867   0.041  0.7463  0.4270  1.7161
 3745TIP3   OH232649   5.796   5.176   0.237  0.0762 -0.0212 -0.2896
 3745TIP3    H132650   5.864   5.197   0.301  0.7953  1.3631 -1.4565
 3745TIP3    H232651   5.717   5.165   0.290  1.2127 -2.1373  1.1597
 3746TIP3   OH232652   4.580   0.005   4.084 -0.4490  0.0654 -0.1683
 3746TIP3    H132653   4.634  -0.023   4.011 -0.3168  1.3679 -0.5839
 3746TIP3    H232654   4.499  -0.045   4.075  0.8968 -2.5171  0.9097
 3747TIP3   OH232655   1.761   0.643  17.200 -0.0802 -0.5539  0.2175
 3747TIP3    H132656   1.773   0.575  17.268  0.8212 -1.6866 -1.0150
 3747TIP3    H232657   1.718   0.597  17.128 -0.2729  0.4327 -0.3055
 3748TIP3   OH232658   5.333   3.723  14.104  0.8081 -0.0119 -0.7832
 3748TIP3    H132659   5.331   3.730  14.199 -1.3567  2.4389 -0.8802
 3748TIP3    H232660   5.303   3.634  14.085  2.2285 -0.8717  0.7897
 3749TIP3   OH232661   5.399   4.063   6.423  0.2927 -0.4630 -0.3263
 3749TIP3    H132662   5.486   4.104   6.421 -0.9386  2.3768 -1.1495
 3749TIP3    H232663   5.373   4.057   6.331  0.2235 -2.9037 -0.2148
 3750TIP3   OH232664   0.058   5.148   1.326 -0.3835 -1.1116 -0.2376
 3750TIP3    H132665  -0.015   5.097   1.292  0.1242 -1.0500 -1.4518
 3750TIP3    H232666   0.067   5.222   1.266  0.6601 -1.1076 -0.0986
 3751TIP3   OH232667   3.149   6.352   5.755  0.2158 -0.0181  0.3742
 3751TIP3    H132668   3.224   6.297   5.777  1.1783  1.2927  0.5366
 3751TIP3    H232669   3.111   6.374   5.840 -1.6331 -2.3022  0.2211
 3752TIP3   OH232670   3.032   0.529   2.258  0.3371 -0.2358  0.3797
 3752TIP3    H132671   2.938   0.544   2.250  0.0940 -1.9820 -0.7145
 3752TIP3    H232672   3.055   0.561   2.345 -1.2681  0.1893  0.6745
 3753TIP3   OH232673   2.193   1.890  15.883 -0.1908 -0.2650  0.2767
 3753TIP3    H132674   2.258   1.958  15.898 -0.0989 -0.3692  0.3522
 3753TIP3    H232675   2.195   1.837  15.962  0.2714 -0.7946 -0.0817
 3754TIP3   OH232676   0.917   1.253   5.635 -0.7714 -0.0395  0.4620
 3754TIP3    H132677   0.827   1.224   5.619 -0.6202  0.4007 -1.4704
 3754TIP3    H232678   0.952   1.269   5.547  0.7019  1.2805  1.2579
 3755TIP3   OH232679   2.555   6.638  13.398 -0.1276  0.4203  1.0266
 3755TIP3    H132680   2.574   6.553  13.438  0.3069 -0.6899 -1.3827
 3755TIP3    H232681   2.632   6.657  13.345 -1.7230  0.4427 -1.4527
 3756TIP3   OH232682   2.208   1.080  14.498 -0.8023  0.2909 -0.5881
 3756TIP3    H132683   2.299   1.056  14.485 -1.1557 -2.1481  0.7237
 3756TIP3    H232684   2.209   1.140  14.573 -0.3500 -0.8405  0.3428
 3757TIP3   OH232685   4.446   2.757   2.245  0.1366  0.2287 -0.2786
 3757TIP3    H132686   4.458   2.731   2.336 -0.6160  2.8890  0.6639
 3757TIP3    H232687   4.495   2.692   2.195  3.3415  0.4804  2.2056
 3758TIP3   OH232688   5.037   4.753  12.593  0.2474  0.2321 -0.5762
 3758TIP3    H132689   5.130   4.764  12.574 -0.0940  0.9089 -1.9353
 3758TIP3    H232690   5.007   4.840  12.621  0.1347 -0.1208  0.4661
 3759TIP3   OH232691   1.702   4.246  16.907  0.1045  0.1230  0.3012
 3759TIP3    H132692   1.739   4.263  16.820 -0.6201 -0.9719 -0.2575
 3759TIP3    H232693   1.711   4.329  16.954 -1.0828  1.3170 -1.4203
 3760TIP3   OH232694   5.107   3.382   4.611  0.4159 -0.0151 -0.4349
 3760TIP3    H132695   5.095   3.432   4.692  0.7459  0.9529 -0.9694
 3760TIP3    H232696   5.178   3.321   4.631  1.0571  0.7737 -0.2297
 3761TIP3   OH232697   0.422   4.885  13.042  0.5068  0.4351  0.0844
 3761TIP3    H132698   0.365   4.837  13.102  0.5864 -1.2900 -1.1442
 3761TIP3    H232699   0.492   4.918  13.097 -0.2393  0.2552  1.1848
 3762TIP3   OH232700   3.863   2.043  13.656 -0.0412  0.2786  0.1657
 3762TIP3    H132701   3.896   2.035  13.745  0.5873 -0.3482 -0.1090
 3762TIP3    H232702   3.927   2.098  13.611 -1.5831  2.6370  0.6722
 3763TIP3   OH232703   5.111   6.108  12.498 -0.4355  0.3377  0.8531
 3763TIP3    H132704   5.069   6.148  12.422  0.0254 -1.0039 -0.1630
 3763TIP3    H232705   5.195   6.154  12.506 -0.6499  0.7405  0.7728
 3764TIP3   OH232706   6.496   1.343  16.508 -0.0619  0.1994  0.1250
 3764TIP3    H132707   6.567   1.325  16.446 -1.4811  0.5262 -1.6581
 3764TIP3    H232708   6.516   1.431  16.540 -1.0615  1.4785 -2.4914
 3765TIP3   OH232709   0.738   5.624  16.914  0.0941 -0.2476 -0.1040
 3765TIP3    H132710   0.680   5.692  16.878 -0.7832 -0.9554 -0.0590
 3765TIP3    H232711   0.819   5.670  16.933 -0.3154  0.6899 -0.5451
 3766TIP3   OH232712   5.884   0.357   2.192  0.1572  0.0424 -0.4075
 3766TIP3    H132713   5.936   0.433   2.168 -1.6197  1.5807  0.3004
 3766TIP3    H232714   5.947   0.286   2.203  1.8596  1.3747 -1.2136
 3767TIP3   OH232715   1.424   2.778  17.054 -0.1998  0.1322 -0.1583
 3767TIP3    H132716   1.472   2.779  16.972  1.1594 -0.9271  0.5640
 3767TIP3    H232717   1.404   2.869  17.073  0.5806  0.4917 -1.0358
 3768TIP3   OH232718   1.860   4.707  14.735  0.2964 -0.2980  0.1241
 3768TIP3    H132719   1.794   4.775  14.748  0.9420  0.3074  0.2897
 3768TIP3    H232720   1.869   4.700  14.640  0.1426 -0.2358  0.1045
 3769TIP3   OH232721   2.196   1.234  11.843 -0.4151  0.0713 -0.2253
 3769TIP3    H132722   2.243   1.162  11.886 -1.5840 -0.2459  0.5948
 3769TIP3    H232723   2.147   1.276  11.915 -0.1529  1.3688 -0.7782
 3770TIP3   OH232724   1.518   2.933  11.083 -0.0388  0.1522 -0.1307
 3770TIP3    H132725   1.599   2.950  11.035  0.3226  3.2574  1.3143
 3770TIP3    H232726   1.548   2.911  11.172 -0.7706  0.0862  0.1003
 3771TIP3   OH232727   6.558   2.519  14.698 -0.1672 -0.5373 -0.5936
 3771TIP3    H132728   6.612   2.477  14.764 -0.6873  1.0448  0.9127
 3771TIP3    H232729   6.617   2.579  14.652 -0.2266 -0.1095 -0.1297
 3772TIP3   OH232730   4.199   1.143   3.135  0.9063 -0.0111  0.5388
 3772TIP3    H132731   4.246   1.094   3.203 -0.0020 -1.0159  0.4913
 3772TIP3    H232732   4.168   1.222   3.179 -0.6133 -1.1662  1.6524
 3773TIP3   OH232733   6.651   4.215  12.758 -0.2216 -0.0133 -0.0517
 3773TIP3    H132734   6.618   4.125  12.761  0.0451 -0.1138 -0.1163
 3773TIP3    H232735   6.573   4.268  12.743 -0.4431 -0.1971  0.4235
 3774TIP3   OH232736   3.027   4.849  17.113 -0.4454 -0.4558  0.5164
 3774TIP3    H132737   3.067   4.769  17.081 -0.8625 -0.6826  0.5538
 3774TIP3    H232738   3.094   4.916  17.102 -0.3539 -0.6615 -0.1987
 3775TIP3   OH232739   6.366   1.367   0.458  0.0657 -0.6670 -0.2282
 3775TIP3    H132740   6.365   1.455   0.421 -0.1942 -1.1441 -1.3858
 3775TIP3    H232741   6.386   1.381   0.551 -0.7079  0.6656 -0.2315
 3776TIP3   OH232742   3.168   2.755   0.366  0.2226  0.3069  0.4841
 3776TIP3    H132743   3.137   2.695   0.298  3.2033  0.2389 -0.9852
 3776TIP3    H232744   3.108   2.829   0.362 -0.6628 -0.4475 -1.0637
 3777TIP3   OH232745   6.368   0.244  11.761 -0.4929  0.0761 -0.1642
 3777TIP3    H132746   6.443   0.205  11.716 -0.5728  0.9593 -1.0956
 3777TIP3    H232747   6.323   0.294  11.693 -1.0835  0.7797  0.7310
 3778TIP3   OH232748   5.206   2.335   0.623 -0.5070  0.0126 -0.0858
 3778TIP3    H132749   5.134   2.301   0.676 -1.2354 -0.9470 -1.6124
 3778TIP3    H232750   5.242   2.258   0.580 -0.1412  0.7855 -1.2048
 3779TIP3   OH232751   4.740   0.525   4.356  0.2155  0.0646  0.4981
 3779TIP3    H132752   4.679   0.599   4.346 -0.5558 -0.7900 -1.5952
 3779TIP3    H232753   4.698   0.469   4.421 -1.2053 -0.4290 -0.7909
 3780TIP3   OH232754   4.688   5.178   3.658  0.1534  0.3295  0.1475
 3780TIP3    H132755   4.642   5.098   3.682 -0.4908  0.8409  0.7001
 3780TIP3    H232756   4.617   5.241   3.640  0.6413  0.6747 -0.6331
 3781TIP3   OH232757   3.794   1.096   4.327  0.6100 -0.0678 -0.0639
 3781TIP3    H132758   3.832   1.095   4.240  1.3070 -0.3695  0.2374
 3781TIP3    H232759   3.844   1.163   4.375 -1.1341  1.6250 -0.4748
 3782TIP3   OH232760   0.993   2.823  11.454 -0.6820  0.5072  0.1071
 3782TIP3    H132761   0.954   2.828  11.542 -0.7515  1.1035  0.0507
 3782TIP3    H232762   1.055   2.896  11.453  1.4846 -1.2266  0.6873
 3783TIP3   OH232763   4.610   1.218   4.108  0.3051 -0.2722  0.0536
 3783TIP3    H132764   4.637   1.267   4.030  0.9940  0.9319  1.0259
 3783TIP3    H232765   4.524   1.183   4.085  0.9525 -0.8882 -1.6568
 3784TIP3   OH232766   5.720   4.027   6.043 -0.0360  0.1067 -0.3551
 3784TIP3    H132767   5.752   3.964   6.107 -0.3938 -0.8941 -1.1466
 3784TIP3    H232768   5.785   4.025   5.972 -1.7771 -2.0432 -2.0386
 3785TIP3   OH232769   2.068   4.632  13.883 -0.2303 -0.3903 -0.0300
 3785TIP3    H132770   2.021   4.584  13.815 -0.9973  0.2832  0.0068
 3785TIP3    H232771   2.156   4.594  13.883  0.2654  0.5897 -2.4490
 3786TIP3   OH232772   0.866   3.231   2.338  0.5242  0.1902  0.1070
 3786TIP3    H132773   0.954   3.239   2.302  0.3036 -1.2624 -0.8272
 3786TIP3    H232774   0.875   3.166   2.408  0.3807  0.8337  0.7378
 3787TIP3   OH232775   0.121   4.292  12.786  0.2692  0.1380  0.4783
 3787TIP3    H132776   0.028   4.288  12.763  0.5926  0.8667 -1.0696
 3787TIP3    H232777   0.148   4.200  12.787 -0.3576 -0.0556  0.4286
 3788TIP3   OH232778   2.714   1.317  13.126 -0.1564 -0.0522 -0.3278
 3788TIP3    H132779   2.711   1.409  13.153 -1.0161 -0.4909  1.1531
 3788TIP3    H232780   2.806   1.293  13.134  0.1199  0.7345 -0.9803
 3789TIP3   OH232781   1.244   1.606   5.345 -0.1527  0.1524  0.3544
 3789TIP3    H132782   1.251   1.636   5.435  0.1587  0.5994  0.1858
 3789TIP3    H232783   1.303   1.530   5.339 -0.8157 -0.4011  0.7393
 3790TIP3   OH232784   6.514   0.317  14.903  0.2723  0.0858  0.1398
 3790TIP3    H132785   6.573   0.313  14.978  1.1902  1.2048 -0.4875
 3790TIP3    H232786   6.448   0.381  14.928  0.6780  0.5892 -0.0663
 3791TIP3   OH232787   6.273   0.215   4.162  0.1704  0.0062 -0.3046
 3791TIP3    H132788   6.264   0.122   4.183  0.0586  0.1887  0.4934
 3791TIP3    H232789   6.355   0.221   4.112  0.6569 -0.4038  0.4264
 3792TIP3   OH232790   2.734   6.486   1.157 -0.6140  0.3015 -0.3917
 3792TIP3    H132791   2.779   6.570   1.165 -0.6546  0.3128 -0.2830
 3792TIP3    H232792   2.661   6.491   1.218  0.6227 -0.6377  1.2452
 3793TIP3   OH232793   4.084   6.704  15.107  0.1320 -0.0563 -0.1568
 3793TIP3    H132794   4.006   6.717  15.159  0.6291 -0.5149  0.7212
 3793TIP3    H232795   4.088   6.610  15.091  1.4930 -0.3156  1.4328
 3794TIP3   OH232796   2.752   1.735   5.626 -0.3183 -0.1573  0.4985
 3794TIP3    H132797   2.832   1.739   5.679  0.2757  1.1143 -0.4245
 3794TIP3    H232798   2.707   1.818   5.644 -0.6413 -0.1791 -0.1537
 3795TIP3   OH232799   1.985   1.124   5.265  0.0108 -0.5234  0.0154
 3795TIP3    H132800   2.035   1.059   5.314 -0.4845 -0.3137  0.8250
 3795TIP3    H232801   2.009   1.208   5.304 -0.0129 -0.2987 -0.4393
 3796TIP3   OH232802   6.471   2.104   0.988  0.0924  0.2163  0.0909
 3796TIP3    H132803   6.528   2.179   1.005  0.6950 -0.2150  0.0001
 3796TIP3    H232804   6.387   2.143   0.963  0.8702  0.8970 -1.6214
 3797TIP3   OH232805   2.118   3.618  12.715  0.1868 -0.2099 -0.2249
 3797TIP3    H132806   2.114   3.599  12.809 -2.5221  1.7592  0.1985
 3797TIP3    H232807   2.061   3.552  12.676 -1.3192  0.8864  0.0094
 3798TIP3   OH232808   4.949   2.710   1.239  0.0464  0.5685 -0.3609
 3798TIP3    H132809   4.883   2.640   1.240  1.5899 -0.9650  0.6416
 3798TIP3    H232810   5.032   2.664   1.253  0.9755  2.7624  2.1013
 3799TIP3   OH232811   5.681   1.438   3.922  0.1266  0.1239 -0.1938
 3799TIP3    H132812   5.637   1.362   3.961  1.2326 -0.3757  0.1203
 3799TIP3    H232813   5.764   1.444   3.969 -0.1608  1.8667  0.1515
 3800TIP3   OH232814   2.917   2.937  16.360  0.3159  0.2512  0.3346
 3800TIP3    H132815   2.950   3.019  16.396 -2.0187  1.5170 -0.2097
 3800TIP3    H232816   2.852   2.964  16.295 -1.8539 -1.9688  1.4052
 3801TIP3   OH232817   4.396   2.274   2.344  0.3785 -0.0154 -0.0649
 3801TIP3    H132818   4.439   2.188   2.345 -0.4985 -0.4863 -0.9624
 3801TIP3    H232819   4.304   2.254   2.325 -0.2925  0.9530  1.9226
 3802TIP3   OH232820   4.598   3.733   0.680 -0.4195 -0.1301 -0.4917
 3802TIP3    H132821   4.540   3.700   0.612  0.8899 -0.1830 -1.6127
 3802TIP3    H232822   4.589   3.669   0.751 -1.1304 -0.5512 -0.9439
 3803TIP3   OH232823   0.212   6.587   1.885  0.2664  0.1218 -0.0771
 3803TIP3    H132824   0.257   6.511   1.923  0.8359  0.8424  0.7213
 3803TIP3    H232825   0.212   6.652   1.955 -2.1133  0.1377  0.0018
 3804TIP3   OH232826   4.159   3.580  16.874  0.2511  0.5162  0.5861
 3804TIP3    H132827   4.138   3.624  16.957  0.2895 -2.0018  2.0240
 3804TIP3    H232828   4.212   3.505  16.900 -1.5688 -1.6280 -1.4589
 3805TIP3   OH232829   0.594   1.310   2.381 -0.0716 -0.6184  0.5345
 3805TIP3    H132830   0.677   1.355   2.361 -0.2184 -0.3181  0.5961
 3805TIP3    H232831   0.618   1.217   2.386  0.4092 -0.4670  1.3004
 3806TIP3   OH232832   4.739   1.850  13.788 -0.8668  0.1498  0.6866
 3806TIP3    H132833   4.822   1.868  13.745 -1.6441  1.5518 -0.2805
 3806TIP3    H232834   4.732   1.916  13.857 -1.8021  0.9308 -0.1367
 3807TIP3   OH232835   0.834   6.316  17.165  0.1624  0.3415 -0.3167
 3807TIP3    H132836   0.883   6.235  17.155 -0.9021 -0.3247 -0.3633
 3807TIP3    H232837   0.790   6.308  17.249 -0.5633  0.5189 -0.6670
 3808TIP3   OH232838   3.592   3.253  16.279 -0.3663 -0.5224  0.2164
 3808TIP3    H132839   3.558   3.211  16.358 -0.3107  1.3180  1.2795
 3808TIP3    H232840   3.684   3.269  16.299 -0.6766  1.2374  0.3988
 3809TIP3   OH232841   2.698   3.294  13.838  0.3187  0.3369 -0.0321
 3809TIP3    H132842   2.672   3.204  13.818  0.4638 -0.4336  2.7467
 3809TIP3    H232843   2.792   3.287  13.858  0.7856  1.5027 -1.6575
 3810TIP3   OH232844   0.671   5.014   5.884  0.3229  0.1150 -0.7663
 3810TIP3    H132845   0.706   4.939   5.836 -0.3391 -0.0400 -1.0152
 3810TIP3    H232846   0.717   5.012   5.968  0.1728 -0.6920 -0.6954
 3811TIP3   OH232847   6.199   0.476   3.967  0.4508  0.1247 -0.1258
 3811TIP3    H132848   6.270   0.414   3.985 -0.2244 -0.6713 -0.1489
 3811TIP3    H232849   6.189   0.475   3.872 -0.2855 -0.5726 -0.0520
 3812TIP3   OH232850   0.788   3.400  17.030 -0.6591 -0.4726  0.3104
 3812TIP3    H132851   0.726   3.335  16.996 -1.5390 -0.2878  1.4935
 3812TIP3    H232852   0.771   3.479  16.979  0.1684 -1.0363 -0.8898
 3813TIP3   OH232853   1.750   6.190  11.748  0.1034  0.3918 -0.0524
 3813TIP3    H132854   1.703   6.191  11.665 -0.4310  0.2433  0.2382
 3813TIP3    H232855   1.841   6.173  11.725 -0.4169 -2.2029 -0.4319
 3814TIP3   OH232856   6.105   5.348   4.598  0.2995  0.1341 -0.2452
 3814TIP3    H132857   6.049   5.425   4.613  1.4856  0.7452  1.2142
 3814TIP3    H232858   6.194   5.379   4.614  0.9134 -1.2813 -0.7528
 3815TIP3   OH232859   0.744   5.317  16.310  0.1558 -0.2066 -0.6523
 3815TIP3    H132860   0.693   5.328  16.230 -0.6806  1.6274  0.0960
 3815TIP3    H232861   0.697   5.250  16.359 -0.6928  0.3817 -0.6440
 3816TIP3   OH232862   5.954   0.483   5.567  0.5635 -0.3078 -0.1522
 3816TIP3    H132863   5.874   0.433   5.552  0.8034 -0.5823 -0.5443
 3816TIP3    H232864   5.934   0.572   5.539  0.3868 -0.3706 -0.2233
 3817TIP3   OH232865   1.311   4.569   0.665  0.2333 -0.4228 -0.0316
 3817TIP3    H132866   1.244   4.543   0.728 -1.2535  0.0601 -1.3750
 3817TIP3    H232867   1.293   4.661   0.647  2.1684  0.1425  0.6401
 3818TIP3   OH232868   0.356   6.262   0.246  0.0110  0.4416 -0.0943
 3818TIP3    H132869   0.300   6.204   0.194 -0.7425  1.3700 -0.3421
 3818TIP3    H232870   0.412   6.305   0.181  0.1206  0.4824  0.0277
 3819TIP3   OH232871   6.750   0.607  14.902  0.0399  0.1863  0.0339
 3819TIP3    H132872   6.826   0.551  14.917 -0.1803  0.1152  0.9941
 3819TIP3    H232873   6.723   0.633  14.990 -0.7386  0.6237 -0.3265
 3820TIP3   OH232874   3.052   1.373  14.712 -0.0840 -0.4634  0.2166
 3820TIP3    H132875   3.122   1.360  14.649 -0.3999 -1.2741  0.0132
 3820TIP3    H232876   3.069   1.459  14.750  0.0631  0.0710 -1.0257
 3821TIP3   OH232877   6.613   1.847   6.461 -0.3133 -0.2053  1.3643
 3821TIP3    H132878   6.661   1.790   6.401 -0.2493  0.7252  0.4933
 3821TIP3    H232879   6.595   1.926   6.409 -1.6462 -0.0134  2.0884
 3822TIP3   OH232880   6.417   2.417  16.949 -0.1360 -0.5721  0.0551
 3822TIP3    H132881   6.357   2.491  16.961  2.7470  2.1183 -0.7030
 3822TIP3    H232882   6.415   2.398  16.855 -0.8114 -1.4512  0.2348
 3823TIP3   OH232883   0.374   1.395  13.615  0.4084 -0.1699  0.0260
 3823TIP3    H132884   0.322   1.460  13.568  1.3539  0.3078 -0.4051
 3823TIP3    H232885   0.310   1.339  13.659 -0.6847 -2.1846 -3.7773
 3824TIP3   OH232886   6.540   6.378   1.352  0.4479  1.0263  0.0778
 3824TIP3    H132887   6.541   6.439   1.426  1.3921  0.9431  0.1460
 3824TIP3    H232888   6.454   6.337   1.356  0.9076  0.1736  1.8391
 3825TIP3   OH232889   1.714   1.944   2.728  0.2964  0.3381 -0.0091
 3825TIP3    H132890   1.635   1.948   2.674  0.0811  1.3829  0.3721
 3825TIP3    H232891   1.778   1.996   2.681  0.5943 -0.0425 -0.0306
 3826TIP3   OH232892   4.337   5.577   6.171  0.0204  0.4319 -0.0667
 3826TIP3    H132893   4.282   5.607   6.243 -1.1301  0.7577 -1.0335
 3826TIP3    H232894   4.334   5.649   6.107 -0.4801 -0.5486 -1.1985
 3827TIP3   OH232895   3.961   3.827   4.298  0.7686 -0.3103 -0.4236
 3827TIP3    H132896   4.039   3.877   4.322  0.7971 -1.0712  1.2541
 3827TIP3    H232897   3.989   3.736   4.302 -0.4759 -0.6604  1.4651
 3828TIP3   OH232898   6.044   3.186   3.358 -0.6467 -0.2740  0.6110
 3828TIP3    H132899   6.037   3.250   3.287 -1.5623 -0.2788  0.6850
 3828TIP3    H232900   6.056   3.239   3.436  2.2977 -0.3148  0.2751
 3829TIP3   OH232901   2.842   0.884   2.702  0.1702  0.8291 -0.1826
 3829TIP3    H132902   2.894   0.940   2.645  1.4222  0.7694  0.8710
 3829TIP3    H232903   2.849   0.797   2.664  1.2937  0.7243  0.2294
 3830TIP3   OH232904   2.387   0.602  13.404 -0.0424 -0.0256  0.2884
 3830TIP3    H132905   2.417   0.533  13.345  0.8045  0.5013  0.0831
 3830TIP3    H232906   2.467   0.647  13.431 -0.4063 -0.3261  1.9421
 3831TIP3   OH232907   4.008   3.670  12.793 -0.2642 -0.0298  0.3619
 3831TIP3    H132908   4.060   3.737  12.838 -0.8866 -0.0419  1.1194
 3831TIP3    H232909   4.036   3.588  12.832  1.6228 -0.4196 -1.6414
 3832TIP3   OH232910   1.928   3.284  13.274  0.6982  1.0196  0.0510
 3832TIP3    H132911   1.915   3.344  13.348  2.8239  1.2130  0.3111
 3832TIP3    H232912   1.999   3.324  13.223 -0.8252  0.9932 -2.2496
 3833TIP3   OH232913   1.266   1.488   0.669 -0.3517 -0.3298 -0.4940
 3833TIP3    H132914   1.246   1.472   0.577 -0.9151 -2.0486 -0.1105
 3833TIP3    H232915   1.181   1.512   0.708 -0.2016 -0.0567 -0.3303
 3834TIP3   OH232916   3.645   2.907   5.315 -0.0040 -0.1268 -0.5114
 3834TIP3    H132917   3.580   2.852   5.271  0.4219  0.8177 -2.4316
 3834TIP3    H232918   3.599   2.941   5.392 -1.4827 -0.2771 -1.2782
 3835TIP3   OH232919   0.338   2.016   0.119 -0.0608 -0.8292  0.6315
 3835TIP3    H132920   0.431   2.026   0.099  0.2884 -2.2626  1.4276
 3835TIP3    H232921   0.329   2.048   0.208 -0.0307 -2.0097  1.0793
 3836TIP3   OH232922   0.327   5.189   1.700 -0.1875 -0.1640 -0.0594
 3836TIP3    H132923   0.316   5.198   1.795  0.7299  0.1609  0.0226
 3836TIP3    H232924   0.240   5.206   1.664 -0.6345 -0.6706  0.7437
 3837TIP3   OH232925   2.708   5.015   5.665  0.3611 -0.1447  0.1021
 3837TIP3    H132926   2.622   5.026   5.704 -0.2187 -0.2587 -1.0930
 3837TIP3    H232927   2.760   5.087   5.700 -0.0028 -0.4994  1.4015
 3838TIP3   OH232928   0.873   5.796  15.235  0.3048  0.1271  0.4705
 3838TIP3    H132929   0.953   5.836  15.269  0.0052  0.8862  0.3011
 3838TIP3    H232930   0.803   5.851  15.269 -0.1582 -0.5920  0.6976
 3839TIP3   OH232931   1.436   4.885  10.659  0.1367  0.1263  0.0194
 3839TIP3    H132932   1.362   4.943  10.647  0.8726  1.4761  1.5921
 3839TIP3    H232933   1.512   4.938  10.635  0.6388 -1.2802 -1.7363
 3840TIP3   OH232934   1.740   4.846  15.180  0.1204 -0.3157 -0.3170
 3840TIP3    H132935   1.724   4.766  15.130  1.0169 -1.7380  1.5046
 3840TIP3    H232936   1.666   4.852  15.241  1.0846 -1.0310  0.9984
 3841TIP3   OH232937   0.873   5.983  10.930 -0.2008 -0.4271 -0.2534
 3841TIP3    H132938   0.777   5.978  10.925 -0.2817 -1.5410  1.2844
 3841TIP3    H232939   0.897   6.058  10.876 -1.9953  0.2524 -0.1674
 3842TIP3   OH232940   6.561   5.010   1.882 -0.2774  0.3256 -0.7725
 3842TIP3    H132941   6.489   5.041   1.827 -0.1149  0.0500 -1.1467
 3842TIP3    H232942   6.543   5.046   1.969  0.0869  1.7376 -1.2638
 3843TIP3   OH232943   4.108   6.628  14.232 -0.1434  0.2297 -0.1801
 3843TIP3    H132944   4.160   6.655  14.307  0.6198 -2.5142  0.3818
 3843TIP3    H232945   4.172   6.607  14.163 -0.4782 -1.9443  0.0940
 3844TIP3   OH232946   1.446   0.086  15.615  0.0720  0.3358  0.6719
 3844TIP3    H132947   1.363   0.072  15.662  0.2701  2.7542  1.9131
 3844TIP3    H232948   1.476   0.172  15.645  1.2251  1.1795 -2.5117
 3845TIP3   OH232949   4.481   1.505  15.114 -0.2022  0.4743 -0.4113
 3845TIP3    H132950   4.426   1.460  15.050  0.3898  0.4325 -0.8934
 3845TIP3    H232951   4.468   1.598  15.096  0.3587  0.4576 -0.9399
 3846TIP3   OH232952   2.491   6.313  17.173  0.0719  0.3360  0.4534
 3846TIP3    H132953   2.574   6.299  17.220  0.6421 -0.1928 -0.6693
 3846TIP3    H232954   2.500   6.400  17.133 -0.6716  1.0609  1.8030
 3847TIP3   OH232955   0.546   5.254  16.822  0.2219  0.4306 -0.5251
 3847TIP3    H132956   0.473   5.193  16.832 -0.3727  1.0398 -1.0571
 3847TIP3    H232957   0.588   5.255  16.908 -1.3272  1.2337  0.2738
 3848TIP3   OH232958   1.233   0.943  13.626  0.0098  0.0307 -0.7202
 3848TIP3    H132959   1.251   0.881  13.555  0.1516  0.6685 -1.2583
 3848TIP3    H232960   1.272   0.904  13.704 -0.4487 -0.8486 -0.9223
 3849TIP3   OH232961   4.906   1.605   3.480 -0.0432 -0.1392  0.2935
 3849TIP3    H132962   4.961   1.682   3.468 -0.7508  0.4149  0.5243
 3849TIP3    H232963   4.968   1.532   3.489  0.8184  0.8225  3.3125
 3850TIP3   OH232964   4.590   5.723   3.104  0.3531  0.4980 -0.0214
 3850TIP3    H132965   4.671   5.709   3.153 -0.2499 -0.8876  0.6146
 3850TIP3    H232966   4.608   5.687   3.017  0.4716  0.3664  0.0572
 3851TIP3   OH232967   0.046   0.598   0.086  0.1388  0.2592  0.5765
 3851TIP3    H132968   0.123   0.652   0.105  0.7465  0.9019 -2.9387
 3851TIP3    H232969   0.075   0.508   0.099  0.6033  0.5651  1.8316
 3852TIP3   OH232970   1.621   1.734   5.182  0.1741 -0.0787  0.5486
 3852TIP3    H132971   1.561   1.660   5.178 -0.3303  0.3646 -0.3210
 3852TIP3    H232972   1.690   1.714   5.118 -1.2982  1.3082 -1.6310
 3853TIP3   OH232973   3.171   2.219   5.414  0.2118 -0.7342  0.3570
 3853TIP3    H132974   3.239   2.209   5.480 -0.7416 -0.7693  1.3477
 3853TIP3    H232975   3.177   2.139   5.361  1.5923 -0.2878 -0.2176
 3854TIP3   OH232976   2.696   5.800   0.432 -0.2791 -0.1034  0.9466
 3854TIP3    H132977   2.628   5.803   0.500 -0.7425  0.3450  0.4698
 3854TIP3    H232978   2.735   5.887   0.434 -0.4141 -0.0312  0.5204
 3855TIP3   OH232979   5.456   0.533   5.735 -0.0074  0.8141  0.2046
 3855TIP3    H132980   5.481   0.461   5.793 -0.3723 -0.7253 -1.4451
 3855TIP3    H232981   5.362   0.518   5.718 -0.5002  2.6328  1.0717
 3856TIP3   OH232982   2.289   1.228   3.070 -0.0603  0.1808 -0.2378
 3856TIP3    H132983   2.228   1.189   3.007  0.3768  1.0126 -1.2053
 3856TIP3    H232984   2.367   1.174   3.064 -0.1340  0.0642 -0.1616
 3857TIP3   OH232985   5.012   0.628  13.439 -0.5261  0.1550  0.2523
 3857TIP3    H132986   5.057   0.708  13.412 -0.1746 -0.2163 -0.2644
 3857TIP3    H232987   5.055   0.558  13.390 -1.5710 -0.2261 -0.1427
 3858TIP3   OH232988   6.239   4.584  15.873  0.2090 -0.2677  0.4553
 3858TIP3    H132989   6.265   4.500  15.836  0.0427 -0.0577 -0.1483
 3858TIP3    H232990   6.318   4.637  15.871  0.2563 -0.3297  0.6238
 3859TIP3   OH232991   4.275   4.306   0.656  0.0668  0.3756 -0.1575
 3859TIP3    H132992   4.354   4.263   0.686  0.2047  0.0767 -0.9390
 3859TIP3    H232993   4.256   4.267   0.570 -1.7855 -0.6838  0.6512
 3860TIP3   OH232994   3.680   6.001  13.105  0.5234  0.3431  0.2226
 3860TIP3    H132995   3.760   6.035  13.144 -0.0605  3.5882 -1.1340
 3860TIP3    H232996   3.694   6.008  13.011 -2.1816  3.5664 -0.1222
 3861TIP3   OH232997   5.110   0.003   4.487 -0.1224 -0.0908  0.6957
 3861TIP3    H132998   5.116  -0.085   4.524  1.6944 -0.5667 -0.5748
 3861TIP3    H232999   5.094  -0.011   4.394 -1.7535  0.9966  0.7788
 3862TIP3   OH233000   4.743   4.808   5.719  0.2698 -0.0821 -0.1085
 3862TIP3    H133001   4.771   4.727   5.677  2.2511  0.3821  0.2046
 3862TIP3    H233002   4.824   4.847   5.752 -0.8462  1.1826  1.2569
 3863TIP3   OH233003   0.434   2.666  16.527 -0.0137  0.0561  0.1466
 3863TIP3    H133004   0.482   2.619  16.595 -1.5068 -0.4176  0.9179
 3863TIP3    H233005   0.478   2.751  16.521  1.6596 -0.7830 -0.0590
 3864TIP3   OH233006   3.819   4.729   4.727 -0.2332 -0.7495 -0.4185
 3864TIP3    H133007   3.909   4.753   4.702 -0.8897  1.3267 -1.0239
 3864TIP3    H233008   3.765   4.798   4.688 -1.9153 -0.8425  1.5936
 3865TIP3   OH233009   1.803   1.755   6.692  0.1553  0.1433  0.1768
 3865TIP3    H133010   1.716   1.740   6.656  0.3778  1.9709 -1.3086
 3865TIP3    H233011   1.789   1.819   6.763  0.2590  0.2216  0.1269
 3866TIP3   OH233012   3.780   2.879  15.002 -0.4669  0.5277  0.7123
 3866TIP3    H133013   3.804   2.913  15.088  0.4866 -0.0618  0.6888
 3866TIP3    H233014   3.856   2.896  14.947 -1.1815  1.1779 -0.1159
 3867TIP3   OH233015   5.912   3.964   2.972 -0.1305  0.2489 -0.0801
 3867TIP3    H133016   5.918   3.891   3.033 -2.1311 -0.4495 -0.6337
 3867TIP3    H233017   5.853   4.027   3.015 -1.1975 -0.0527 -1.0451
 3868TIP3   OH233018   6.442   1.720  15.019  0.2043 -0.5280 -0.3279
 3868TIP3    H133019   6.482   1.783  14.959 -0.8764  1.2589  0.7385
 3868TIP3    H233020   6.402   1.655  14.961  0.8025  0.1030 -1.5007
 3869TIP3   OH233021   3.703   1.364  15.343  0.1011 -0.4363  0.1703
 3869TIP3    H133022   3.730   1.315  15.266 -1.3325  0.3535 -0.8699
 3869TIP3    H233023   3.728   1.454  15.325  0.5456 -0.3712  1.0296
 3870TIP3   OH233024   2.764   5.515   1.612  0.1071 -0.1177 -0.3176
 3870TIP3    H133025   2.818   5.462   1.554 -1.3680 -1.2892 -0.7122
 3870TIP3    H233026   2.692   5.546   1.556 -0.7503 -0.3506  0.6155
 3871TIP3   OH233027   5.469   4.929  15.339 -0.2419  1.0311  0.0308
 3871TIP3    H133028   5.373   4.933  15.330 -0.3899  0.3066  1.1446
 3871TIP3    H233029   5.499   4.900  15.253 -1.1871 -0.5483  0.1875
 3872TIP3   OH233030   2.128   3.554   4.947  0.2733 -0.4451 -0.4212
 3872TIP3    H133031   2.184   3.478   4.966  0.0904 -0.1690  1.4437
 3872TIP3    H233032   2.054   3.545   5.008  1.4368  2.4348  1.6636
 3873TIP3   OH233033   6.757   1.376   0.966 -0.4526  0.6405  0.0604
 3873TIP3    H133034   6.792   1.288   0.978  0.7167  1.2595  1.5853
 3873TIP3    H233035   6.797   1.407   0.886 -0.9043 -0.2093 -0.5141
 3874TIP3   OH233036   5.531   6.419   0.182  0.2525  0.1579  0.3735
 3874TIP3    H133037   5.604   6.459   0.230  0.0835  0.3917  0.4390
 3874TIP3    H233038   5.517   6.478   0.108 -0.4803  0.6330  0.8709
 3875TIP3   OH233039   1.333   4.148   2.353 -0.6873 -0.2324 -0.0970
 3875TIP3    H133040   1.344   4.238   2.382 -2.9117  1.5059 -3.9224
 3875TIP3    H233041   1.374   4.145   2.267 -0.3535 -3.0597  0.0453
 3876TIP3   OH233042   1.188   0.998  11.003  0.2072 -0.2357 -0.0102
 3876TIP3    H133043   1.279   0.970  11.003 -0.0089 -1.0260 -1.2519
 3876TIP3    H233044   1.149   0.954  10.927 -1.3526 -0.4008  0.8379
 3877TIP3   OH233045   0.864   6.646  12.584  0.1751  0.6634  0.0207
 3877TIP3    H133046   0.872   6.726  12.533  1.9639  0.7388  0.3682
 3877TIP3    H233047   0.929   6.654  12.653 -0.3011 -0.6566  0.6657
 3878TIP3   OH233048   4.496   6.421   5.096 -0.1584 -0.1981 -0.2002
 3878TIP3    H133049   4.577   6.373   5.081 -0.5593 -0.7107 -0.7606
 3878TIP3    H233050   4.479   6.468   5.014  0.7023  1.6568  0.6270
 3879TIP3   OH233051   3.759   1.209  11.818  0.2401  0.4563 -0.2588
 3879TIP3    H133052   3.678   1.231  11.865  0.7469 -0.0236  0.8642
 3879TIP3    H233053   3.803   1.292  11.806 -0.6388  0.7995 -1.3423
 3880TIP3   OH233054   3.818   5.226  11.921  0.4219 -0.1099  0.4982
 3880TIP3    H133055   3.787   5.136  11.913  0.8324 -0.2792  0.7551
 3880TIP3    H233056   3.740   5.280  11.908  0.1098 -0.5119  0.6791
 3881TIP3   OH233057   3.352   0.431  12.936 -0.0339  0.1930  0.0253
 3881TIP3    H133058   3.257   0.446  12.932 -0.5291 -1.6075  2.4551
 3881TIP3    H233059   3.378   0.471  13.019  0.8822 -1.2510  0.4672
 3882TIP3   OH233060   2.665   0.452   4.225 -0.2044 -0.1887  0.3033
 3882TIP3    H133061   2.745   0.415   4.188  0.2880  1.5098 -0.4337
 3882TIP3    H233062   2.595   0.393   4.195  0.3550  0.2881 -2.1306
 3883TIP3   OH233063   2.643   4.399   0.985 -0.4463  0.5419 -0.9804
 3883TIP3    H133064   2.629   4.456   0.909  0.0111 -0.1437 -1.6042
 3883TIP3    H233065   2.581   4.326   0.972  1.7309 -1.1914 -2.4012
 3884TIP3   OH233066   5.459   1.875   4.977 -0.2536 -0.1800  0.0888
 3884TIP3    H133067   5.475   1.810   4.908  0.9069 -1.1850  1.2699
 3884TIP3    H233068   5.518   1.947   4.956 -1.7107  0.6604 -1.3590
 3885TIP3   OH233069   0.442   0.815  14.088 -0.4947  0.4020 -0.5399
 3885TIP3    H133070   0.487   0.900  14.093  0.1401  0.1131 -1.1609
 3885TIP3    H233071   0.359   0.829  14.134  0.0188  1.0799  0.1993
 3886TIP3   OH233072   2.389   6.383   4.867 -0.2702  0.2323 -0.5447
 3886TIP3    H133073   2.297   6.364   4.885 -0.1050  0.8212  1.1509
 3886TIP3    H233074   2.437   6.315   4.914  0.1844  1.4000  0.7437
 3887TIP3   OH233075   4.440   0.338  13.339  0.1847 -0.5939  0.1872
 3887TIP3    H133076   4.521   0.287  13.344  0.3686 -0.3044  0.1540
 3887TIP3    H233077   4.423   0.365  13.430  1.1208  0.8968 -0.0569
 3888TIP3   OH233078   4.166   5.551  15.528 -0.0568  0.3748  0.4716
 3888TIP3    H133079   4.197   5.573  15.616  0.3942 -2.7617  1.2319
 3888TIP3    H233080   4.245   5.556  15.473  0.1309  0.2050  0.7217
 3889TIP3   OH233081   2.486   3.675  15.096 -0.6148 -0.0455  0.3031
 3889TIP3    H133082   2.546   3.712  15.031 -0.4887  0.7724  0.8681
 3889TIP3    H233083   2.455   3.750  15.146 -2.9032 -0.3186 -0.6058
 3890TIP3   OH233084   5.910   6.540   4.445  0.1027  0.0996  0.3970
 3890TIP3    H133085   5.959   6.511   4.522  0.3742  1.7436  0.8851
 3890TIP3    H233086   5.822   6.555   4.477  0.5833  2.3454  0.8273
 3891TIP3   OH233087   4.243   3.300  17.183 -0.2586 -1.4125  0.0759
 3891TIP3    H133088   4.271   3.370  17.126 -1.0395 -1.4125 -0.3268
 3891TIP3    H233089   4.194   3.344  17.253 -0.8142 -1.5517 -0.2187
 3892TIP3   OH233090   3.979   3.788   1.653  0.0930 -0.0340  0.2554
 3892TIP3    H133091   3.985   3.775   1.558  1.3519 -1.5374  0.4958
 3892TIP3    H233092   4.032   3.718   1.690 -0.1558  0.6862  2.0826
 3893TIP3   OH233093   1.376   3.299  17.018  0.1120 -0.1344  0.3893
 3893TIP3    H133094   1.376   3.260  16.930 -0.4321 -0.5429  0.5651
 3893TIP3    H233095   1.337   3.232  17.074 -1.9093  1.0408  0.5135
 3894TIP3   OH233096   5.192   1.432   5.583  0.4378  0.6677  0.1012
 3894TIP3    H133097   5.285   1.426   5.606 -0.0207 -0.7734  1.8265
 3894TIP3    H233098   5.191   1.478   5.499  2.7324  0.3812 -0.1520
 3895TIP3   OH233099   2.190   0.690   0.753 -0.1711  0.5786 -0.6839
 3895TIP3    H133100   2.193   0.594   0.758 -0.9991  0.5784  0.2498
 3895TIP3    H233101   2.185   0.709   0.660  4.0365 -0.0856 -1.2264
 3896TIP3   OH233102   4.063   4.585  11.096 -0.6395  0.7204  0.3668
 3896TIP3    H133103   4.035   4.633  11.018  0.8371  0.0771 -0.6035
 3896TIP3    H233104   4.114   4.511  11.062 -0.7331 -0.1005  1.9165
 3897TIP3   OH233105   1.189   6.677  15.212  0.0851 -0.5295 -0.2534
 3897TIP3    H133106   1.201   6.582  15.219  0.8751 -0.3342  1.4859
 3897TIP3    H233107   1.267   6.714  15.252 -0.4876  0.8625 -0.3789
 3898TIP3   OH233108   5.952   3.413  16.314 -0.5411  0.4451 -0.0147
 3898TIP3    H133109   6.038   3.380  16.339 -0.9626 -0.8050 -0.1199
 3898TIP3    H233110   5.921   3.351  16.248 -1.6474  0.7013  0.2490
 3899TIP3   OH233111   4.811   1.680   2.138  0.5115 -0.3675  0.6590
 3899TIP3    H133112   4.833   1.752   2.197  1.3690  0.2949 -0.4344
 3899TIP3    H233113   4.735   1.712   2.089  1.3804  0.1468 -0.3899
 3900TIP3   OH233114   3.775   1.055  14.413  0.2643 -0.3008 -0.3048
 3900TIP3    H133115   3.758   0.994  14.485  0.2018 -0.0590 -0.1133
 3900TIP3    H233116   3.740   1.011  14.336  1.1434 -0.9583 -0.3387
 3901TIP3   OH233117   1.999   0.483  16.250 -0.2824 -0.3137  0.0986
 3901TIP3    H133118   1.934   0.412  16.256 -0.0336 -0.5350  0.2270
 3901TIP3    H233119   2.080   0.443  16.283  0.0041 -0.1482 -0.4053
 3902TIP3   OH233120   4.748   6.479   4.074  0.0147  0.1265  0.0212
 3902TIP3    H133121   4.729   6.392   4.041  1.0475 -0.2264  0.3228
 3902TIP3    H233122   4.839   6.475   4.102  0.5563  1.7329 -1.3699
 3903TIP3   OH233123   3.995   1.816  11.733  0.6041 -0.4617 -0.0944
 3903TIP3    H133124   4.085   1.787  11.719  0.6685 -0.2015 -0.2373
 3903TIP3    H233125   3.997   1.861  11.817  1.0000  1.0725 -0.8840
 3904TIP3   OH233126   3.638   0.312  13.665 -0.3054  0.0452  0.2552
 3904TIP3    H133127   3.657   0.402  13.693 -1.0745 -0.2471  1.8353
 3904TIP3    H233128   3.674   0.306  13.577 -0.5492  2.0247 -0.0246
 3905TIP3   OH233129   1.369   5.714   3.767  0.0208 -0.5987 -0.1292
 3905TIP3    H133130   1.342   5.731   3.857  0.6150  0.2114 -0.0925
 3905TIP3    H233131   1.357   5.620   3.755 -0.7703 -0.5977  0.5534
 3906TIP3   OH233132   3.949   2.084  11.286 -0.2838 -0.3021 -0.3294
 3906TIP3    H133133   4.010   2.127  11.227 -0.9921 -1.0678 -1.6797
 3906TIP3    H233134   3.918   2.153  11.344  1.7392  0.1291  0.3206
 3907TIP3   OH233135   0.061   0.401  16.588 -0.4493  0.0304 -0.6499
 3907TIP3    H133136   0.124   0.331  16.602 -0.8047 -0.1734 -0.0500
 3907TIP3    H233137   0.113   0.473  16.552 -0.3440 -1.0408 -2.7335
 3908TIP3   OH233138   2.531   4.602  12.935  0.2413 -0.2397  0.5546
 3908TIP3    H133139   2.592   4.531  12.915 -0.4300 -0.8013  0.4778
 3908TIP3    H233140   2.445   4.560  12.938 -0.6780  1.1088 -2.8581
 3909TIP3   OH233141   2.717   5.920  16.968  0.3539  0.4616  0.4374
 3909TIP3    H133142   2.703   5.931  16.874  2.2002  0.0626  0.0587
 3909TIP3    H233143   2.752   6.004  16.997  0.4359  0.3662  0.6152
 3910TIP3   OH233144   3.172   4.289  15.106 -0.4271 -0.2999 -0.2801
 3910TIP3    H133145   3.252   4.341  15.113 -2.2878  2.6762  1.2201
 3910TIP3    H233146   3.183   4.218  15.169  0.7882  0.4428  0.3733
 3911TIP3   OH233147   5.595   3.073  14.708 -0.0666  0.1699 -0.1039
 3911TIP3    H133148   5.527   3.110  14.765 -0.4351 -0.6980  0.0459
 3911TIP3    H233149   5.568   3.097  14.619  1.7387  3.5541  0.1151
 3912TIP3   OH233150   6.356   0.144   3.269  0.3172 -0.0048 -0.1853
 3912TIP3    H133151   6.337   0.238   3.261  0.3203  0.0979  0.9037
 3912TIP3    H233152   6.446   0.141   3.302 -0.0637 -0.3629  0.8531
 3913TIP3   OH233153   0.027   0.591   6.356  0.2964  0.1923 -0.4898
 3913TIP3    H133154   0.074   0.665   6.318  0.3975  0.2852 -0.1903
 3913TIP3    H233155  -0.002   0.622   6.442  1.0477 -0.3847 -0.0135
 3914TIP3   OH233156   2.383   4.349   6.319  0.2789  0.0921  0.2103
 3914TIP3    H133157   2.449   4.417   6.307 -0.9397  1.1629 -0.7461
 3914TIP3    H233158   2.333   4.378   6.395  0.8586 -0.6960  0.9091
 3915TIP3   OH233159   4.463   3.263   5.221  0.6101  0.8534  0.7899
 3915TIP3    H133160   4.490   3.216   5.143  0.5590  2.4484 -0.2162
 3915TIP3    H233161   4.368   3.249   5.226  0.4781  1.4850  0.0612
 3916TIP3   OH233162   0.283   2.153  16.968 -0.5446  0.2622  0.3880
 3916TIP3    H133163   0.236   2.191  16.894 -0.3447  0.5699  0.4133
 3916TIP3    H233164   0.318   2.070  16.935 -1.9715 -0.4756  0.6737
 3917TIP3   OH233165   6.581   4.503   0.039 -0.6971  0.1176 -0.2278
 3917TIP3    H133166   6.550   4.485  -0.050  0.7212  0.4585 -0.8178
 3917TIP3    H233167   6.629   4.424   0.063 -0.8031  0.1574  0.1238
 3918TIP3   OH233168   6.446   4.881  14.204  0.0893  0.6113 -0.4429
 3918TIP3    H133169   6.444   4.945  14.276  0.0178  0.2335 -0.1050
 3918TIP3    H233170   6.539   4.875  14.181  0.3712 -0.6766  0.9060
 3919TIP3   OH233171   0.286   3.049   5.930 -0.4885  0.6377  0.3932
 3919TIP3    H133172   0.318   3.129   5.972 -1.7623  0.3275  2.0440
 3919TIP3    H233173   0.198   3.037   5.965 -0.6396 -1.0464 -0.4741
 3920TIP3   OH233174   2.411   2.710   5.887 -0.3614 -0.2079 -0.2988
 3920TIP3    H133175   2.500   2.694   5.856 -0.5438  1.1838 -1.6903
 3920TIP3    H233176   2.413   2.691   5.980  0.9655 -1.8021 -0.6289
 3921TIP3   OH233177   1.506   1.773  12.225 -0.2215  0.7130 -0.1524
 3921TIP3    H133178   1.454   1.841  12.269  0.8446  1.5439 -0.1477
 3921TIP3    H233179   1.517   1.805  12.136 -1.1997 -0.3172 -0.6739
 3922TIP3   OH233180   1.626   4.075  12.460  0.0033 -0.4857  0.5369
 3922TIP3    H133181   1.683   4.018  12.512 -2.2975 -2.2491  1.3359
 3922TIP3    H233182   1.590   4.137  12.524  0.0258 -0.2256  0.2978
 3923TIP3   OH233183   4.230   2.459   4.331  0.3150 -0.4926 -0.2054
 3923TIP3    H133184   4.165   2.467   4.261 -1.9787  1.1659  1.9479
 3923TIP3    H233185   4.225   2.367   4.357  1.9438 -1.4132 -2.7333
 3924TIP3   OH233186   1.417   5.807   0.507  0.3121 -0.2849 -0.0728
 3924TIP3    H133187   1.400   5.863   0.583 -0.1949 -0.4022 -0.0991
 3924TIP3    H233188   1.498   5.842   0.470 -0.1299  0.5984 -0.2382
 3925TIP3   OH233189   0.173   2.731   1.494  0.6476 -0.0387 -0.3024
 3925TIP3    H133190   0.236   2.779   1.548  0.6735 -0.5148  0.1062
 3925TIP3    H233191   0.109   2.697   1.556  0.8849 -0.9099 -0.5084
 3926TIP3   OH233192   4.546   6.083   5.325 -0.6585 -0.7143 -0.0866
 3926TIP3    H133193   4.473   6.108   5.270 -1.7626 -2.9369  0.2426
 3926TIP3    H233194   4.618   6.066   5.263 -0.2595  1.7236 -0.3892
 3927TIP3   OH233195   1.565   1.136  15.933  0.3134  0.3854  0.2756
 3927TIP3    H133196   1.512   1.200  15.979  0.1754  0.9523 -0.6521
 3927TIP3    H233197   1.604   1.083  16.003 -1.7543 -0.3130  0.9734
 3928TIP3   OH233198   0.300   3.466   5.327  0.5337 -0.5689 -0.0079
 3928TIP3    H133199   0.278   3.420   5.408  0.1924  0.5210  0.5272
 3928TIP3    H233200   0.394   3.480   5.332  0.3582  0.4556  0.7292
 3929TIP3   OH233201   2.215   4.105  14.879 -0.7007 -0.1881  0.4587
 3929TIP3    H133202   2.235   4.194  14.906 -2.6895  0.1620  0.9552
 3929TIP3    H233203   2.233   4.103  14.785 -0.3907  0.6577  0.4935
 3930TIP3   OH233204   0.390   0.017   0.467  0.0111 -0.3086 -0.1835
 3930TIP3    H133205   0.322   0.043   0.529 -0.1000 -1.3542  0.1570
 3930TIP3    H233206   0.347   0.019   0.382 -0.5126 -1.1071  0.0471
 3931TIP3   OH233207   6.565   6.146  11.179 -0.2357  0.5045 -0.6040
 3931TIP3    H133208   6.648   6.181  11.145  0.0275  0.2216 -0.2576
 3931TIP3    H233209   6.591   6.083  11.246 -0.7465  2.0684  1.1498
 3932TIP3   OH233210   4.595   2.069  16.889 -0.2031 -0.2382 -0.2622
 3932TIP3    H133211   4.590   2.163  16.902 -0.7781 -0.4696  1.5622
 3932TIP3    H233212   4.549   2.052  16.807 -0.9883  0.9621 -0.0811
 3933TIP3   OH233213   2.594   2.567  15.637 -0.0048 -0.0389 -0.7151
 3933TIP3    H133214   2.659   2.497  15.630  0.2680  0.0997  0.3177
 3933TIP3    H233215   2.515   2.530  15.597  0.0286 -1.0649  0.1205
 3934TIP3   OH233216   0.399   1.018  12.159  0.0282  0.3717  0.0010
 3934TIP3    H133217   0.431   0.934  12.128 -2.0707 -1.1547  1.6403
 3934TIP3    H233218   0.436   1.026  12.247 -1.4192  0.1079  0.6625
 3935TIP3   OH233219   1.787   0.146   1.555  0.3697  0.1772 -0.3109
 3935TIP3    H133220   1.802   0.241   1.554 -0.9577  0.3964 -0.8424
 3935TIP3    H233221   1.764   0.124   1.465 -1.9849 -0.1821  0.3191
 3936TIP3   OH233222   3.107   0.684  11.456  0.2971 -0.2934  0.0869
 3936TIP3    H133223   3.041   0.619  11.480  1.9177 -2.0564 -0.0247
 3936TIP3    H233224   3.156   0.700  11.536  0.7634 -0.2417 -0.2047
 3937TIP3   OH233225   1.107   1.749   2.893 -0.0189  1.0223 -0.1835
 3937TIP3    H133226   1.051   1.680   2.929  0.6269 -0.8894 -2.5824
 3937TIP3    H233227   1.053   1.791   2.826  0.6682  0.5743 -1.0434
 3938TIP3   OH233228   1.105   4.577  11.199 -0.1420 -0.1605 -0.2924
 3938TIP3    H133229   1.115   4.583  11.104  0.8731  1.5663 -0.1171
 3938TIP3    H233230   1.012   4.597  11.215 -0.7515 -2.1390 -0.9790
 3939TIP3   OH233231   4.107   5.525  16.865  0.4726  0.2525 -0.3451
 3939TIP3    H133232   4.196   5.502  16.891  0.5302  0.8617  0.0038
 3939TIP3    H233233   4.076   5.448  16.817  1.5532  0.4320 -1.4045
 3940TIP3   OH233234   0.064   3.031   6.102  0.4211 -0.2609 -0.9207
 3940TIP3    H133235   0.029   3.089   6.169  0.2050 -1.0431 -0.3362
 3940TIP3    H233236   0.001   2.959   6.097  0.4432 -0.2284 -1.9584
 3941TIP3   OH233237   1.403   1.056   5.296  0.2371  0.6599 -0.1300
 3941TIP3    H133238   1.493   1.039   5.325  1.1167  3.4571 -0.8660
 3941TIP3    H233239   1.395   1.012   5.212  0.8431  0.2035  0.0497
 3942TIP3   OH233240   1.143   1.750   4.144  0.2867  0.4887  0.0526
 3942TIP3    H133241   1.212   1.684   4.157  0.7995  0.5657 -2.0231
 3942TIP3    H233242   1.145   1.802   4.225  2.7909  0.5842  0.0059
 3943TIP3   OH233243   6.444   1.118  13.900 -0.7240 -0.4110  0.3397
 3943TIP3    H133244   6.449   1.167  13.817 -0.1041 -1.1952 -0.1055
 3943TIP3    H233245   6.350   1.104  13.914 -0.9270  1.1727  0.6455
 3944TIP3   OH233246   6.159   6.724  13.613  0.3931 -0.4645 -0.0253
 3944TIP3    H133247   6.252   6.742  13.625  0.1631  0.8103 -0.0494
 3944TIP3    H233248   6.156   6.633  13.584  1.6405 -0.4830 -0.1482
 3945TIP3   OH233249   2.754   5.690  16.750  0.5203  0.3319 -0.2526
 3945TIP3    H133250   2.765   5.596  16.738  1.6082  0.3183  0.6442
 3945TIP3    H233251   2.799   5.709  16.833  1.2487  1.7930 -0.9425
 3946TIP3   OH233252   0.525   5.737   4.430  0.3749 -0.2057  0.2195
 3946TIP3    H133253   0.458   5.753   4.364  1.7178 -2.1792 -1.8000
 3946TIP3    H233254   0.561   5.823   4.450  0.3320  0.4535 -2.1676
 3947TIP3   OH233255   6.740   6.154   4.316  0.4378 -0.3633  0.2059
 3947TIP3    H133256   6.821   6.162   4.366 -0.8186  0.0130  2.3069
 3947TIP3    H233257   6.728   6.059   4.307  0.3049 -0.4803  1.3612
 3948TIP3   OH233258   0.658   3.847  14.277  0.0912 -0.2712 -0.5598
 3948TIP3    H133259   0.704   3.779  14.327  0.1467  0.4086  0.3340
 3948TIP3    H233260   0.619   3.904  14.344  2.1540  2.0416 -1.1639
 3949TIP3   OH233261   0.550   4.794  15.211 -0.1077 -0.8103 -0.4638
 3949TIP3    H133262   0.598   4.714  15.189  1.0857 -0.5009  0.9016
 3949TIP3    H233263   0.578   4.858  15.145  2.2394 -0.3375  0.8729
 3950TIP3   OH233264   4.993   2.518  12.666 -0.4250 -0.5807 -0.0683
 3950TIP3    H133265   4.987   2.534  12.761 -1.4882  1.4021 -0.4354
 3950TIP3    H233266   5.051   2.587  12.634 -1.0414 -0.5104 -1.0354
 3951TIP3   OH233267   5.653   4.787   4.411 -0.1372 -0.7317  0.1821
 3951TIP3    H133268   5.721   4.853   4.397 -0.9612 -0.1421 -1.2252
 3951TIP3    H233269   5.666   4.758   4.502  1.8719 -0.5265  0.0058
 3952TIP3   OH233270   3.118   0.860   2.255 -0.4394  0.4529  1.1888
 3952TIP3    H133271   3.102   0.818   2.340  1.2925 -1.7010  0.5446
 3952TIP3    H233272   3.209   0.889   2.260 -0.7184  1.4819  0.5190
 3953TIP3   OH233273   2.136   3.632   1.172  0.1989  0.1610 -0.1450
 3953TIP3    H133274   2.134   3.544   1.135  0.2019  0.5926 -1.1994
 3953TIP3    H233275   2.229   3.654   1.178  0.1911  1.0880 -2.3934
 3954TIP3   OH233276   4.451   1.825   1.111  0.3849  0.4145 -0.5634
 3954TIP3    H133277   4.365   1.782   1.113  1.0959 -1.0636 -0.3376
 3954TIP3    H233278   4.433   1.914   1.080 -1.3894  0.5447  0.6888
 3955TIP3   OH233279   2.727   4.809  14.234  0.5928  0.4105 -0.4484
 3955TIP3    H133280   2.670   4.886  14.228  0.3162  0.4389  1.7038
 3955TIP3    H233281   2.737   4.794  14.328  0.5139 -2.3182 -0.8046
 3956TIP3   OH233282   4.088   1.608   2.717  0.1339  0.1703 -0.5310
 3956TIP3    H133283   4.183   1.608   2.708  0.3995  1.3244  1.5151
 3956TIP3    H233284   4.070   1.542   2.784 -0.4679  0.1701 -0.6859
 3957TIP3   OH233285   0.982   5.167  15.368 -0.8190 -0.0932  0.4188
 3957TIP3    H133286   0.993   5.260  15.353 -2.2498  0.2272  1.1755
 3957TIP3    H233287   0.894   5.159  15.405 -0.4812 -1.6693  0.9541
 3958TIP3   OH233288   1.417   1.237  15.028  0.1129 -0.3846  0.2673
 3958TIP3    H133289   1.473   1.160  15.032  1.5452  0.6808  1.7692
 3958TIP3    H233290   1.474   1.307  14.996 -0.9982  0.2191 -0.4635
 3959TIP3   OH233291   4.745   2.040  15.870 -0.4329 -0.2002  0.1538
 3959TIP3    H133292   4.727   2.040  15.776  1.1987  0.9726 -0.2045
 3959TIP3    H233293   4.688   2.109  15.906 -3.5670 -2.8091  0.6710
 3960TIP3   OH233294   5.939   3.281  14.349 -0.7346 -0.1089 -0.0749
 3960TIP3    H133295   5.917   3.195  14.386  1.1861 -1.2875 -1.4823
 3960TIP3    H233296   5.884   3.288  14.272 -0.6838 -0.2254 -0.1230
 3961TIP3   OH233297   4.502   1.109   5.071 -0.4185  0.9065  0.4378
 3961TIP3    H133298   4.500   1.186   5.014 -0.5452  0.3568 -0.3162
 3961TIP3    H233299   4.552   1.138   5.148 -1.1772  1.9894  0.5481
 3962TIP3   OH233300   0.165   1.563  13.469  0.6301  0.2118  0.0791
 3962TIP3    H133301   0.192   1.627  13.403  0.9484  1.0683  1.0093
 3962TIP3    H233302   0.083   1.527  13.436  0.1837  1.4669 -0.2472
 3963TIP3   OH233303   5.337   2.450   5.251 -0.3532 -0.5522 -0.4342
 3963TIP3    H133304   5.278   2.513   5.210 -0.2563 -0.4621 -0.4355
 3963TIP3    H233305   5.381   2.407   5.177  0.1460 -0.0807 -0.4194
 3964TIP3   OH233306   1.205   4.355  13.099 -0.3401  0.2311  0.2876
 3964TIP3    H133307   1.162   4.440  13.104 -1.3274 -0.2089 -0.5026
 3964TIP3    H233308   1.297   4.373  13.118 -0.3954  1.5937 -0.6984
 3965TIP3   OH233309   2.449   3.814  15.525  0.1358  0.2026 -0.0404
 3965TIP3    H133310   2.520   3.762  15.486  0.9620  0.2358  1.3254
 3965TIP3    H233311   2.439   3.776  15.613 -0.9803  0.7475  0.0765
 3966TIP3   OH233312   6.318   0.774   0.795 -0.2439 -0.1768 -0.4880
 3966TIP3    H133313   6.338   0.863   0.765 -1.9287  0.7585  0.9564
 3966TIP3    H233314   6.391   0.752   0.852 -0.4119  0.8065  0.1365
 3967TIP3   OH233315   1.655   4.447  13.652 -0.5790  0.1912 -0.6510
 3967TIP3    H133316   1.705   4.455  13.571 -0.8651  0.1096 -0.8369
 3967TIP3    H233317   1.611   4.362  13.645 -1.8301  0.8553 -1.1069
 3968TIP3   OH233318   4.116   0.897  15.477  0.0613 -0.4309 -0.0156
 3968TIP3    H133319   4.039   0.863  15.522  0.7688  0.0725  1.6621
 3968TIP3    H233320   4.127   0.985  15.513 -0.4755  0.8389 -2.6687
 3969TIP3   OH233321   6.326   4.177  12.678  0.8192  0.3770  0.2319
 3969TIP3    H133322   6.245   4.214  12.713  1.8368  1.3029  1.7152
 3969TIP3    H233323   6.357   4.242  12.615  0.9990  0.5580  0.5085
 3970TIP3   OH233324   4.599   0.482   2.521  0.3896  0.0271  0.1071
 3970TIP3    H133325   4.567   0.426   2.450 -0.0397  0.5111 -0.0952
 3970TIP3    H233326   4.643   0.422   2.581 -0.2700 -0.5691  0.0198
 3971TIP3   OH233327   5.303   0.029  12.688 -0.5161  0.0250 -0.0132
 3971TIP3    H133328   5.282   0.108  12.639 -0.2863 -1.1057 -2.0321
 3971TIP3    H233329   5.343   0.061  12.769  0.0832  1.9650 -1.0222
 3972TIP3   OH233330   5.718   5.128  12.467 -0.8101 -0.3007  0.3664
 3972TIP3    H133331   5.763   5.202  12.427 -0.5299 -1.3659 -1.3908
 3972TIP3    H233332   5.775   5.103  12.540 -0.0266  0.1493 -0.0705
 3973TIP3   OH233333   4.040   5.869   2.743  0.6075  0.3699  0.0516
 3973TIP3    H133334   4.054   5.788   2.695  1.3802  0.2548  0.4612
 3973TIP3    H233335   3.975   5.847   2.810  0.3895  0.2401 -0.2007
 3974TIP3   OH233336   0.225   2.057   4.308 -0.4591 -0.3511 -0.2511
 3974TIP3    H133337   0.264   1.970   4.296 -2.1050 -0.8762 -2.2512
 3974TIP3    H233338   0.225   2.070   4.403  1.4115 -1.7549  0.0030
 3975TIP3   OH233339   0.841   1.901  15.415 -0.3068  0.3365 -0.0127
 3975TIP3    H133340   0.929   1.877  15.385  0.0149  0.8467  0.4921
 3975TIP3    H233341   0.820   1.835  15.481 -0.1115  0.4795  0.1933
 3976TIP3   OH233342   1.371   1.108  13.005  0.2346  0.0958  0.1696
 3976TIP3    H133343   1.337   1.196  13.019  0.8318  0.7971 -2.3073
 3976TIP3    H233344   1.462   1.112  13.035 -0.1539 -0.1490  1.4496
 3977TIP3   OH233345   5.703   2.464   0.035 -0.2112  0.2786  0.3374
 3977TIP3    H133346   5.691   2.545   0.084  1.3223  0.4455  0.4944
 3977TIP3    H233347   5.731   2.401   0.100 -0.1957 -0.0544  0.0096
 3978TIP3   OH233348   3.028   3.510  14.958  0.0420 -0.1759  0.4467
 3978TIP3    H133349   3.108   3.492  15.007 -0.2771  0.2069  1.1246
 3978TIP3    H233350   3.059   3.537  14.871  0.5939 -1.4311  0.2318
 3979TIP3   OH233351   6.330   3.236  15.940  0.3422 -0.2808  0.3508
 3979TIP3    H133352   6.351   3.233  16.033  3.0021  0.3996 -0.1344
 3979TIP3    H233353   6.320   3.330  15.920 -2.8621 -0.5123  0.3767
 3980TIP3   OH233354   5.588   0.930   4.248  0.4577  0.4172 -0.4504
 3980TIP3    H133355   5.639   0.942   4.168  2.4190  1.3886  0.8469
 3980TIP3    H233356   5.638   0.866   4.299  1.4449  2.6033  1.5601
 3981TIP3   OH233357   0.994   5.074   1.015 -0.2492 -0.0445  0.0932
 3981TIP3    H133358   0.935   5.148   1.022 -0.5184 -0.2858  0.3956
 3981TIP3    H233359   0.956   5.007   1.072 -0.7378 -0.8873 -1.1532
 3982TIP3   OH233360   1.566   5.684  13.963  0.4649 -0.2367  0.2134
 3982TIP3    H133361   1.621   5.698  14.040 -0.5083  2.2886  0.5341
 3982TIP3    H233362   1.629   5.680  13.890  1.1811  2.8521  0.5391
 3983TIP3   OH233363   1.493   2.292   0.963 -0.0693 -0.0008 -0.4582
 3983TIP3    H133364   1.512   2.378   0.927 -2.6970  1.4161  1.2843
 3983TIP3    H233365   1.495   2.234   0.887 -1.0828  2.1004 -2.2045
 3984TIP3   OH233366   5.957   6.588  11.211 -0.2631  0.1473  0.1591
 3984TIP3    H133367   5.947   6.668  11.263 -1.5165  0.5736 -0.6907
 3984TIP3    H233368   5.975   6.519  11.275 -0.8402  0.8130  1.0557
 3985TIP3   OH233369   1.840   2.871   4.305  0.2990 -0.3625 -0.2642
 3985TIP3    H133370   1.933   2.892   4.300  0.2286 -0.2820 -1.5629
 3985TIP3    H233371   1.837   2.779   4.332  0.7448 -0.2113  0.2901
 3986TIP3   OH233372   0.802   4.790   1.832  0.3734 -0.3924  0.3002
 3986TIP3    H133373   0.879   4.834   1.867  0.2520  0.0795 -0.0193
 3986TIP3    H233374   0.745   4.861   1.803 -0.2927 -0.7293  0.7561
 3987TIP3   OH233375   2.154   1.377  15.054 -0.7370  0.5434 -0.0599
 3987TIP3    H133376   2.235   1.401  15.099  0.7724 -1.5242 -1.4580
 3987TIP3    H233377   2.130   1.293  15.094  1.2609 -1.9452 -3.5155
 3988TIP3   OH233378   3.173   1.791  12.424  0.2359 -0.0095  0.6594
 3988TIP3    H133379   3.160   1.827  12.336  2.4922  1.3323  0.8018
 3988TIP3    H233380   3.183   1.697  12.410  0.5928  0.1900 -0.5578
 3989TIP3   OH233381   0.021   2.410  15.326  0.4867 -0.0278  0.0935
 3989TIP3    H133382   0.004   2.352  15.400  0.7858 -0.0588  0.1389
 3989TIP3    H233383  -0.017   2.364  15.251  1.2721 -0.5855  0.0243
 3990TIP3   OH233384   6.481   4.022  13.234  0.4212 -0.2115 -0.0451
 3990TIP3    H133385   6.531   3.941  13.243  0.1175 -0.2578  1.4960
 3990TIP3    H233386   6.545   4.091  13.250  0.6492 -0.1353 -1.2172
 3991TIP3   OH233387   2.547   3.199   0.242  0.5979 -0.1158  0.3100
 3991TIP3    H133388   2.557   3.292   0.223 -0.2521  0.0328  0.5689
 3991TIP3    H233389   2.503   3.163   0.165  2.6706 -0.7080 -0.6792
 3992TIP3   OH233390   4.052   2.614   6.813 -0.8107 -0.1244  0.0610
 3992TIP3    H133391   4.101   2.681   6.766 -1.9469  0.1765 -0.7175
 3992TIP3    H233392   4.040   2.543   6.750 -1.0858 -0.3452  0.3523
 3993TIP3   OH233393   3.675   5.795  14.081 -0.3923 -0.1754  0.1784
 3993TIP3    H133394   3.590   5.755  14.061 -0.3523 -1.3920  2.1927
 3993TIP3    H233395   3.732   5.766  14.010 -1.3717 -0.3360 -0.5675
 3994TIP3   OH233396   2.534   1.536   5.580  0.1122  0.3281 -0.0115
 3994TIP3    H133397   2.590   1.614   5.585 -0.7161  1.0739 -1.5691
 3994TIP3    H233398   2.465   1.552   5.644  0.9721 -0.0279  1.0341
 3995TIP3   OH233399   2.556   1.256   2.131 -0.4838  0.3550 -0.5412
 3995TIP3    H133400   2.535   1.287   2.219 -0.5481  1.8634 -1.0634
 3995TIP3    H233401   2.476   1.272   2.081  0.1956  1.4157 -1.3387
 3996TIP3   OH233402   0.041   0.684  15.572 -0.4030 -0.0320 -0.1708
 3996TIP3    H133403   0.116   0.647  15.618  0.1238  0.6117 -0.5024
 3996TIP3    H233404   0.032   0.773  15.607 -0.1620  0.3701 -1.0996
 3997TIP3   OH233405   3.225   4.165  13.910 -0.5822 -0.4065 -0.8215
 3997TIP3    H133406   3.267   4.173  13.996 -1.3941  0.3580 -0.4638
 3997TIP3    H233407   3.255   4.242  13.862 -0.6980 -0.4459 -0.9549
 3998TIP3   OH233408   6.263   5.910   4.485  0.1568 -0.0407  0.4035
 3998TIP3    H133409   6.349   5.938   4.453 -0.4884  1.6034 -0.0024
 3998TIP3    H233410   6.247   5.827   4.442  1.6693 -0.5278  0.7190
 3999TIP3   OH233411   5.177   3.267   6.313  0.1406 -0.3899 -0.3752
 3999TIP3    H133412   5.086   3.236   6.313 -1.0184  2.5876  1.0004
 3999TIP3    H233413   5.229   3.188   6.325 -2.2409 -2.1917 -0.9526
 4000TIP3   OH233414   0.738   2.556  13.571  0.2248 -0.1326 -0.1572
 4000TIP3    H133415   0.747   2.631  13.629 -0.3097 -0.8773  0.9102
 4000TIP3    H233416   0.780   2.484  13.617  2.2359 -0.1672 -1.9044
 4001TIP3   OH233417   3.755   6.422   2.720  0.0366  0.2741 -0.8362
 4001TIP3    H133418   3.850   6.427   2.713  0.0767  0.2107 -0.3768
 4001TIP3    H233419   3.738   6.416   2.814 -0.4652  1.1832 -0.8627
 4002TIP3   OH233420   1.200   5.335   3.692  0.0673 -0.2039  0.3742
 4002TIP3    H133421   1.292   5.332   3.664 -0.4209  0.9001 -1.5586
 4002TIP3    H233422   1.198   5.401   3.761  0.6386  0.2777 -0.0516
 4003TIP3   OH233423   1.938   5.432   1.335  0.1228 -0.4852  0.8523
 4003TIP3    H133424   1.935   5.337   1.324 -1.9096 -0.3850  0.1878
 4003TIP3    H233425   1.910   5.467   1.251 -0.9280  0.6526  1.6351
 4004TIP3   OH233426   2.664   0.868   4.605  0.1312 -0.0786  0.0100
 4004TIP3    H133427   2.659   0.913   4.520 -0.2881 -0.1812 -0.0259
 4004TIP3    H233428   2.721   0.793   4.589 -2.2879 -1.8656 -1.0484
 4005TIP3   OH233429   6.419   2.594   2.853  0.2701  0.1132  0.0893
 4005TIP3    H133430   6.376   2.661   2.906  1.3992  2.0288 -1.2602
 4005TIP3    H233431   6.352   2.567   2.790 -0.4458 -0.6678  1.1600
 4006TIP3   OH233432   3.710   2.177  13.418  0.5700  0.2028 -0.4599
 4006TIP3    H133433   3.768   2.249  13.444  0.8944 -0.6958  1.4558
 4006TIP3    H233434   3.763   2.125  13.358  1.1960  0.2337  0.0591
 4007TIP3   OH233435   1.056   0.711   5.963 -0.0190  0.1413  0.7383
 4007TIP3    H133436   1.024   0.662   5.887 -1.5012 -0.1975  1.5270
 4007TIP3    H233437   1.119   0.774   5.927 -0.2691 -0.3872 -0.6844
 4008TIP3   OH233438   5.029   1.254  15.052 -0.7048 -0.4714 -0.2673
 4008TIP3    H133439   4.964   1.215  14.993 -0.1356  0.7746 -1.7819
 4008TIP3    H233440   5.107   1.201  15.039 -1.0648 -1.2887  0.7365
 4009TIP3   OH233441   6.573   0.679   3.002 -0.1762  0.1820  0.5956
 4009TIP3    H133442   6.484   0.713   3.019 -0.0653  0.4078  0.7350
 4009TIP3    H233443   6.561   0.612   2.935 -0.4991 -0.0308  0.8613
 4010TIP3   OH233444   6.675   5.469  13.059  0.8265 -0.1722 -0.8936
 4010TIP3    H133445   6.763   5.467  13.023  0.9915 -1.8167 -0.4777
 4010TIP3    H233446   6.688   5.470  13.154  0.4632 -2.4961 -0.7590
 4011TIP3   OH233447   1.345   3.926   3.039  0.3079 -0.9361 -0.4167
 4011TIP3    H133448   1.327   3.898   3.129  2.2608  1.0127  0.7014
 4011TIP3    H233449   1.273   3.986   3.018  1.5077  1.2855  1.2801
 4012TIP3   OH233450   3.414   0.758  11.537  0.2990  0.1538 -0.7513
 4012TIP3    H133451   3.470   0.807  11.597  1.8530 -0.0991 -1.9315
 4012TIP3    H233452   3.343   0.724  11.592  1.5814  0.0523  0.9085
 4013TIP3   OH233453   3.848   0.889  13.407 -0.2276 -0.3655 -0.2252
 4013TIP3    H133454   3.774   0.915  13.460 -0.2129  0.4128 -0.5709
 4013TIP3    H233455   3.844   0.793  13.405 -1.9998 -0.3043 -1.3408
 4014TIP3   OH233456   2.398   2.596   4.621 -0.6984 -0.1750 -0.1163
 4014TIP3    H133457   2.382   2.508   4.655 -0.3492 -0.1242  0.1959
 4014TIP3    H233458   2.486   2.592   4.583 -0.5919  0.0928  0.0923
 4015TIP3   OH233459   4.145   4.607   0.338  0.0198  1.1893  0.4890
 4015TIP3    H133460   4.070   4.552   0.360 -0.3322  1.3753 -0.1996
 4015TIP3    H233461   4.212   4.584   0.403 -0.2310  0.1870  0.4128
 4016TIP3   OH233462   6.474   5.638  13.680  0.2385 -0.1279  0.1832
 4016TIP3    H133463   6.533   5.584  13.734 -1.0929 -0.9781  0.8439
 4016TIP3    H233464   6.484   5.605  13.591 -0.9204 -1.8551  0.6549
 4017TIP3   OH233465   4.399   3.910  14.868 -0.0936  0.0913  0.6258
 4017TIP3    H133466   4.479   3.959  14.850  1.6092 -1.8927  2.3839
 4017TIP3    H233467   4.338   3.939  14.800  2.3877  0.9787 -1.3665
 4018TIP3   OH233468   0.475   4.342   1.105  0.1380 -0.3325 -0.0731
 4018TIP3    H133469   0.479   4.437   1.100 -2.0271 -0.2233 -0.7460
 4018TIP3    H233470   0.523   4.312   1.028  0.8018  0.2016  0.1211
 4019TIP3   OH233471   1.219   4.381   3.540  0.0376  0.4440 -0.3036
 4019TIP3    H133472   1.247   4.377   3.632 -0.8422  0.1712 -0.0345
 4019TIP3    H233473   1.296   4.354   3.490 -0.0783 -1.5057  0.4661
 4020TIP3   OH233474   2.611   2.109   4.771  0.1062 -0.6384 -0.2732
 4020TIP3    H133475   2.658   2.193   4.763  3.2566 -2.1661  0.4558
 4020TIP3    H233476   2.522   2.129   4.745  0.4931  3.1294  0.6500
 4021TIP3   OH233477   2.747   0.769  13.319  0.0841  0.3805  0.5021
 4021TIP3    H133478   2.760   0.864  13.318  2.1669  0.1473  0.3663
 4021TIP3    H233479   2.755   0.745  13.411 -0.4662  0.3319  0.5390
 4022TIP3   OH233480   4.720   1.232   1.834  0.2222 -1.2222 -0.3857
 4022TIP3    H133481   4.759   1.250   1.748 -0.3674  0.6808 -0.3157
 4022TIP3    H233482   4.627   1.252   1.823  0.2940  0.0114  0.8999
 4023TIP3   OH233483   5.137   6.124   5.780 -0.1616 -0.3362 -0.3787
 4023TIP3    H133484   5.176   6.127   5.693  1.0886  1.4167  0.1838
 4023TIP3    H233485   5.044   6.107   5.764  0.0781 -0.2539 -2.0471
 4024TIP3   OH233486   2.587   5.283  14.920  0.7493  0.2776 -0.2548
 4024TIP3    H133487   2.629   5.220  14.863  0.2797 -0.2688 -0.0008
 4024TIP3    H233488   2.585   5.241  15.006  0.4336  0.6332 -0.0811
 4025TIP3   OH233489   2.750   6.298  11.313 -0.2067 -0.4242  0.3185
 4025TIP3    H133490   2.755   6.360  11.240 -0.0639  0.4151  1.0271
 4025TIP3    H233491   2.745   6.353  11.391  0.3677 -1.3030  0.9969
 4026TIP3   OH233492   2.158   4.884   3.371  0.4397  0.1494  0.2519
 4026TIP3    H133493   2.172   4.976   3.352 -0.1460  0.1457 -0.2316
 4026TIP3    H233494   2.107   4.884   3.452 -1.2087  0.3293 -0.7427
 4027TIP3   OH233495   3.875   4.339   6.749 -0.3476 -0.2600 -0.3279
 4027TIP3    H133496   3.881   4.428   6.713  0.0772  0.1845  0.7921
 4027TIP3    H233497   3.963   4.303   6.738 -0.3156 -0.2594 -0.0722
 4028TIP3   OH233498   4.924   0.138   3.957  0.5731  0.2225  0.0726
 4028TIP3    H133499   5.002   0.141   4.012  0.1450 -0.4281  0.7264
 4028TIP3    H233500   4.906   0.045   3.944  0.2181  0.3673 -0.5160
 4029TIP3   OH233501   4.442   0.961  14.501 -0.0091  0.0925 -0.5990
 4029TIP3    H133502   4.465   0.968  14.409  0.3729  0.1504 -0.5013
 4029TIP3    H233503   4.351   0.991  14.506  0.2666  1.0182 -0.8214
 4030TIP3   OH233504   1.986   0.599  11.815 -0.0301  0.3011  0.3642
 4030TIP3    H133505   1.940   0.564  11.891 -0.5608 -0.1770 -0.1676
 4030TIP3    H233506   2.038   0.672  11.849 -0.6307  0.3899  1.0988
 4031TIP3   OH233507   4.384   4.515   0.501 -0.1913 -0.3648  0.2390
 4031TIP3    H133508   4.338   4.470   0.572 -0.4066 -1.3723 -0.5100
 4031TIP3    H233509   4.477   4.503   0.520 -0.2379  0.0891  0.7792
 4032TIP3   OH233510   1.550   6.289  11.117  0.2043  0.5330  0.3404
 4032TIP3    H133511   1.556   6.380  11.147  1.1089  0.2545  1.0436
 4032TIP3    H233512   1.482   6.250  11.172  0.4903  0.5419  0.7066
 4033TIP3   OH233513   4.331   0.832  14.851 -0.6378  0.2488 -0.1895
 4033TIP3    H133514   4.369   0.892  14.787 -3.0832  2.9333  0.6406
 4033TIP3    H233515   4.316   0.751  14.803  0.8866  0.9503 -1.9622
 4034TIP3   OH233516   0.144   0.487  14.145  0.6397  0.3435 -0.5313
 4034TIP3    H133517   0.091   0.410  14.162 -1.0625  1.4332 -0.6922
 4034TIP3    H233518   0.223   0.474  14.198 -0.1552 -0.9220  0.4004
 4035TIP3   OH233519   0.301   2.338  11.070  0.6199  0.2664 -0.4172
 4035TIP3    H133520   0.380   2.343  11.016  2.4207 -1.8565  1.7822
 4035TIP3    H233521   0.273   2.429  11.079  2.1647  0.9832 -2.1460
 4036TIP3   OH233522   1.726   2.115   1.293 -0.0880  0.8510 -0.0274
 4036TIP3    H133523   1.801   2.172   1.274 -1.1720  2.0356 -0.8841
 4036TIP3    H233524   1.737   2.041   1.234  0.5735  0.8481  0.0878
 4037TIP3   OH233525   1.379   3.393   3.630 -0.4831 -0.3949 -0.6231
 4037TIP3    H133526   1.374   3.348   3.715  0.0582 -0.0352 -0.3915
 4037TIP3    H233527   1.322   3.469   3.640  0.0978  0.0121 -0.3425
 4038TIP3   OH233528   3.955   2.969   4.401  0.2767  0.1654 -0.1018
 4038TIP3    H133529   3.964   3.049   4.348  2.8253 -0.0242 -0.0881
 4038TIP3    H233530   3.932   2.901   4.338 -2.7840  0.9489 -0.0030
 4039TIP3   OH233531   2.867   5.598   5.444 -0.3889  0.3697 -0.3544
 4039TIP3    H133532   2.909   5.676   5.479 -2.3982  0.5574  1.8294
 4039TIP3    H233533   2.787   5.629   5.403  0.9923 -0.0878 -3.7049
 4040TIP3   OH233534   1.505   6.359  13.863  0.0310 -0.5881  0.2780
 4040TIP3    H133535   1.459   6.280  13.837 -2.1950  0.7358 -0.0962
 4040TIP3    H233536   1.462   6.387  13.943  0.8303  0.2053  0.4483
 4041TIP3   OH233537   4.006   5.415   5.848  0.3375  0.0727  0.4432
 4041TIP3    H133538   3.969   5.458   5.925  1.5403  0.8206  0.6444
 4041TIP3    H233539   4.048   5.336   5.883  1.1989  0.5982  0.6407
 4042TIP3   OH233540   1.322   6.096   4.532  0.1632  0.0627 -0.4637
 4042TIP3    H133541   1.242   6.097   4.586  1.7034 -0.0211  1.9542
 4042TIP3    H233542   1.331   6.187   4.503 -0.6072  0.1483 -0.4791
 4043TIP3   OH233543   2.811   0.025  14.216  0.5072  0.3173 -0.1028
 4043TIP3    H133544   2.774   0.020  14.127 -1.4541 -2.2224  0.7395
 4043TIP3    H233545   2.745   0.070  14.267  0.1948 -0.9897  0.6800
 4044TIP3   OH233546   3.301   1.502   2.781 -0.9596  0.0450 -0.0026
 4044TIP3    H133547   3.319   1.431   2.843  0.9885  0.8772  0.4529
 4044TIP3    H233548   3.383   1.512   2.732 -1.9037  0.5737 -1.5281
 4045TIP3   OH233549   1.460   4.409  11.288  0.2121  0.1937  0.1267
 4045TIP3    H133550   1.427   4.338  11.232  0.5228  0.3795 -0.3014
 4045TIP3    H233551   1.427   4.388  11.375 -3.1165  1.6805 -0.6329
 4046TIP3   OH233552   0.991   0.048   3.971 -0.3265  0.0657  0.6483
 4046TIP3    H133553   0.944   0.107   3.912  0.5839  1.2308  1.0529
 4046TIP3    H233554   1.020  -0.023   3.915 -1.0990  0.1929  0.0668
 4047TIP3   OH233555   1.827   2.987   5.957 -0.2624 -0.0465  0.7118
 4047TIP3    H133556   1.857   2.940   6.035  0.7618 -1.0018 -0.2160
 4047TIP3    H233557   1.852   3.078   5.971 -0.4885 -0.1328  1.6841
 4048TIP3   OH233558   1.472   5.255   3.037 -0.1699 -0.1875  0.5562
 4048TIP3    H133559   1.480   5.337   2.988  0.1341 -0.3227  0.3812
 4048TIP3    H233560   1.446   5.283   3.125 -0.3508  0.0792  0.4214
 4049TIP3   OH233561   5.700   0.308   3.333 -0.7288 -0.2766 -0.6507
 4049TIP3    H133562   5.701   0.215   3.355 -2.5698 -0.0874  0.5310
 4049TIP3    H233563   5.792   0.332   3.323 -0.2090 -2.1658 -0.7661
 4050TIP3   OH233564   6.191   4.178   4.919  0.0553 -0.0214 -0.1625
 4050TIP3    H133565   6.121   4.127   4.961  0.3988  0.3650  0.9192
 4050TIP3    H233566   6.183   4.158   4.826 -1.4217 -0.0835 -0.0507
 4051TIP3   OH233567   4.271   1.343   2.636 -0.0603 -0.5129 -0.1841
 4051TIP3    H133568   4.213   1.368   2.565  0.1121 -1.2412 -0.5927
 4051TIP3    H233569   4.359   1.341   2.597  0.4314  1.6518  0.6876
 4052TIP3   OH233570   4.028   4.329  11.862 -0.2284 -0.6599 -0.0323
 4052TIP3    H133571   4.054   4.417  11.835 -2.4090 -0.1321 -0.6159
 4052TIP3    H233572   4.055   4.272  11.790 -0.3682 -0.1966 -0.4560
 4053TIP3   OH233573   0.619   3.403  15.022  0.1126  0.7920  0.3958
 4053TIP3    H133574   0.611   3.309  15.037  0.7169  0.9204  1.6083
 4053TIP3    H233575   0.579   3.417  14.936 -0.6897 -0.4562  0.5417
 4054TIP3   OH233576   3.589   1.742  15.816 -0.3089  0.0625 -0.1204
 4054TIP3    H133577   3.534   1.665  15.802  0.0561  0.0126 -1.4169
 4054TIP3    H233578   3.668   1.708  15.858 -0.1179 -0.2995 -0.7556
 4055TIP3   OH233579   6.423   1.826   0.728  0.5700 -0.2121 -0.1631
 4055TIP3    H133580   6.349   1.827   0.788  0.4787 -1.2906 -0.2307
 4055TIP3    H233581   6.397   1.883   0.656 -0.1681 -0.5044 -0.1373
 4056TIP3   OH233582   0.669   6.337  11.105 -0.1086  0.4661 -0.1547
 4056TIP3    H133583   0.678   6.356  11.198  0.0332 -0.9095  0.1342
 4056TIP3    H233584   0.698   6.417  11.061  0.5323  0.8764  0.9781
 4057TIP3   OH233585   1.298   3.360  14.296 -1.1772 -0.2300 -0.2674
 4057TIP3    H133586   1.323   3.448  14.323 -1.1543 -1.0696  2.7372
 4057TIP3    H233587   1.375   3.325  14.252 -0.8578  0.8953 -0.6293
 4058TIP3   OH233588   0.841   4.571   4.733 -0.2491  0.2793  0.2949
 4058TIP3    H133589   0.824   4.657   4.772 -2.3033 -0.0775  0.2733
 4058TIP3    H233590   0.839   4.510   4.806  0.1369  0.1169  0.1728
 4059TIP3   OH233591   1.864   3.009  14.054  0.2214 -0.2009  0.1502
 4059TIP3    H133592   1.773   3.022  14.028 -0.2552  0.2230  1.9201
 4059TIP3    H233593   1.866   2.919  14.088  0.9862 -0.9879 -1.8272
 4060TIP3   OH233594   6.608   0.529  12.116  0.4735  0.0462 -0.7837
 4060TIP3    H133595   6.595   0.615  12.155 -0.0002 -0.0132 -0.8066
 4060TIP3    H233596   6.591   0.467  12.188 -1.7550 -0.1200 -1.3734
 4061TIP3   OH233597   4.095   2.428   2.890 -0.2290  0.1334  0.2638
 4061TIP3    H133598   4.163   2.436   2.957 -0.6732 -0.7021  0.8315
 4061TIP3    H233599   4.121   2.491   2.823  0.6090  0.4841  0.8882
 4062TIP3   OH233600   4.306   6.051  16.417  0.2157  0.3104  0.7128
 4062TIP3    H133601   4.258   6.044  16.335  0.7477 -1.5862  0.5064
 4062TIP3    H233602   4.248   6.011  16.482  1.3725 -1.9284  0.4754
 4063TIP3   OH233603   3.710   1.656  14.972  0.2336 -0.4329 -0.6318
 4063TIP3    H133604   3.793   1.616  14.999  0.4208  0.0564 -0.4638
 4063TIP3    H233605   3.736   1.728  14.915  0.1872  2.1331  2.3177
 4064TIP3   OH233606   1.240   6.578   6.043  0.4708  0.1989  0.1044
 4064TIP3    H133607   1.275   6.525   6.114  1.9123  1.6765  0.5526
 4064TIP3    H233608   1.257   6.526   5.964  1.3965 -0.2325  0.5684
 4065TIP3   OH233609   2.159   0.820  14.728  0.3013  0.9836 -0.3723
 4065TIP3    H133610   2.182   0.842  14.637 -0.0223  3.4750  0.1045
 4065TIP3    H233611   2.137   0.727  14.724  1.5247  0.7091 -2.5962
 4066TIP3   OH233612   2.805   4.263   4.169  0.0848 -0.9689  0.1048
 4066TIP3    H133613   2.750   4.340   4.159 -0.0022 -1.1709 -1.0899
 4066TIP3    H233614   2.856   4.280   4.248 -0.5586 -0.0837  0.3411
 4067TIP3   OH233615   0.599   5.143   6.224 -0.4323 -0.2685 -0.7659
 4067TIP3    H133616   0.680   5.154   6.175  1.0077 -0.7706  1.3426
 4067TIP3    H233617   0.580   5.049   6.220  0.6829 -0.6312  0.9464
 4068TIP3   OH233618   4.057   0.365   4.407  0.3635  0.2756 -0.0217
 4068TIP3    H133619   4.045   0.287   4.461 -0.3770 -0.3208 -1.0028
 4068TIP3    H233620   4.057   0.331   4.317  1.3527  1.2643 -0.4080
 4069TIP3   OH233621   6.012   5.352  15.054 -0.6677 -0.4635  0.5678
 4069TIP3    H133622   6.041   5.437  15.021  1.2763 -0.5203  1.9498
 4069TIP3    H233623   6.042   5.289  14.988  1.6885 -0.4231  1.5220
 4070TIP3   OH233624   2.713   6.222   0.140 -0.3132  0.3441 -0.4561
 4070TIP3    H133625   2.768   6.150   0.110  0.0091  0.5154 -0.2711
 4070TIP3    H233626   2.766   6.269   0.204 -0.8802  0.1708  0.1537
 4071TIP3   OH233627   3.555   0.939   3.527  0.0068 -0.3592  0.3632
 4071TIP3    H133628   3.493   0.956   3.456  2.0982  0.7149 -1.3131
 4071TIP3    H233629   3.639   0.925   3.484  1.3086 -0.0829  2.6202
 4072TIP3   OH233630   6.757   3.365   4.359  0.3340  0.1550  0.0946
 4072TIP3    H133631   6.701   3.350   4.282  1.9638 -1.2664 -0.9107
 4072TIP3    H233632   6.717   3.439   4.404 -4.4242 -2.7598  1.4517
 4073TIP3   OH233633   2.062   4.224  14.298 -0.6867 -0.3044  0.0136
 4073TIP3    H133634   2.067   4.260  14.209 -1.1597  3.2685  1.3032
 4073TIP3    H233635   2.140   4.169  14.305  0.1029  0.4322 -2.1566
 4074TIP3   OH233636   3.249   4.299   5.501 -0.4659  0.3356 -0.5285
 4074TIP3    H133637   3.314   4.269   5.437  1.0052  0.4178  0.8831
 4074TIP3    H233638   3.264   4.394   5.507 -0.0557  0.2170  0.4926
 4075TIP3   OH233639   3.305   5.455   2.019  0.0045  0.0475  0.1925
 4075TIP3    H133640   3.344   5.538   2.047  1.4129 -0.0480 -1.3591
 4075TIP3    H233641   3.307   5.459   1.924 -0.2226 -1.6386  0.0930
 4076TIP3   OH233642   5.277   3.311   4.179  0.0165 -0.1602  0.0029
 4076TIP3    H133643   5.313   3.248   4.242 -1.2048 -0.6216  0.2909
 4076TIP3    H233644   5.232   3.256   4.115  1.3923  0.3006 -1.3877
 4077TIP3   OH233645   2.976   1.253  11.395  0.0941 -0.1246  0.4958
 4077TIP3    H133646   2.914   1.303  11.341 -0.0075 -0.0650  0.6692
 4077TIP3    H233647   2.965   1.162  11.364  0.1320 -0.0717  0.3237
 4078TIP3   OH233648   0.860   3.170  13.428  0.1205 -0.1183 -0.0380
 4078TIP3    H133649   0.849   3.081  13.463  0.7040 -1.1844 -2.3698
 4078TIP3    H233650   0.946   3.170  13.387 -0.3267  1.1710 -1.0532
 4079TIP3   OH233651   1.314   3.267  15.304  0.4679  0.3307  0.0108
 4079TIP3    H133652   1.301   3.267  15.209  1.9714 -0.5163 -0.2239
 4079TIP3    H233653   1.387   3.328  15.318 -0.2634  1.0553  0.7090
 4080TIP3   OH233654   1.548   2.166  11.848  0.1921  0.1231  0.3246
 4080TIP3    H133655   1.602   2.238  11.817  2.8756 -0.6656  2.7086
 4080TIP3    H233656   1.460   2.185  11.814  1.4166  2.7860 -1.7115
 4081TIP3   OH233657   5.019   1.180  12.140  0.0116  0.0353 -0.0581
 4081TIP3    H133658   4.929   1.214  12.137  0.6957  2.2075  1.4526
 4081TIP3    H233659   5.054   1.199  12.053 -0.8431 -0.4299 -0.5205
 4082TIP3   OH233660   5.931   6.608  14.982 -0.3602 -0.1367  0.2588
 4082TIP3    H133661   5.933   6.531  14.926  0.7920 -0.5961  0.9048
 4082TIP3    H233662   5.897   6.678  14.926 -1.0013 -0.9987 -0.4608
 4083TIP3   OH233663   5.787   3.136   5.751 -1.3097  0.0128 -0.3049
 4083TIP3    H133664   5.823   3.047   5.753 -1.8813 -0.2519 -1.2012
 4083TIP3    H233665   5.834   3.183   5.820 -0.8082 -0.9120 -0.0091
 4084TIP3   OH233666   3.549   2.839  17.029 -0.4326  0.3028  0.1699
 4084TIP3    H133667   3.610   2.816  16.959  0.5361 -2.4772  1.7553
 4084TIP3    H233668   3.601   2.892  17.090 -0.3276  0.0470  0.3037
 4085TIP3   OH233669   0.320   4.991   3.119 -0.4380  0.2251 -0.2458
 4085TIP3    H133670   0.359   4.910   3.153  0.3352  0.5547 -0.3357
 4085TIP3    H233671   0.264   5.022   3.191  1.2826  0.9861  0.8356
 4086TIP3   OH233672   5.770   0.381   5.899 -0.0562  0.1916 -0.3369
 4086TIP3    H133673   5.742   0.367   5.808  0.1845  2.0789 -0.7418
 4086TIP3    H233674   5.697   0.350   5.952 -0.4809 -0.3093 -1.1911
 4087TIP3   OH233675   2.496   5.817  14.133  0.5199  0.4469 -0.0472
 4087TIP3    H133676   2.527   5.773  14.054  0.7650  0.3955  0.0781
 4087TIP3    H233677   2.466   5.903  14.102 -0.8463 -0.1421 -0.4503
 4088TIP3   OH233678   2.744   0.153   4.529  0.0854  0.3712 -0.0045
 4088TIP3    H133679   2.742   0.225   4.467  2.3463  0.4097 -0.1272
 4088TIP3    H233680   2.662   0.160   4.577  0.2401  3.0392  0.0033
 4089TIP3   OH233681   2.786   0.533  13.829 -0.4235  0.4278 -0.2568
 4089TIP3    H133682   2.820   0.541  13.918  1.5718  0.2170 -0.9540
 4089TIP3    H233683   2.691   0.524  13.840 -0.3212  1.3177  1.7828
 4090TIP3   OH233684   0.800   5.226  14.641 -0.1316 -0.1915 -0.0258
 4090TIP3    H133685   0.882   5.246  14.686  0.0262  0.2466 -0.5038
 4090TIP3    H233686   0.751   5.172  14.704  0.4435 -0.3102  0.3278
 4091TIP3   OH233687   5.734   0.831   0.183  0.4222 -0.1208 -0.6312
 4091TIP3    H133688   5.676   0.785   0.243 -0.0747 -1.6182 -2.2057
 4091TIP3    H233689   5.809   0.856   0.237  0.0017 -1.4417  0.6180
 4092TIP3   OH233690   0.328   3.840   6.018  0.3234  0.3400  0.3989
 4092TIP3    H133691   0.279   3.915   5.984  2.4662  1.0680 -1.3356
 4092TIP3    H233692   0.331   3.779   5.945  1.3301 -0.0072  0.7207
 4093TIP3   OH233693   1.343   0.580  14.991 -0.3790  0.3368  0.5732
 4093TIP3    H133694   1.274   0.517  14.970 -0.3520  0.7819 -1.0470
 4093TIP3    H233695   1.361   0.568  15.084 -1.5997 -0.8136  0.6766
 4094TIP3   OH233696   5.741   3.231  11.384  0.0990  0.0899 -0.0088
 4094TIP3    H133697   5.661   3.198  11.343 -0.3159  0.0236  0.8423
 4094TIP3    H233698   5.729   3.215  11.478  0.5830  1.1769  0.2584
 4095TIP3   OH233699   1.370   4.740  12.040 -0.2134 -0.6286  0.2957
 4095TIP3    H133700   1.355   4.646  12.046 -2.2890 -0.3196  0.7444
 4095TIP3    H233701   1.329   4.776  12.119 -0.1141  0.7167 -0.2382
 4096TIP3   OH233702   0.932   6.484  14.420  0.5579  0.4326 -0.0340
 4096TIP3    H133703   0.842   6.495  14.391 -0.2030 -0.5049  1.8166
 4096TIP3    H233704   0.934   6.521  14.509  1.9370  0.2526  0.0352
 4097TIP3   OH233705   5.773   4.590  16.978 -0.3283 -0.3971  0.1052
 4097TIP3    H133706   5.751   4.683  16.983 -0.2638 -0.1708 -2.5530
 4097TIP3    H233707   5.869   4.588  16.979 -0.3116 -0.6401  2.0667
 4098TIP3   OH233708   0.910   6.581  15.950  0.4998  0.1014  0.0118
 4098TIP3    H133709   0.964   6.540  16.017  1.4560  1.4708  0.1217
 4098TIP3    H233710   0.848   6.513  15.923  1.7815 -1.2688  0.4300
 4099TIP3   OH233711   3.633   0.397   0.881 -0.1343 -0.5084  0.1419
 4099TIP3    H133712   3.704   0.457   0.906  1.4502 -2.0286 -0.4855
 4099TIP3    H233713   3.565   0.454   0.845  1.2105  0.9306 -0.2266
 4100TIP3   OH233714   1.160   0.679  14.760 -0.2941 -0.2834  0.1359
 4100TIP3    H133715   1.243   0.655  14.800 -0.7134 -0.0364  1.2119
 4100TIP3    H233716   1.123   0.744  14.820  0.1051  1.9015 -1.8695
 4101TIP3   OH233717   2.765   3.525  12.234  0.5644  0.1938  0.2408
 4101TIP3    H133718   2.832   3.477  12.186  0.2094  2.2937 -2.6453
 4101TIP3    H233719   2.813   3.567  12.306  1.0686 -3.2531  2.1541
 4102TIP3   OH233720   2.742   5.515  12.142  0.4927 -0.2337 -0.0435
 4102TIP3    H133721   2.822   5.545  12.099  1.3544 -0.8679  1.0527
 4102TIP3    H233722   2.740   5.421  12.126  1.0783 -0.5642  1.6311
 4103TIP3   OH233723   4.896   6.396   1.819 -0.7473  0.3891  0.3400
 4103TIP3    H133724   4.840   6.341   1.763  0.2481 -0.2594 -0.0441
 4103TIP3    H233725   4.891   6.355   1.905 -0.7965  0.2713  0.2824
 4104TIP3   OH233726   4.167   2.501  14.723  0.5251  0.4490 -0.1310
 4104TIP3    H133727   4.229   2.431  14.703  2.4023  1.8636  0.3787
 4104TIP3    H233728   4.096   2.457  14.770  1.4328 -1.1652 -0.1749
 4105TIP3   OH233729   4.301   3.029   1.168  0.5454  0.4211 -0.7298
 4105TIP3    H133730   4.260   2.954   1.124 -1.0661  1.0322 -0.3654
 4105TIP3    H233731   4.288   3.102   1.107 -0.6156  1.0125  0.1756
 4106TIP3   OH233732   3.303   0.292  15.882 -0.4948  0.1814  0.1943
 4106TIP3    H133733   3.293   0.255  15.969  0.7235 -0.6809 -0.0078
 4106TIP3    H233734   3.344   0.223  15.831 -1.6988  0.4693 -1.2309
 4107TIP3   OH233735   3.466   1.683  14.608 -0.4768  0.0785 -0.0824
 4107TIP3    H133736   3.459   1.751  14.675 -0.3954 -0.7680  0.8029
 4107TIP3    H233737   3.481   1.602  14.656 -0.0950 -0.5126 -1.1398
 4108TIP3   OH233738   0.473   6.664   3.621 -0.3518  0.1747 -0.7765
 4108TIP3    H133739   0.559   6.645   3.584 -0.5327  1.2155 -1.7549
 4108TIP3    H233740   0.469   6.609   3.700  0.4304 -1.3223 -1.7394
 4109TIP3   OH233741   6.379   1.837   3.866  0.0689  0.3886 -0.1917
 4109TIP3    H133742   6.443   1.767   3.875 -0.3545 -0.4617 -2.9842
 4109TIP3    H233743   6.378   1.880   3.952 -0.9031 -4.0303  2.3175
 4110TIP3   OH233744   2.848   1.446   2.648 -0.0871  0.9060 -0.0305
 4110TIP3    H133745   2.784   1.440   2.576 -0.0289 -0.3061  0.0083
 4110TIP3    H233746   2.814   1.388   2.715  0.3958  1.2519  0.5193
 4111TIP3   OH233747   6.615   2.283   2.943 -0.3905  0.1964  0.0354
 4111TIP3    H133748   6.678   2.353   2.926  2.8305 -2.0591  1.6126
 4111TIP3    H233749   6.543   2.326   2.990 -1.6961  3.4290 -4.3048
 4112TIP3   OH233750   1.325   6.128   3.350  0.0724 -0.0497 -0.0478
 4112TIP3    H133751   1.297   6.179   3.274  1.6226  0.3629 -0.3700
 4112TIP3    H233752   1.263   6.056   3.355 -0.8273  0.6364 -0.9189
 4113TIP3   OH233753   1.943   0.945  13.868 -0.3020 -0.1966  0.2210
 4113TIP3    H133754   1.933   1.000  13.946 -0.7340  0.7259 -0.4640
 4113TIP3    H233755   1.865   0.963  13.816  0.1332 -0.5609 -0.5719
 4114TIP3   OH233756   1.513   1.575   5.982  0.1407 -0.0273  0.0994
 4114TIP3    H133757   1.447   1.558   6.049 -0.8207  0.8752 -0.5802
 4114TIP3    H233758   1.587   1.613   6.030  0.2051 -1.0729  0.8755
 4115TIP3   OH233759   4.783   1.355  13.742  0.5179 -0.4162 -0.5353
 4115TIP3    H133760   4.824   1.284  13.693  0.7558 -1.6164  1.2927
 4115TIP3    H233761   4.846   1.376  13.812 -0.4454  0.1557  0.1929
 4116TIP3   OH233762   2.330   2.041   2.498 -0.0603  0.0844  0.1913
 4116TIP3    H133763   2.313   2.005   2.411  2.0844 -0.1461 -0.2065
 4116TIP3    H233764   2.377   2.122   2.481  1.8016 -0.7472  1.0848
 4117TIP3   OH233765   0.240   4.568   0.869 -0.7091 -0.2099 -0.5875
 4117TIP3    H133766   0.227   4.567   0.774  2.0308 -0.1069 -1.0603
 4117TIP3    H233767   0.189   4.643   0.899 -1.6624 -0.2701 -1.9681
 4118TIP3   OH233768   2.056   6.449   2.143 -0.5879  0.4375 -0.1444
 4118TIP3    H133769   2.113   6.498   2.201 -1.2209 -0.2780  1.1169
 4118TIP3    H233770   1.995   6.515   2.108 -1.6300  0.5353  1.7691
 4119TIP3   OH233771   2.737   6.550  14.491 -0.3038 -0.0560 -0.0578
 4119TIP3    H133772   2.717   6.458  14.507  0.9178  0.2206  4.1733
 4119TIP3    H233773   2.792   6.549  14.412 -0.7982 -2.8619 -0.4580
 4120TIP3   OH233774   5.389   4.662  12.634  0.3561 -0.0816  0.2650
 4120TIP3    H133775   5.349   4.683  12.718  1.7997  1.2461  0.6828
 4120TIP3    H233776   5.482   4.654  12.653  1.1453  2.9197 -1.5445
 4121TIP3   OH233777   1.836   2.290  11.855 -0.3111 -0.8166 -0.0167
 4121TIP3    H133778   1.838   2.222  11.922 -2.0019 -1.7861 -0.8538
 4121TIP3    H233779   1.845   2.242  11.772  0.1686  0.1707 -0.5511
 4122TIP3   OH233780   0.709   5.463  12.351 -0.1626 -0.2442  0.2771
 4122TIP3    H133781   0.726   5.532  12.287  0.0514  0.9736  1.6079
 4122TIP3    H233782   0.614   5.466  12.364 -0.0765  0.2409  0.8095
 4123TIP3   OH233783   5.520   2.154   5.307 -0.1967  0.1315  0.1740
 4123TIP3    H133784   5.487   2.178   5.393  2.0538  1.3630  0.7505
 4123TIP3    H233785   5.516   2.058   5.305  1.5529 -0.0495  2.4525
 4124TIP3   OH233786   2.341   6.752  12.887 -0.0586 -0.6359 -0.1773
 4124TIP3    H133787   2.423   6.761  12.935 -1.0190 -1.4839  1.7541
 4124TIP3    H233788   2.298   6.837  12.895 -1.1297 -1.3335  2.3781
 4125TIP3   OH233789   2.291   2.826  14.880 -0.4369 -0.4478  0.5782
 4125TIP3    H133790   2.286   2.748  14.934 -0.7370  0.1333  1.4173
 4125TIP3    H233791   2.212   2.823  14.826 -0.8416 -0.3486  1.1510
 4126TIP3   OH233792   1.777   3.280   2.658 -0.4993 -0.3993 -0.0641
 4126TIP3    H133793   1.743   3.208   2.605 -1.5175 -0.4722  0.6677
 4126TIP3    H233794   1.872   3.266   2.659 -0.4607 -0.4607 -1.7494
 4127TIP3   OH233795   1.956   1.996  15.772 -0.2823 -0.0238  0.7089
 4127TIP3    H133796   2.042   1.970  15.807  0.3026  1.1066  0.1491
 4127TIP3    H233797   1.976   2.043  15.691 -1.4947 -0.5117  0.1046
 4128TIP3   OH233798   6.755   0.041  12.950  0.1146  0.2639  0.1487
 4128TIP3    H133799   6.693  -0.033  12.946 -0.8459  0.8523  2.5803
 4128TIP3    H233800   6.801   0.030  13.033  1.2004  1.4842 -0.2501
 4129TIP3   OH233801   2.397   6.029  14.833  0.6784  0.2103 -0.0634
 4129TIP3    H133802   2.355   6.114  14.847  1.2894  0.5522 -0.2625
 4129TIP3    H233803   2.491   6.047  14.845  0.7530 -0.5873  0.6332
 4130TIP3   OH233804   5.054   0.008  16.559  0.2168 -0.3133  0.1715
 4130TIP3    H133805   5.082   0.097  16.582  1.1391  0.0492 -2.1333
 4130TIP3    H233806   4.980  -0.009  16.618  0.6335  1.5838  1.3406
 4131TIP3   OH233807   0.877   1.131  13.973 -0.4660  0.3301 -0.0168
 4131TIP3    H133808   0.972   1.135  13.974 -0.4101 -0.3532  2.0519
 4131TIP3    H233809   0.856   1.077  13.897  0.8148  0.2441 -0.3328
 4132TIP3   OH233810   0.087   5.781   1.149 -0.1969  0.0267 -0.2231
 4132TIP3    H133811   0.012   5.737   1.108  0.0364 -1.7141  1.0951
 4132TIP3    H233812   0.104   5.857   1.093 -1.9214 -0.4314 -1.4566
 4133TIP3   OH233813   4.233   1.472   5.359  0.0121  0.0300 -0.7726
 4133TIP3    H133814   4.180   1.543   5.397  0.3109 -0.7706  1.2931
 4133TIP3    H233815   4.168   1.412   5.321 -0.4291  0.1612 -0.2451
 4134TIP3   OH233816   2.173   4.019   0.360  0.4933 -0.3625  0.0557
 4134TIP3    H133817   2.209   4.088   0.305 -1.3775  0.8073  0.2363
 4134TIP3    H233818   2.226   4.022   0.440  0.5733  0.7114 -0.0274
 4135TIP3   OH233819   0.721   4.224   6.180  0.7695  0.6484 -0.1465
 4135TIP3    H133820   0.692   4.191   6.265 -0.4143  2.7693  0.3424
 4135TIP3    H233821   0.783   4.294   6.201  0.0002  1.6093 -0.9887
 4136TIP3   OH233822   5.401   0.862   5.688  0.2751 -0.2858 -0.7652
 4136TIP3    H133823   5.486   0.848   5.646  1.7427  1.4442  1.4090
 4136TIP3    H233824   5.398   0.796   5.757  1.2280  1.3911  0.9803
 4137TIP3   OH233825   5.988   3.628   1.603 -0.3669 -0.2273 -0.4151
 4137TIP3    H133826   6.073   3.612   1.645 -1.0086 -1.3496  0.5101
 4137TIP3    H233827   5.978   3.723   1.605  0.1043 -0.1822  1.0298
 4138TIP3   OH233828   3.541   5.276   1.577 -0.0092 -0.3367  0.1179
 4138TIP3    H133829   3.483   5.333   1.528 -0.7193  0.8456  2.2054
 4138TIP3    H233830   3.539   5.193   1.530  0.9819  1.2358 -2.9752
 4139TIP3   OH233831   2.825   4.226  16.855 -0.1079 -0.2206  0.8799
 4139TIP3    H133832   2.733   4.249  16.842 -0.0101 -0.0410  0.4800
 4139TIP3    H233833   2.874   4.298  16.814  0.2047 -1.5976 -1.3257
 4140TIP3   OH233834   6.107   2.840  14.593 -0.5252 -0.5417  0.1059
 4140TIP3    H133835   6.073   2.833  14.504 -0.3159 -0.3245  0.0073
 4140TIP3    H233836   6.146   2.754  14.611  0.3579 -0.2626 -0.3983
 4141TIP3   OH233837   5.833   1.504   2.626 -0.1994 -0.0397  0.0347
 4141TIP3    H133838   5.909   1.500   2.567  0.2503 -2.4799  0.6714
 4141TIP3    H233839   5.866   1.549   2.704  0.5453 -0.8083  0.1839
 4142TIP3   OH233840   3.543   5.076  12.322 -0.4754 -0.5763  0.0695
 4142TIP3    H133841   3.581   5.164  12.319  1.5793 -1.4041  0.0432
 4142TIP3    H233842   3.487   5.077  12.399 -0.4275  0.7222  0.1226
 4143TIP3   OH233843   6.357   6.481   5.421  0.5479 -0.1520 -0.5574
 4143TIP3    H133844   6.437   6.530   5.403 -0.3342  0.8565 -1.9333
 4143TIP3    H233845   6.354   6.474   5.516  2.1693 -0.0481 -0.4796
 4144TIP3   OH233846   1.829   1.053  11.604 -0.4468 -0.0010 -0.0613
 4144TIP3    H133847   1.879   1.082  11.528  0.2154 -2.6738 -0.7647
 4144TIP3    H233848   1.783   1.131  11.634  3.4023  2.4934  0.1044
 4145TIP3   OH233849   6.654   0.051  14.151  0.0348 -0.7057  0.6165
 4145TIP3    H133850   6.644  -0.006  14.227 -0.1779  0.6798  1.6797
 4145TIP3    H233851   6.708   0.124  14.183 -1.0912  0.5365 -0.1733
 4146TIP3   OH233852   3.427   2.546  16.455  0.4426  0.0673  0.1046
 4146TIP3    H133853   3.390   2.461  16.480  0.3612  0.2141  0.4888
 4146TIP3    H233854   3.452   2.587  16.538  0.5470  0.3921 -0.0840
 4147TIP3   OH233855   3.645   5.524  16.460  0.0604 -0.5452  0.5539
 4147TIP3    H133856   3.739   5.531  16.480 -0.4661  1.2920  2.7945
 4147TIP3    H233857   3.616   5.451  16.514 -0.1750  0.3326  1.6513
 4148TIP3   OH233858   2.725   1.881  12.494  0.5886 -0.0917 -0.4314
 4148TIP3    H133859   2.659   1.823  12.533  0.2075  0.2927 -0.4907
 4148TIP3    H233860   2.685   1.968  12.498  2.0211  0.5377  1.6430
 4149TIP3   OH233861   6.390   4.324  13.371  0.2430  0.1697  0.0986
 4149TIP3    H133862   6.364   4.289  13.456  1.5517 -0.5124  0.2301
 4149TIP3    H233863   6.349   4.411  13.368 -0.7123 -0.2325  0.9481
 4150TIP3   OH233864   5.764   2.903   3.001 -0.2030  0.3660  0.5844
 4150TIP3    H133865   5.855   2.882   2.983 -0.4631  1.1135 -2.0955
 4150TIP3    H233866   5.766   2.995   3.028 -0.2192  0.7629 -0.6830
 4151TIP3   OH233867   1.250   1.918   3.047 -0.1331 -0.2144  1.4021
 4151TIP3    H133868   1.326   1.881   3.090  2.6873  0.9958 -2.0187
 4151TIP3    H233869   1.210   1.845   3.000  1.1719 -0.2832  0.3418
 4152TIP3   OH233870   2.890   1.183   2.426 -0.5187 -0.3529  0.1644
 4152TIP3    H133871   2.955   1.250   2.449 -1.4690  1.0387 -1.0282
 4152TIP3    H233872   2.906   1.165   2.333 -2.8764  1.3171 -0.6576
 4153TIP3   OH233873   0.709   3.680  11.357 -0.4183  0.3297 -0.1297
 4153TIP3    H133874   0.676   3.667  11.446 -1.3992 -0.8741 -0.6299
 4153TIP3    H233875   0.743   3.594  11.332 -0.9970  0.4059 -1.2347
 4154TIP3   OH233876   6.760   0.110   1.535 -0.9260 -0.4156 -0.1610
 4154TIP3    H133877   6.696   0.068   1.592 -0.6482 -1.2706 -0.4690
 4154TIP3    H233878   6.793   0.184   1.586 -1.9542 -0.1180  0.1025
 4155TIP3   OH233879   2.991   0.784  17.147  0.2512  1.0011 -0.2686
 4155TIP3    H133880   3.078   0.764  17.112  0.1070  3.1845 -2.1454
 4155TIP3    H233881   2.930   0.758  17.077 -0.8168 -1.6152  1.4812
 4156TIP3   OH233882   0.289   0.594   1.188  0.0633 -0.0430  0.3172
 4156TIP3    H133883   0.305   0.540   1.111  1.2389 -0.8964  1.1205
 4156TIP3    H233884   0.370   0.645   1.198 -0.1537  0.1981  0.8760
 4157TIP3   OH233885   4.980   3.229   1.088 -0.0468  0.3350 -0.1463
 4157TIP3    H133886   5.000   3.141   1.058  1.3943  0.1889  1.1149
 4157TIP3    H233887   4.887   3.242   1.066 -0.4588 -1.7291  0.2117
 4158TIP3   OH233888   1.103   2.469  12.935  0.0480  0.1818  0.0125
 4158TIP3    H133889   1.085   2.428  13.020  2.8158 -1.0692  0.0948
 4158TIP3    H233890   1.054   2.416  12.872 -0.2157 -0.2937  0.6063
 4159TIP3   OH233891   4.328   2.572   5.687  0.7835 -0.3584 -0.0351
 4159TIP3    H133892   4.270   2.634   5.644 -0.1718 -0.5429  0.9488
 4159TIP3    H233893   4.287   2.556   5.772  2.3859 -0.3225  0.7773
 4160TIP3   OH233894   5.086   4.499   5.113 -0.3514  0.8234 -0.9943
 4160TIP3    H133895   4.999   4.510   5.075 -0.6934  0.1467 -0.4452
 4160TIP3    H233896   5.071   4.498   5.208  0.3302  1.2919 -0.8777
 4161TIP3   OH233897   4.140   5.314   4.561 -0.1112 -0.5344 -0.7827
 4161TIP3    H133898   4.165   5.399   4.525 -3.5098  0.2822 -1.5265
 4161TIP3    H233899   4.173   5.251   4.497  0.0453  0.4111 -1.6607
 4162TIP3   OH233900   1.346   0.810  16.491 -0.3787 -0.2228 -0.2705
 4162TIP3    H133901   1.281   0.875  16.517 -1.3287 -1.8867  1.8778
 4162TIP3    H233902   1.319   0.782  16.404 -0.5918  1.4114 -0.7613
 4163TIP3   OH233903   4.085   3.950  16.714 -0.1471 -0.0363 -0.0800
 4163TIP3    H133904   4.115   3.993  16.634 -0.4194  1.5490  0.6278
 4163TIP3    H233905   4.104   4.014  16.784 -2.4623 -0.1805  0.7598
 4164TIP3   OH233906   1.458   1.320   2.631  0.4772 -0.4910 -0.1413
 4164TIP3    H133907   1.552   1.332   2.623  0.5807  0.2559  1.6055
 4164TIP3    H233908   1.437   1.354   2.719 -1.8249  1.9232 -1.4698
 4165TIP3   OH233909   5.642   3.505  12.864 -0.0265 -0.0816  0.3178
 4165TIP3    H133910   5.615   3.491  12.955 -0.6827  1.5849  0.4251
 4165TIP3    H233911   5.574   3.463  12.812  0.0651 -0.5783  0.5968
 4166TIP3   OH233912   1.964   0.114   0.175 -0.2983 -0.0872  0.0728
 4166TIP3    H133913   1.945   0.069   0.093 -1.3301 -0.5480  0.5467
 4166TIP3    H233914   1.879   0.139   0.210  0.1158  0.0798  1.0172
 4167TIP3   OH233915   5.801   4.349  14.700  0.6001  0.5759  0.0383
 4167TIP3    H133916   5.756   4.335  14.784  0.2497 -1.5316 -0.4251
 4167TIP3    H233917   5.731   4.339  14.635  1.0156  1.4047 -0.5392
 4168TIP3   OH233918   5.053   3.324  14.545 -0.0267  0.3601 -0.1133
 4168TIP3    H133919   5.145   3.337  14.525 -0.0178  1.0316  0.3328
 4168TIP3    H233920   5.013   3.300  14.462  0.5105  0.2693 -0.3497
 4169TIP3   OH233921   3.964   6.083  15.109 -0.1015 -0.9896  0.0355
 4169TIP3    H133922   3.964   6.017  15.041 -3.3676 -0.6034 -0.4952
 4169TIP3    H233923   4.009   6.158  15.070 -4.0367  0.1613 -2.9342
 4170TIP3   OH233924   5.227   5.460   2.467 -0.1542  0.1721 -0.0424
 4170TIP3    H133925   5.184   5.470   2.552 -1.5392 -0.8363 -0.5929
 4170TIP3    H233926   5.163   5.491   2.403  0.6406  0.3455 -0.7829
 4171TIP3   OH233927   6.522   6.783  16.598  0.4571  0.5307 -0.1120
 4171TIP3    H133928   6.476   6.700  16.606 -1.0934  1.4663  1.6605
 4171TIP3    H233929   6.561   6.797  16.684  0.1992  1.8704 -0.1793
 4172TIP3   OH233930   5.343   0.789  14.624  0.2406 -0.9742 -0.4735
 4172TIP3    H133931   5.257   0.815  14.657 -0.1597  1.2398 -2.8715
 4172TIP3    H233932   5.405   0.829  14.685 -0.4445 -0.4667 -0.0898
 4173TIP3   OH233933   1.984   3.046   0.362  0.4973 -0.3324 -0.0928
 4173TIP3    H133934   1.981   2.985   0.289 -0.0852 -2.3105  1.5160
 4173TIP3    H233935   2.038   3.003   0.428 -1.7462 -0.1831  1.9596
 4174TIP3   OH233936   3.284   4.736   2.393  0.1977  0.6618 -0.6405
 4174TIP3    H133937   3.242   4.657   2.427  0.4182  0.7248 -0.2233
 4174TIP3    H233938   3.240   4.752   2.310  1.2485 -0.8343 -1.5428
 4175TIP3   OH233939   0.480   4.075  16.710 -0.3339  0.2172 -0.2608
 4175TIP3    H133940   0.537   4.029  16.772  0.0354 -0.7778 -1.3018
 4175TIP3    H233941   0.404   4.018  16.700 -0.0126 -0.0476 -1.3358
 4176TIP3   OH233942   1.732   2.377   0.372 -0.2685 -0.7623  0.2564
 4176TIP3    H133943   1.751   2.360   0.464  3.9109  1.8147  0.1206
 4176TIP3    H233944   1.763   2.299   0.327 -1.0793 -1.4771  0.8975
 4177TIP3   OH233945   4.247   4.473  16.002  0.2465  0.7851 -0.4538
 4177TIP3    H133946   4.152   4.474  16.011  0.2835 -0.7326  0.4020
 4177TIP3    H233947   4.267   4.390  15.958  1.2216  0.7370  0.0368
 4178TIP3   OH233948   3.122   1.851   0.282 -0.2032  0.3549  0.0090
 4178TIP3    H133949   3.046   1.865   0.226  1.1226  2.9383 -1.3864
 4178TIP3    H233950   3.102   1.898   0.363 -0.5243  0.1238  0.0608
 4179TIP3   OH233951   4.989   2.532  16.806  0.2282  0.5192  0.2215
 4179TIP3    H133952   4.939   2.475  16.866  0.2435  0.1352 -0.1243
 4179TIP3    H233953   4.949   2.618  16.817  1.1576  0.7689  1.8379
 4180TIP3   OH233954   6.447   5.992   2.334  0.1686 -0.0770  0.1906
 4180TIP3    H133955   6.470   5.905   2.367 -1.1262 -0.4319  0.2083
 4180TIP3    H233956   6.442   5.980   2.239  0.9795  0.2326  0.1017
 4181TIP3   OH233957   4.007   2.707  14.029 -0.3832  0.2688  0.4013
 4181TIP3    H133958   3.935   2.644  14.028  0.0765 -0.3209 -1.9302
 4181TIP3    H233959   4.073   2.668  14.085  0.1858 -1.7841 -1.5575
 4182TIP3   OH233960   5.686   1.659  16.461 -0.1845 -0.2119 -1.1084
 4182TIP3    H133961   5.651   1.606  16.532 -0.0836  0.7634 -0.3103
 4182TIP3    H233962   5.609   1.693  16.416 -0.2503  0.3348 -0.5775
 4183TIP3   OH233963   3.655   5.595  16.169  0.2736 -0.3022 -0.5027
 4183TIP3    H133964   3.657   5.569  16.261 -2.7147  0.9633  0.0492
 4183TIP3    H233965   3.567   5.570  16.139 -0.6896  3.5983 -1.5339
 4184TIP3   OH233966   4.152   3.484  11.730  0.2049  0.2805  0.0896
 4184TIP3    H133967   4.149   3.475  11.635 -1.3784  0.4820  0.0976
 4184TIP3    H233968   4.244   3.469  11.752  0.4212 -0.7773 -1.3601
 4185TIP3   OH233969   5.422   2.778   4.961  0.1500 -0.3841  0.3328
 4185TIP3    H133970   5.458   2.703   4.914 -0.8276  0.8793 -2.6363
 4185TIP3    H233971   5.485   2.849   4.946 -1.9520  1.0776 -2.5549
 4186TIP3   OH233972   2.587   0.591  12.411  1.0521 -0.1736  0.3943
 4186TIP3    H133973   2.625   0.509  12.379  0.8152  0.2151 -0.9521
 4186TIP3    H233974   2.606   0.655  12.342 -3.5437 -0.3388 -1.3421
 4187TIP3   OH233975   1.274   2.862  10.987 -0.0950  0.6013 -0.7626
 4187TIP3    H133976   1.367   2.873  11.007 -0.0876  2.1838 -1.5285
 4187TIP3    H233977   1.263   2.767  10.977  1.3281  0.3514 -0.2088
 4188TIP3   OH233978   4.504   1.919   3.220  0.3635 -0.4527  0.2042
 4188TIP3    H133979   4.596   1.946   3.216 -0.2032  1.7130  0.6537
 4188TIP3    H233980   4.508   1.825   3.236  2.5162 -0.2959  0.9819
 4189TIP3   OH233981   0.483   3.085  13.743  0.3684  0.3770  0.3168
 4189TIP3    H133982   0.466   3.082  13.837  1.0135  0.5209  0.4470
 4189TIP3    H233983   0.458   3.174  13.717  2.5723  1.2297  0.8649
 4190TIP3   OH233984   4.144   1.480  12.563  0.6145 -0.0707  0.3434
 4190TIP3    H133985   4.190   1.461  12.481  0.7056  0.3534  0.2940
 4190TIP3    H233986   4.191   1.555  12.599  2.1124 -1.6736  1.9657
 4191TIP3   OH233987   5.869   1.334  11.045 -0.4102 -0.3920  0.2017
 4191TIP3    H133988   5.881   1.268  11.114 -2.4644 -1.5993 -0.5064
 4191TIP3    H233989   5.924   1.303  10.973  0.1646 -0.2262  0.5579
 4192TIP3   OH233990   4.037   6.715  15.867 -0.2025 -0.3208  0.0325
 4192TIP3    H133991   3.953   6.670  15.857 -0.2964 -0.6367  1.9165
 4192TIP3    H233992   4.103   6.648  15.848 -0.3504 -0.1823 -1.0358
 4193TIP3   OH233993   2.032   6.303   5.227 -0.0916 -0.5505 -0.0355
 4193TIP3    H133994   2.090   6.268   5.294  0.4689 -0.9186 -0.6936
 4193TIP3    H233995   1.949   6.319   5.272 -0.2261 -2.2925  0.3994
 4194TIP3   OH233996   2.510   6.071  16.300  0.5105  0.0944  0.0752
 4194TIP3    H133997   2.445   6.110  16.359  0.8373  2.1436 -0.8322
 4194TIP3    H233998   2.577   6.139  16.290  1.7910 -1.2250 -0.5746
 4195TIP3   OH233999   1.814   4.601   0.135  0.0231  0.2731  0.4239
 4195TIP3    H134000   1.730   4.628   0.097  0.1931 -0.6728 -0.6750
 4195TIP3    H234001   1.796   4.516   0.174  0.6536 -0.3123 -0.5334
 4196TIP3   OH234002   3.869   0.468  15.845  0.2016  0.2581 -0.0110
 4196TIP3    H134003   3.863   0.388  15.897  2.0663  0.0545 -0.0279
 4196TIP3    H234004   3.787   0.471  15.795  0.1076 -1.6494 -0.0389
 4197TIP3   OH234005   6.093   1.387  13.648 -0.7071 -0.0622 -0.2539
 4197TIP3    H134006   6.033   1.363  13.718  0.4129 -1.0796  0.3913
 4197TIP3    H234007   6.180   1.366  13.682 -0.0199  0.7618 -1.4140
 4198TIP3   OH234008   1.441   4.409  13.194  0.5247 -0.2389 -0.2946
 4198TIP3    H134009   1.461   4.481  13.254  1.8629 -0.5396 -0.3449
 4198TIP3    H234010   1.434   4.333  13.251 -1.0630 -0.0683 -0.2234
 4199TIP3   OH234011   4.241   4.697   4.348  0.1047 -0.1055  0.2892
 4199TIP3    H134012   4.243   4.632   4.419 -1.3471 -0.2719  0.2019
 4199TIP3    H234013   4.272   4.649   4.271  1.2275 -0.0520  0.6831
 4200TIP3   OH234014   0.894   4.527   3.295 -0.3822  0.0597  0.5666
 4200TIP3    H134015   0.945   4.450   3.271  0.1415  0.0541  1.6515
 4200TIP3    H234016   0.929   4.597   3.240 -0.6950 -0.4062 -0.2477
 4201TIP3   OH234017   2.741   2.037  14.072 -0.0344 -0.0839  0.2690
 4201TIP3    H134018   2.689   1.956  14.070 -1.4368  0.7631  0.9344
 4201TIP3    H234019   2.676   2.107  14.075  1.1334  1.0034  2.0635
 4202TIP3   OH234020   3.920   3.540  14.106 -0.0041 -0.1772 -0.7774
 4202TIP3    H134021   3.847   3.487  14.139  1.5506 -1.6702  0.4502
 4202TIP3    H234022   3.942   3.500  14.022 -1.8321  1.5499 -2.1569
 4203TIP3   OH234023   3.133   0.170   2.598  0.1965 -0.3229 -0.5523
 4203TIP3    H134024   3.168   0.147   2.512  1.8156  0.1851 -0.0539
 4203TIP3    H234025   3.172   0.107   2.658 -0.2962 -0.1725 -0.0642
 4204TIP3   OH234026   4.507   4.868  14.537 -0.1597  0.2523  0.2196
 4204TIP3    H134027   4.466   4.883  14.623 -0.6591 -0.2842  0.0767
 4204TIP3    H234028   4.601   4.868  14.556 -0.2795 -0.9829  0.9683
 4205TIP3   OH234029   6.490   3.795   0.245  0.2719 -0.9538 -0.2007
 4205TIP3    H134030   6.419   3.828   0.301  0.3303  0.1665 -0.7649
 4205TIP3    H234031   6.459   3.710   0.216 -0.2644 -1.0579  0.6175
 4206TIP3   OH234032   5.660   5.132   2.776 -0.6770  0.8116  0.3357
 4206TIP3    H134033   5.616   5.058   2.735 -1.7291  0.8088  1.4176
 4206TIP3    H234034   5.600   5.206   2.765 -0.8320  0.8860  1.5369
 4207TIP3   OH234035   4.180   4.116  16.911 -0.1053 -0.2773 -0.2676
 4207TIP3    H134036   4.246   4.051  16.936 -1.1806 -0.4627  2.3747
 4207TIP3    H234037   4.230   4.186  16.868  1.7115 -0.7334  0.9841
 4208TIP3   OH234038   1.585   0.865   3.366 -0.2483  0.0489  0.1459
 4208TIP3    H134039   1.679   0.855   3.352  0.0797  1.9473  0.7174
 4208TIP3    H234040   1.553   0.776   3.379  1.2392 -0.7641 -1.3386
 4209TIP3   OH234041   2.380   6.077   2.821  0.7404 -0.4204 -0.5660
 4209TIP3    H134042   2.357   6.037   2.737 -1.9334  0.9838 -0.5981
 4209TIP3    H234043   2.323   6.035   2.885  1.2479  0.0260  0.2024
 4210TIP3   OH234044   2.346   5.709   5.147  0.4511  0.0908 -0.3427
 4210TIP3    H134045   2.277   5.713   5.213  0.6827  1.1640 -0.1329
 4210TIP3    H234046   2.301   5.693   5.065 -0.3094  2.6086 -0.5096
 4211TIP3   OH234047   3.971   2.381  14.888 -0.6360  0.0563  0.1503
 4211TIP3    H134048   3.897   2.420  14.841 -0.4775  1.1160  0.7317
 4211TIP3    H234049   3.937   2.364  14.976 -0.3493  0.0318  0.2578
 4212TIP3   OH234050   5.030   4.010   4.918 -0.2321 -0.0394  0.4987
 4212TIP3    H134051   5.014   4.080   4.981 -1.8694  0.5778 -0.5208
 4212TIP3    H234052   5.103   4.041   4.864 -1.1487  1.0559 -0.1419
 4213TIP3   OH234053   3.151   5.012  14.147 -0.4550  0.1138  0.0139
 4213TIP3    H134054   3.113   4.927  14.126  0.7690 -0.5698  0.4927
 4213TIP3    H234055   3.191   5.001  14.233  1.6400  0.4976 -0.8421
 4214TIP3   OH234056   2.716   5.694   2.628 -0.1778 -0.3539 -0.5639
 4214TIP3    H134057   2.759   5.617   2.665  0.2915  0.2547  0.1993
 4214TIP3    H234058   2.787   5.759   2.621 -0.9142  0.5992  0.5092
 4215TIP3   OH234059   1.984   3.696  12.287 -0.4531 -0.0843 -0.0491
 4215TIP3    H134060   1.974   3.742  12.370 -0.8978 -0.1087 -0.0914
 4215TIP3    H234061   1.950   3.608  12.304  0.3001 -0.3794  0.0031
 4216TIP3   OH234062   6.070   2.993   4.613  0.1869  0.2135 -0.9049
 4216TIP3    H134063   6.117   2.916   4.646 -0.0431 -0.3553 -1.8782
 4216TIP3    H234064   6.025   2.962   4.534 -1.8083  0.7355 -0.0366
 4217TIP3   OH234065   5.679   3.114   1.011 -0.0041 -0.3737 -0.5119
 4217TIP3    H134066   5.631   3.195   1.030  2.0468  0.7051  0.3886
 4217TIP3    H234067   5.687   3.071   1.096  2.5132  0.6187 -0.1550
 4218TIP3   OH234068   3.651   0.828  15.251 -0.0118 -0.5471  0.3754
 4218TIP3    H134069   3.643   0.734  15.270  0.7094 -0.7437 -0.2280
 4218TIP3    H234070   3.561   0.856  15.231 -0.5008 -0.7138  2.1976
 4219TIP3   OH234071   3.599   0.002  12.317 -0.1275  0.8638 -0.4167
 4219TIP3    H134072   3.597   0.004  12.413 -0.5802 -0.0959 -0.3937
 4219TIP3    H234073   3.549   0.079  12.290  2.5591  2.9294  0.0813
 4220TIP3   OH234074   0.936   6.565   4.924  0.1953  0.2786  0.0520
 4220TIP3    H134075   0.860   6.553   4.981  0.2229  0.7267  0.1873
 4220TIP3    H234076   0.904   6.547   4.836 -0.2373  1.1239  0.0299
 4221TIP3   OH234077   2.218   1.786   1.898  0.5056  0.5056 -0.7383
 4221TIP3    H134078   2.147   1.731   1.934 -0.1107  0.7841 -1.4925
 4221TIP3    H234079   2.298   1.738   1.919  0.0340 -0.2599 -0.6288
 4222TIP3   OH234080   0.828   5.053   4.016 -0.2431 -0.9043 -0.7506
 4222TIP3    H134081   0.754   4.994   3.998 -1.4640  0.4703 -0.4398
 4222TIP3    H234082   0.873   5.013   4.090 -2.0007 -0.6583  0.5118
 4223TIP3   OH234083   5.977   4.711  15.799  0.0303 -0.7246  0.0585
 4223TIP3    H134084   5.938   4.663  15.726  0.5605 -0.2400 -0.5467
 4223TIP3    H234085   6.057   4.663  15.820 -0.4853 -1.2965  0.8318
 4224TIP3   OH234086   2.727   2.477   2.538 -0.2882 -0.5960 -0.4055
 4224TIP3    H134087   2.809   2.520   2.513  0.3321 -0.7201  1.2970
 4224TIP3    H234088   2.659   2.524   2.488  0.6267  0.7063 -0.4819
 4225TIP3   OH234089   0.111   6.361  11.877 -0.1331  0.1693  0.4376
 4225TIP3    H134090   0.103   6.427  11.946 -2.6779 -0.1496  0.5387
 4225TIP3    H234091   0.052   6.290  11.904 -1.1826  0.0028 -1.9837
 4226TIP3   OH234092   3.093   4.622   4.046  0.5822  0.3277 -0.4908
 4226TIP3    H134093   3.185   4.599   4.054  0.4040 -0.2682 -0.0798
 4226TIP3    H234094   3.052   4.585   4.124  0.0744  1.0078 -0.4248
 4227TIP3   OH234095   5.855   4.362  12.835  0.0533  0.3545  0.0371
 4227TIP3    H134096   5.858   4.323  12.747 -0.0847 -0.2631  0.3038
 4227TIP3    H234097   5.763   4.389  12.845 -0.0083  0.1063  0.1309
 4228TIP3   OH234098   5.767   4.370  16.248 -0.6411  0.0942  0.2125
 4228TIP3    H134099   5.729   4.453  16.219  0.2653  0.9888  1.4910
 4228TIP3    H234100   5.785   4.383  16.341 -0.9720 -1.7383  0.5535
 4229TIP3   OH234101   5.528   0.913  11.609  0.1050  0.5437 -0.0221
 4229TIP3    H134102   5.461   0.977  11.631  0.0434  0.0535  1.3431
 4229TIP3    H234103   5.481   0.843  11.564 -0.2593  0.3733  0.6023
 4230TIP3   OH234104   4.982   4.308   1.966 -0.6409  0.1222 -0.2962
 4230TIP3    H134105   5.037   4.347   2.034 -0.0703 -1.0513 -0.0614
 4230TIP3    H234106   4.982   4.373   1.895 -0.7469  1.0898  0.5675
 4231TIP3   OH234107   4.772   5.562   4.595 -0.1499 -0.3104 -0.2818
 4231TIP3    H134108   4.782   5.594   4.685 -2.3905  1.2932 -0.5005
 4231TIP3    H234109   4.773   5.642   4.541  0.2761 -1.1682 -1.5969
 4232TIP3   OH234110   5.688   2.531   1.492 -0.6706 -0.2783 -0.3034
 4232TIP3    H134111   5.747   2.580   1.435 -1.0629  0.5362 -0.0293
 4232TIP3    H234112   5.708   2.439   1.476  0.3713 -0.0146 -0.5251
 4233TIP3   OH234113   1.810   1.800   3.578  0.0958  0.1307  0.0759
 4233TIP3    H134114   1.791   1.834   3.491  1.5994  1.6417  0.2977
 4233TIP3    H234115   1.902   1.776   3.576 -0.3868 -1.9754  0.6087
 4234TIP3   OH234116   6.545   0.213  15.639 -0.1013 -0.0640 -0.6656
 4234TIP3    H134117   6.555   0.175  15.552  1.2977 -0.7958 -0.2136
 4234TIP3    H234118   6.631   0.251  15.659  0.7955 -2.9322  1.7459
 4235TIP3   OH234119   0.739   6.694   2.280 -0.2985 -0.2170 -0.6982
 4235TIP3    H134120   0.661   6.639   2.280 -1.4256  1.3252 -0.4803
 4235TIP3    H234121   0.809   6.637   2.313 -1.3933 -1.5352 -0.5936
 4236TIP3   OH234122   0.207   3.988   1.451  0.0741 -0.1013  0.1458
 4236TIP3    H134123   0.152   4.065   1.437  0.3391  0.1127  0.2685
 4236TIP3    H234124   0.263   4.011   1.525  0.0127 -0.4919  0.3199
 4237TIP3   OH234125   4.773   6.104   2.182  0.3554  0.3140  0.1832
 4237TIP3    H134126   4.745   6.181   2.133  0.4703  0.7014  0.7169
 4237TIP3    H234127   4.692   6.059   2.205  0.3342 -0.3310 -1.0797
 4238TIP3   OH234128   3.941   6.705   2.189 -0.5086 -0.0217  0.0463
 4238TIP3    H134129   3.865   6.762   2.202 -1.1172 -1.1049  1.5676
 4238TIP3    H234130   3.938   6.645   2.263  2.4120  0.5046  0.7123
 4239TIP3   OH234131   4.532   2.215   5.612 -0.1937  0.1257 -0.1989
 4239TIP3    H134132   4.461   2.174   5.562 -2.8060 -0.6204  3.6486
 4239TIP3    H234133   4.560   2.147   5.674  0.7334  1.8192  1.3537
 4240TIP3   OH234134   2.289   5.126  14.356 -0.0731 -0.1621  0.5557
 4240TIP3    H134135   2.302   5.146  14.448 -0.9484  0.5711  0.5347
 4240TIP3    H234136   2.223   5.188  14.327  0.7238  0.1155 -0.7519
 4241TIP3   OH234137   4.484   6.314   3.577 -0.4401 -0.2599 -0.6202
 4241TIP3    H134138   4.552   6.315   3.645 -0.4259  2.5154 -0.5493
 4241TIP3    H234139   4.532   6.315   3.495 -0.4431 -1.3191 -0.6443
 4242TIP3   OH234140   2.014   4.717  15.191 -0.1540  0.1473  0.5224
 4242TIP3    H134141   2.018   4.662  15.269  2.2500  0.3143  0.5935
 4242TIP3    H234142   1.978   4.800  15.222 -3.0754 -1.0492  0.5648
 4243TIP3   OH234143   2.172   6.601   5.443  0.2333  0.8018  0.3720
 4243TIP3    H134144   2.201   6.539   5.376 -0.0884  0.4154  0.5852
 4243TIP3    H234145   2.251   6.650   5.466  1.2851 -1.6465  2.4743
 4244TIP3   OH234146   3.127   1.148  17.081  0.2436  0.3382  0.4371
 4244TIP3    H134147   3.146   1.112  16.994 -0.4928  0.4005  0.2440
 4244TIP3    H234148   3.207   1.197  17.104  0.1530  1.0095 -0.5629
 4245TIP3   OH234149   4.468   2.196   0.765  0.4066 -0.0367 -0.6738
 4245TIP3    H134150   4.506   2.283   0.753  2.2319 -0.6325  0.3088
 4245TIP3    H234151   4.385   2.200   0.720 -0.0710  2.5625  0.2187
 4246TIP3   OH234152   2.174   2.546   4.170 -0.6856  0.3667  0.2699
 4246TIP3    H134153   2.106   2.589   4.118 -0.7105 -1.0390 -0.9406
 4246TIP3    H234154   2.245   2.529   4.108 -0.3318 -0.5249  0.8958
 4247TIP3   OH234155   4.946   3.781   4.195 -0.7560 -0.2830  0.0627
 4247TIP3    H134156   4.950   3.863   4.244 -1.4254  0.1503 -0.5975
 4247TIP3    H234157   4.999   3.720   4.247 -0.4575  0.4911  0.6877
 4248TIP3   OH234158   2.426   0.172   3.787  0.1207  0.2976 -0.1779
 4248TIP3    H134159   2.425   0.266   3.771 -0.1009  0.2910 -0.2082
 4248TIP3    H234160   2.363   0.159   3.858  1.6536  0.4255  1.2756
 4249TIP3   OH234161   2.558   6.628  11.541 -0.0037  0.2595 -0.4286
 4249TIP3    H134162   2.604   6.701  11.499 -1.9821  0.7529 -1.9501
 4249TIP3    H234163   2.532   6.572  11.468 -1.6601 -0.0421  0.3461
 4250TIP3   OH234164   1.938   3.257   0.167  0.0314  0.1840  0.0520
 4250TIP3    H134165   1.978   3.179   0.207 -1.5912 -1.2279 -0.9328
 4250TIP3    H234166   1.883   3.294   0.237 -0.8575 -0.8347 -0.0816
 4251TIP3   OH234167   5.933   3.528  11.550 -0.3698  0.0649  0.5049
 4251TIP3    H134168   6.008   3.471  11.535  0.0967  0.4297  1.3691
 4251TIP3    H234169   5.880   3.520  11.471 -0.9496 -2.4970  1.0638
 4252TIP3   OH234170   2.828   2.377   4.271  0.6099  0.4638  0.5216
 4252TIP3    H134171   2.853   2.285   4.264  0.2954  0.3171  1.1863
 4252TIP3    H234172   2.902   2.419   4.316  0.5070  0.4148  0.7406
 4253TIP3   OH234173   2.924   0.615   1.021 -0.2202 -0.2540 -0.7248
 4253TIP3    H134174   2.964   0.655   1.098  0.9875  3.4830 -2.9758
 4253TIP3    H234175   2.830   0.615   1.041 -0.2002  2.8488  0.0305
 4254TIP3   OH234176   0.464   4.674   0.363  0.2320 -0.5362  0.2012
 4254TIP3    H134177   0.489   4.682   0.455  1.7893  0.2431 -0.2599
 4254TIP3    H234178   0.445   4.581   0.352  1.8588 -0.9779  0.8834
 4255TIP3   OH234179   0.237   5.186  16.783 -0.1224 -0.0776  0.1072
 4255TIP3    H134180   0.283   5.129  16.845  0.6041  0.5156  0.1312
 4255TIP3    H234181   0.213   5.130  16.710  0.7316 -0.3846  0.0554
 4256TIP3   OH234182   4.660   6.400  12.800  0.2604  0.5718 -0.2909
 4256TIP3    H134183   4.690   6.317  12.762  1.1888  1.3696 -1.3706
 4256TIP3    H234184   4.601   6.436  12.735 -0.8632  0.3553  0.5817
 4257TIP3   OH234185   3.756   4.554   0.173 -0.1114  0.6453 -0.5021
 4257TIP3    H134186   3.662   4.547   0.194 -0.2411 -0.0601 -1.2401
 4257TIP3    H234187   3.758   4.595   0.087  0.1255 -1.2865 -1.4718
 4258TIP3   OH234188   0.945   3.831  17.173 -0.2979  0.4304  0.0922
 4258TIP3    H134189   0.860   3.799  17.202 -0.1800  0.7591  0.8182
 4258TIP3    H234190   0.960   3.909  17.226  1.7113 -1.1300  1.9770
 4259TIP3   OH234191   0.788   5.638  12.146  0.4101  0.1296  0.7964
 4259TIP3    H134192   0.873   5.641  12.189  0.3368 -2.6823  1.3131
 4259TIP3    H234193   0.809   5.642  12.052  1.1658 -0.8446  0.9048
 4260TIP3   OH234194   6.171   2.726  15.447  0.4755 -0.5767  0.2905
 4260TIP3    H134195   6.218   2.670  15.509  0.7175  0.0592  0.6912
 4260TIP3    H234196   6.079   2.701  15.457  0.6868 -1.7638 -0.4335
 4261TIP3   OH234197   3.513   4.495  11.382  0.4297 -0.6086 -0.2475
 4261TIP3    H134198   3.456   4.466  11.310  0.2993  0.9849 -0.8252
 4261TIP3    H234199   3.470   4.460  11.460  0.0822 -1.6150 -0.8558
 4262TIP3   OH234200   1.103   2.833   3.594  0.3057  0.4269  0.8655
 4262TIP3    H134201   1.188   2.813   3.556 -0.0066  0.3894  0.1648
 4262TIP3    H234202   1.121   2.854   3.686  1.0367  0.2139  0.7707
 4263TIP3   OH234203   3.914   0.981  13.001  0.5987  0.0574 -0.9228
 4263TIP3    H134204   3.977   1.032  12.950 -1.7327  3.1057 -1.0351
 4263TIP3    H234205   3.898   1.034  13.079  0.9450 -2.4847  1.0080
 4264TIP3   OH234206   1.449   1.942   5.423 -0.3772  0.1670 -0.1460
 4264TIP3    H134207   1.451   1.886   5.501  2.0814  1.3334  0.7260
 4264TIP3    H234208   1.456   2.031   5.458 -1.6505  0.8806 -1.6174
 4265TIP3   OH234209   0.392   3.795  13.643 -0.8206 -0.1209  0.8488
 4265TIP3    H134210   0.456   3.842  13.696 -1.9480  1.3483  0.9664
 4265TIP3    H234211   0.443   3.725  13.601  0.9425  1.1751  0.6859
 4266TIP3   OH234212   1.159   5.912   3.318  0.4472 -0.3452 -0.2316
 4266TIP3    H134213   1.230   5.849   3.330 -0.3552 -0.9244  1.8288
 4266TIP3    H234214   1.080   5.863   3.338 -0.5025  0.4851 -1.7856
 4267TIP3   OH234215   6.571   3.054   4.503 -0.0349 -0.0896  0.1755
 4267TIP3    H134216   6.550   2.964   4.527 -1.6559  0.2288  0.0182
 4267TIP3    H234217   6.667   3.058   4.505  0.1307 -2.1663 -1.0582
 4268TIP3   OH234218   5.149   4.372   1.142 -0.1825 -0.4360 -0.3387
 4268TIP3    H134219   5.237   4.352   1.172  1.3107  0.9797 -3.3143
 4268TIP3    H234220   5.103   4.402   1.220  2.2948 -0.1772  1.1248
 4269TIP3   OH234221   0.379   5.940  12.606  0.1324 -0.0016 -0.2159
 4269TIP3    H134222   0.321   5.887  12.660 -2.3367  1.7075 -1.0292
 4269TIP3    H234223   0.461   5.890  12.603 -1.2030 -2.4731  1.0940
 4270TIP3   OH234224   1.977   3.855  11.165 -0.6555  0.1587  0.2381
 4270TIP3    H134225   1.950   3.800  11.092  0.3824  0.8801 -0.7106
 4270TIP3    H234226   2.068   3.832  11.181 -0.6156  0.6226  0.7302
 4271TIP3   OH234227   4.544   5.502   2.359 -0.0454  0.6170 -0.4403
 4271TIP3    H134228   4.618   5.456   2.318  1.2764  1.3032  1.0768
 4271TIP3    H234229   4.491   5.532   2.285  0.6293 -0.7754 -1.5467
 4272TIP3   OH234230   3.704   4.639  16.540 -0.1090 -0.1844  0.2280
 4272TIP3    H134231   3.609   4.639  16.531 -0.3697  0.4046  2.4375
 4272TIP3    H234232   3.730   4.549  16.522 -0.9238 -0.0946 -1.5556
 4273TIP3   OH234233   4.242   3.597  13.908  0.0496 -0.2222  0.0233
 4273TIP3    H134234   4.232   3.689  13.883  0.4908  0.1650  1.2009
 4273TIP3    H234235   4.154   3.561  13.902 -0.4613  0.7496  1.2607
 4274TIP3   OH234236   3.973   4.082   3.575 -0.5083  0.2237  0.0970
 4274TIP3    H134237   3.898   4.129   3.538 -0.6505  0.2542  0.4139
 4274TIP3    H234238   3.994   4.132   3.655 -1.1475 -0.6761  0.8525
 4275TIP3   OH234239   1.509   6.724  16.647 -0.0229  0.2052 -0.6955
 4275TIP3    H134240   1.511   6.667  16.569 -0.8209 -0.9088  0.0584
 4275TIP3    H234241   1.487   6.811  16.612  1.0623  0.0471 -1.8631
 4276TIP3   OH234242   6.601   3.997  17.065  0.2516 -0.0420  0.4029
 4276TIP3    H134243   6.508   3.978  17.079  0.3166 -0.5554  0.1796
 4276TIP3    H234244   6.646   3.933  17.121  0.5092 -1.7117 -1.5900
 4277TIP3   OH234245   2.921   4.705   2.655 -0.4919  0.3102 -0.1074
 4277TIP3    H134246   2.970   4.742   2.581 -0.0009  1.3126  0.6942
 4277TIP3    H234247   2.830   4.704   2.625 -0.3035  0.7301 -0.7251
 4278TIP3   OH234248   5.046   5.970  12.179  0.0240  0.9285 -0.4142
 4278TIP3    H134249   5.080   5.882  12.163 -0.1336  0.6550  0.6385
 4278TIP3    H234250   5.005   5.996  12.097 -0.4468 -0.2215 -0.5641
 4279TIP3   OH234251   5.266   1.528  13.721  0.5760  0.2687  0.5471
 4279TIP3    H134252   5.346   1.554  13.675  0.0508 -0.1845 -0.6885
 4279TIP3    H234253   5.280   1.436  13.744  0.1986  0.0105 -0.2065
 4280TIP3   OH234254   1.183   4.836   5.184 -0.0170 -0.2707 -0.6032
 4280TIP3    H134255   1.160   4.917   5.229  0.9701  0.2385 -0.9661
 4280TIP3    H234256   1.134   4.768   5.230  1.2241  0.1582  1.5301
 4281TIP3   OH234257   1.817   0.259   4.890 -0.6694  0.3267  0.1380
 4281TIP3    H134258   1.733   0.300   4.906 -0.9645  0.1008 -0.7432
 4281TIP3    H234259   1.831   0.202   4.965 -2.4644 -1.4837 -0.7933
 4282TIP3   OH234260   4.542   5.163  14.116 -0.2658  0.0891 -0.0656
 4282TIP3    H134261   4.509   5.098  14.177  1.2497  1.2149  2.0722
 4282TIP3    H234262   4.465   5.215  14.092 -1.0647 -1.0210  0.0182
 4283TIP3   OH234263   1.062   3.191   2.972 -0.2626  0.1394  0.0497
 4283TIP3    H134264   1.109   3.203   3.054  2.1501  2.4297 -1.5061
 4283TIP3    H234265   1.092   3.106   2.939  0.7509  0.3643  0.3584
 4284TIP3   OH234266   1.788   4.997   1.744 -0.3932 -0.1718  0.4364
 4284TIP3    H134267   1.748   5.069   1.695  2.0067  1.5907  0.8892
 4284TIP3    H234268   1.763   5.012   1.835  1.4159  1.1177  0.7660
 4285TIP3   OH234269   0.250   1.663  15.097 -0.2110 -0.0768 -0.1561
 4285TIP3    H134270   0.159   1.648  15.073  0.3998 -1.3100 -1.9208
 4285TIP3    H234271   0.266   1.755  15.079 -0.7810 -0.1494 -1.0914
 4286TIP3   OH234272   4.718   0.045   2.127  0.2081  0.5641  0.0294
 4286TIP3    H134273   4.736  -0.012   2.053 -0.8499 -0.2871  0.4011
 4286TIP3    H234274   4.693   0.128   2.087  3.0459  1.2722 -0.5104
 4287TIP3   OH234275   1.218   5.944  11.865 -0.0956 -0.1023 -0.3663
 4287TIP3    H134276   1.183   5.856  11.850 -2.9422  1.3503 -3.8125
 4287TIP3    H234277   1.268   5.963  11.785  1.0643  1.2073  0.6250
 4288TIP3   OH234278   4.012   3.295   4.732  0.2187 -0.0899 -1.2017
 4288TIP3    H134279   4.061   3.234   4.677 -1.9240 -3.3204  0.1421
 4288TIP3    H234280   4.054   3.290   4.817  0.7139  1.2862 -1.3379
 4289TIP3   OH234281   0.565   4.105  16.147  0.4773  0.7102  0.4310
 4289TIP3    H134282   0.556   4.173  16.080  1.5817  0.7297  0.2941
 4289TIP3    H234283   0.641   4.131  16.199  0.4225  0.0107  0.8859
 4290TIP3   OH234284   0.613   5.821  15.819  0.3122 -0.0593 -0.1682
 4290TIP3    H134285   0.530   5.866  15.832  0.2070  0.0824 -1.2552
 4290TIP3    H234286   0.593   5.728  15.830 -0.0807 -0.0575 -0.8407
 4291TIP3   OH234287   2.215   1.166  15.915  0.3539 -0.0832  0.6183
 4291TIP3    H134288   2.281   1.168  15.846  0.7591 -0.8142  0.9732
 4291TIP3    H234289   2.264   1.149  15.995 -0.2908 -1.0641  0.8251
 4292TIP3   OH234290   1.455   3.653  13.335 -0.0724  0.1307 -0.1487
 4292TIP3    H134291   1.370   3.663  13.378  0.0200  1.8242 -0.2624
 4292TIP3    H234292   1.517   3.692  13.397  0.2879  1.0386 -1.0534
 4293TIP3   OH234293   3.384   0.962   2.450 -0.1264  0.1870 -0.2968
 4293TIP3    H134294   3.439   0.888   2.475 -1.7136 -1.0846 -0.3962
 4293TIP3    H234295   3.379   0.958   2.355  1.3475  1.6416 -0.4819
 4294TIP3   OH234296   0.110   4.587  13.210  0.4404 -0.1426 -0.1166
 4294TIP3    H134297   0.070   4.573  13.296  0.0704  0.4816 -0.1836
 4294TIP3    H234298   0.146   4.501  13.186 -1.8503 -1.0407 -0.5680
 4295TIP3   OH234299   2.949   0.261   1.235 -0.2370 -0.3405  0.0483
 4295TIP3    H134300   2.961   0.271   1.330  0.8574 -2.6615  0.2295
 4295TIP3    H234301   2.855   0.249   1.224 -0.4533  0.6007  0.7477
 4296TIP3   OH234302   3.111   6.391  12.372  0.1979  0.4013 -0.2160
 4296TIP3    H134303   3.044   6.331  12.341 -0.0454  1.1514 -1.2083
 4296TIP3    H234304   3.118   6.374  12.466 -1.0255 -0.0293 -0.1922
 4297TIP3   OH234305   1.660   3.954   2.701  0.1264 -0.3439  0.2065
 4297TIP3    H134306   1.674   3.920   2.613 -0.1636  0.3739 -0.1210
 4297TIP3    H234307   1.608   4.033   2.689  1.5971  0.7886  0.8625
 4298TIP3   OH234308   0.222   2.145   0.719 -0.4547  0.4608  0.9902
 4298TIP3    H134309   0.137   2.179   0.744 -1.2488 -0.3535 -0.4681
 4298TIP3    H234310   0.259   2.211   0.660 -0.4436  0.4365  0.9695
 4299TIP3   OH234311   4.673   5.572   6.143 -0.1464  0.2147  0.2399
 4299TIP3    H134312   4.604   5.615   6.192  0.5002  1.0335  0.4406
 4299TIP3    H234313   4.711   5.509   6.204  2.1439  2.7431  1.6542
 4300TIP3   OH234314   2.215   3.661  14.862 -0.5966  0.6442 -0.6469
 4300TIP3    H134315   2.176   3.702  14.785 -1.3417  0.3647 -0.4290
 4300TIP3    H234316   2.207   3.727  14.931 -1.4623  0.2965 -0.3910
 4301TIP3   OH234317   2.096   2.339   0.136 -0.2193 -0.0441 -0.4356
 4301TIP3    H134318   2.145   2.364   0.214 -0.9203 -3.8123  1.4835
 4301TIP3    H234319   2.156   2.284   0.086 -0.9341 -0.6916 -0.6005
 4302TIP3   OH234320   1.369   2.582  15.529  0.0822  0.0143  0.3157
 4302TIP3    H134321   1.403   2.634  15.601  0.2647 -0.6711  0.7377
 4302TIP3    H234322   1.430   2.509  15.521 -0.4849 -0.4523  0.1237
 4303TIP3   OH234323   0.294   0.928  16.418 -0.5246  0.0649  0.1830
 4303TIP3    H134324   0.243   1.007  16.434 -2.2228 -0.7881 -0.7044
 4303TIP3    H234325   0.228   0.861  16.397  0.8853 -1.4582  0.4080
 4304TIP3   OH234326   0.302   6.768  10.793  0.3789 -0.0603  0.0723
 4304TIP3    H134327   0.350   6.844  10.760  1.5481 -0.9441 -0.3162
 4304TIP3    H234328   0.364   6.724  10.851  0.0630 -1.2703 -0.4921
 4305TIP3   OH234329   1.434   2.604   1.341 -0.2681  0.3211 -0.4795
 4305TIP3    H134330   1.472   2.523   1.375  0.3995  0.4035 -1.0198
 4305TIP3    H234331   1.477   2.674   1.390 -2.0100  0.3231  1.1546
 4306TIP3   OH234332   6.141   6.233   1.187  0.2766 -0.7467  0.3875
 4306TIP3    H134333   6.054   6.270   1.202 -0.1383 -1.0918 -1.0483
 4306TIP3    H234334   6.166   6.264   1.100  1.6600 -0.5522  0.8227
 4307TIP3   OH234335   6.119   4.876   1.218  0.6204  0.3247  0.1608
 4307TIP3    H134336   6.166   4.934   1.158  1.0801 -0.2116 -0.0074
 4307TIP3    H234337   6.130   4.789   1.181  0.0690  0.1082  0.4968
 4308TIP3   OH234338   1.415   1.078  11.258  0.2967 -0.3012  0.3439
 4308TIP3    H134339   1.398   1.002  11.313  5.0902 -0.4685  2.1150
 4308TIP3    H234340   1.434   1.042  11.171 -1.8647 -0.5682 -0.0630
 4309TIP3   OH234341   2.264   1.804  12.346  0.0144 -0.5871  0.3962
 4309TIP3    H134342   2.299   1.797  12.257 -0.5951  2.3323 -0.1616
 4309TIP3    H234343   2.313   1.875  12.386 -0.4655 -1.1402  2.0549
 4310TIP3   OH234344   4.933   1.947   2.274  0.4693 -0.1036 -0.2930
 4310TIP3    H134345   5.019   1.918   2.305 -0.3419 -2.2328  0.1869
 4310TIP3    H234346   4.952   2.012   2.207  2.4104  0.6396  0.8981
 4311TIP3   OH234347   4.300   3.221  13.984  0.3974 -0.1532  0.3465
 4311TIP3    H134348   4.361   3.186  14.049 -0.1374 -0.7521  0.5368
 4311TIP3    H234349   4.215   3.219  14.028  0.1655  0.2305 -0.0791
 4312TIP3   OH234350   3.336   6.144   2.427 -0.2922  0.0824  0.2358
 4312TIP3    H134351   3.396   6.173   2.496 -0.2912 -2.4266  1.3770
 4312TIP3    H234352   3.302   6.226   2.390  1.9362  1.5658  1.1842
 4313TIP3   OH234353   4.688   0.262   2.386  0.1131 -0.3284  0.5468
 4313TIP3    H134354   4.693   0.166   2.388 -0.7770 -0.3711  1.0532
 4313TIP3    H234355   4.721   0.286   2.300 -2.7562 -1.3078 -0.9534
 4314TIP3   OH234356   4.888   3.975  12.470  0.2401 -0.3059  0.4295
 4314TIP3    H134357   4.912   4.002  12.558  0.4002 -1.1181  0.6436
 4314TIP3    H234358   4.959   4.007  12.415  1.9533 -2.7952  1.0725
 4315TIP3   OH234359   1.270   1.243   4.959  0.2217 -0.1731  0.4065
 4315TIP3    H134360   1.222   1.166   4.992 -0.1469 -0.5717 -0.9598
 4315TIP3    H234361   1.208   1.315   4.969 -1.1409 -0.8409 -2.1806
 4316TIP3   OH234362   0.606   2.501   5.926 -0.1346 -0.1961  0.7603
 4316TIP3    H134363   0.624   2.409   5.942  2.4611  0.1526  0.1787
 4316TIP3    H234364   0.579   2.535   6.012  0.9245 -1.0589  1.4661
 4317TIP3   OH234365   3.264   3.137  16.248  1.0357  0.1681 -0.1714
 4317TIP3    H134366   3.187   3.106  16.200 -0.5901  1.8186  1.2407
 4317TIP3    H234367   3.282   3.224  16.212  0.8380  0.7167  1.0064
 4318TIP3   OH234368   3.334   5.542   5.321  0.1897  0.3080 -0.0236
 4318TIP3    H134369   3.343   5.593   5.402  1.8724  0.4220 -0.2533
 4318TIP3    H234370   3.336   5.607   5.251 -2.2004  0.3039 -0.1876
 4319TIP3   OH234371   2.825   2.314  14.842 -0.2391  0.3871  0.2011
 4319TIP3    H134372   2.745   2.319  14.790 -1.6980  0.5172  2.3320
 4319TIP3    H234373   2.856   2.224  14.831 -1.7367 -0.2320  0.7477
 4320TIP3   OH234374   4.790   1.468   2.382 -0.6132  0.2797 -0.2939
 4320TIP3    H134375   4.832   1.536   2.329 -0.8827 -0.4758 -1.4978
 4320TIP3    H234376   4.757   1.404   2.319 -0.3159 -1.0104  0.8059
 4321TIP3   OH234377   3.118   3.809   3.734 -0.4123  0.1175 -0.1125
 4321TIP3    H134378   3.178   3.806   3.659 -1.1306  1.5301 -0.7863
 4321TIP3    H234379   3.054   3.740   3.715  0.0366 -0.2748 -0.2326
 4322TIP3   OH234380   6.036   4.409  16.752  0.1658  0.2920  0.2168
 4322TIP3    H134381   6.131   4.397  16.753  0.4196  2.0631  0.1068
 4322TIP3    H234382   6.014   4.428  16.661 -0.4897 -1.2391  0.0167
 4323TIP3   OH234383   2.819   6.432  12.670  0.0660  0.2126 -0.4101
 4323TIP3    H134384   2.738   6.471  12.702 -0.8541  1.0915 -3.4222
 4323TIP3    H234385   2.790   6.372  12.601  1.9095 -0.3726 -0.7237
 4324TIP3   OH234386   6.247   1.358  13.024 -0.3386  0.5864 -0.2541
 4324TIP3    H134387   6.167   1.381  13.071 -0.1199  2.4301 -0.7012
 4324TIP3    H234388   6.218   1.295  12.957 -1.1767  0.2741  0.3879
 4325TIP3   OH234389   3.165   5.696   4.094  0.4788 -0.2306 -0.2380
 4325TIP3    H134390   3.163   5.629   4.025  0.3894 -1.2595  0.7439
 4325TIP3    H234391   3.256   5.695   4.124  0.0548 -1.2792  1.0739
 4326TIP3   OH234392   1.678   3.058   3.749 -0.1125 -0.3679 -0.2117
 4326TIP3    H134393   1.587   3.028   3.755  0.0646 -0.7586  0.9408
 4326TIP3    H234394   1.729   2.984   3.784  0.8213 -0.9010 -2.5339
 4327TIP3   OH234395   2.524   2.733  10.424  0.0998 -0.1992  0.0211
 4327TIP3    H134396   2.545   2.698  10.338 -0.2691  0.8562 -0.5166
 4327TIP3    H234397   2.503   2.656  10.477  1.0708 -0.9169 -0.6127
 4328TIP3   OH234398   4.080   0.745   1.764  0.2220  0.0628 -0.3891
 4328TIP3    H134399   4.091   0.837   1.741  0.3355 -0.0638 -0.8546
 4328TIP3    H234400   3.986   0.735   1.779 -0.2402 -0.3311 -3.0092
 4329TIP3   OH234401   5.204   1.905  11.344  1.0015 -0.2255 -0.1199
 4329TIP3    H134402   5.137   1.973  11.336  0.0439 -1.2074 -0.8635
 4329TIP3    H234403   5.244   1.901  11.257  0.3468 -1.2884 -0.3893
 4330TIP3   OH234404   2.751   0.857   4.119 -0.2465  0.2678  0.0568
 4330TIP3    H134405   2.682   0.922   4.134 -0.8684 -0.2605 -0.4733
 4330TIP3    H234406   2.823   0.884   4.177 -1.8976 -0.7147  2.7753
 4331TIP3   OH234407   0.562   0.586  13.453 -0.2159 -0.4671  0.1567
 4331TIP3    H134408   0.590   0.621  13.538  0.4185  0.4709 -0.4219
 4331TIP3    H234409   0.643   0.557  13.411 -0.3987 -0.0701 -0.4922
 4332TIP3   OH234410   1.333   2.252  11.736 -0.2864 -0.4716 -0.1825
 4332TIP3    H134411   1.254   2.289  11.776 -0.0478 -0.0081 -0.1362
 4332TIP3    H234412   1.358   2.316  11.670 -0.8689 -1.3799 -1.3307
 4333TIP3   OH234413   6.168   5.616  13.246 -0.5100  0.6606  0.3006
 4333TIP3    H134414   6.205   5.701  13.266 -1.0726  1.1817 -0.7869
 4333TIP3    H234415   6.222   5.582  13.174  0.4453 -0.4426  1.4785
 4334TIP3   OH234416   6.430   1.950   1.815 -0.2600  0.0717  0.2515
 4334TIP3    H134417   6.371   1.970   1.887  0.8468  0.6853  1.0002
 4334TIP3    H234418   6.482   1.877   1.846  1.9108  1.8640  1.1185
 4335TIP3   OH234419   3.396   3.783  13.513  0.2605  0.0337  0.2946
 4335TIP3    H134420   3.452   3.706  13.503 -1.5603 -1.5494  1.5387
 4335TIP3    H234421   3.355   3.771  13.599 -0.8838  1.8683  0.0462
 4336TIP3   OH234422   1.296   5.638   4.852 -0.2093  0.4200  0.0228
 4336TIP3    H134423   1.266   5.602   4.935 -2.0022 -0.6851 -1.0182
 4336TIP3    H234424   1.378   5.593   4.834  0.0878  0.5189  1.0893
 4337TIP3   OH234425   2.944   1.136   4.330  0.7860  0.7917  0.0017
 4337TIP3    H134426   2.981   1.158   4.415  0.0671  3.3911 -0.2753
 4337TIP3    H234427   3.011   1.161   4.267  0.9425 -0.2290 -0.2499
 4338TIP3   OH234428   6.054   0.117  11.226  0.3522 -0.3219 -0.0340
 4338TIP3    H134429   5.970   0.072  11.239 -0.5416  1.5901  1.3530
 4338TIP3    H234430   6.048   0.154  11.138 -0.3158 -0.1049  0.0961
 4339TIP3   OH234431   2.157   6.543  12.494 -0.3058 -0.4433 -0.0634
 4339TIP3    H134432   2.190   6.618  12.444 -0.7039 -0.3884 -0.2489
 4339TIP3    H234433   2.063   6.545  12.479 -0.5448  0.0737  1.3767
 4340TIP3   OH234434   1.680   4.619  15.040 -0.1093  0.1552 -0.2656
 4340TIP3    H134435   1.730   4.582  14.967  0.2679 -0.6115  0.3576
 4340TIP3    H234436   1.648   4.542  15.088  1.6969  0.5511  1.7624
 4341TIP3   OH234437   1.866   5.083   4.512 -0.2391  0.4041 -0.0370
 4341TIP3    H134438   1.887   4.991   4.531  0.8673  0.7402  0.4863
 4341TIP3    H234439   1.875   5.091   4.417  1.1620  0.3089  0.0711
 4342TIP3   OH234440   0.768   3.412   1.849  0.3324 -0.4317 -0.0286
 4342TIP3    H134441   0.675   3.433   1.856  0.5997  0.5066  0.9943
 4342TIP3    H234442   0.802   3.474   1.784  0.2584 -0.7670 -0.3940
 4343TIP3   OH234443   1.196   1.590  14.081  0.0806  0.0102 -0.1418
 4343TIP3    H134444   1.265   1.528  14.105  0.9927  1.6255  1.7136
 4343TIP3    H234445   1.127   1.575  14.145  0.7334  1.4975  0.9866
 4344TIP3   OH234446   6.308   0.252   2.149  0.4586  0.0849  0.0386
 4344TIP3    H134447   6.394   0.210   2.149  1.0630  1.2735 -0.6813
 4344TIP3    H234448   6.324   0.339   2.184 -1.0585 -0.7376  3.0577
 4345TIP3   OH234449   0.546   2.810   2.873  0.4426 -0.2251  0.7276
 4345TIP3    H134450   0.526   2.825   2.966 -1.5266  0.9665  0.1753
 4345TIP3    H234451   0.625   2.862   2.857  0.8774 -0.5425  1.7520
 4346TIP3   OH234452   4.496   0.200  12.998 -0.0612  0.0327 -0.1554
 4346TIP3    H134453   4.456   0.120  13.033 -0.2509 -0.1327 -0.7370
 4346TIP3    H234454   4.565   0.169  12.940 -0.0066  0.2957 -0.2335
 4347TIP3   OH234455   5.271   4.622  15.356 -0.4214 -0.4156 -0.2373
 4347TIP3    H134456   5.305   4.641  15.444 -0.9002 -0.2368 -0.0855
 4347TIP3    H234457   5.307   4.691  15.301 -0.1725 -0.4907 -0.1712
 4348TIP3   OH234458   1.562   0.468  11.936 -0.1427 -0.3172  0.6477
 4348TIP3    H134459   1.509   0.531  11.985 -2.8266 -0.6384 -1.5667
 4348TIP3    H234460   1.630   0.520  11.894  1.4120  0.1379  3.4534
 4349TIP3   OH234461   6.017   2.916  11.359 -0.0269  0.5096 -0.6060
 4349TIP3    H134462   5.992   2.927  11.451 -0.6242  3.5809 -1.0232
 4349TIP3    H234463   5.936   2.890  11.316  0.3060 -1.1649 -0.2734
 4350TIP3   OH234464   6.119   2.977  15.573  0.0007 -0.0341 -0.5779
 4350TIP3    H134465   6.125   2.895  15.524 -0.8974  0.4586 -1.5676
 4350TIP3    H234466   6.026   2.987  15.593  0.2892  0.0145  0.8603
 4351TIP3   OH234467   1.322   3.723  13.002  0.6236  0.3051  1.1614
 4351TIP3    H134468   1.353   3.810  12.976  0.0485 -0.2446 -1.6840
 4351TIP3    H234469   1.241   3.740  13.049  0.6144  1.3406  0.8029
 4352TIP3   OH234470   5.681   2.491   3.964  0.6823 -0.1878  0.1869
 4352TIP3    H134471   5.708   2.536   3.885  0.0361 -0.1745 -0.0330
 4352TIP3    H234472   5.626   2.419   3.933 -0.4720  0.4653  0.6678
 4353TIP3   OH234473   3.888   0.612   4.291 -0.2660  0.0316 -0.2904
 4353TIP3    H134474   3.949   0.540   4.271  0.3888  0.8084 -1.2232
 4353TIP3    H234475   3.944   0.681   4.326 -0.6182  0.7161 -1.0423
 4354TIP3   OH234476   4.968   6.735  10.709  0.4145 -0.3365 -0.4345
 4354TIP3    H134477   4.887   6.688  10.692 -0.7727  1.2372  0.5611
 4354TIP3    H234478   5.035   6.686  10.661 -1.2806 -1.0616 -2.1971
 4355TIP3   OH234479   5.441   3.089   2.174  0.1961 -0.6920 -0.0120
 4355TIP3    H134480   5.408   3.008   2.212  1.1434 -0.5832  1.0825
 4355TIP3    H234481   5.394   3.158   2.219  1.3831 -0.5603  1.1028
 4356TIP3   OH234482   6.582   2.710   3.217  0.3054  0.0797  0.7197
 4356TIP3    H134483   6.491   2.738   3.218 -0.0311 -0.9149 -0.1107
 4356TIP3    H234484   6.632   2.790   3.202 -0.3476  0.7786  2.0744
 4357TIP3   OH234485   0.313   6.190   3.347 -0.1404 -0.5215  0.0478
 4357TIP3    H134486   0.379   6.258   3.333 -0.5493  0.2552  1.6520
 4357TIP3    H234487   0.308   6.181   3.442 -1.6926 -1.2182 -0.0796
 4358TIP3   OH234488   4.771   6.029  15.066 -0.1969 -0.0019  0.3433
 4358TIP3    H134489   4.834   6.071  15.008 -0.5281 -0.7963 -0.6094
 4358TIP3    H234490   4.687   6.039  15.023 -0.3456 -1.2622  0.2934
 4359TIP3   OH234491   3.596   6.618   2.284 -0.0294 -0.3950  0.5310
 4359TIP3    H134492   3.672   6.630   2.340  0.7624 -0.2497 -0.5367
 4359TIP3    H234493   3.582   6.524   2.280  2.1133 -0.7163 -1.7919
 4360TIP3   OH234494   0.384   6.092  15.025  0.4347 -0.0410  0.9246
 4360TIP3    H134495   0.466   6.140  15.041 -0.0630  1.0073  0.4522
 4360TIP3    H234496   0.343   6.085  15.111  0.3624  0.6892  0.9593
 4361TIP3   OH234497   3.267   0.568   4.385  0.1151 -0.1665 -0.1781
 4361TIP3    H134498   3.224   0.529   4.462  1.3146  1.6937  1.5451
 4361TIP3    H234499   3.331   0.629   4.422  0.3143  1.2862 -2.6917
 4362TIP3   OH234500   5.012   5.546   1.352 -0.1330  0.4223  0.1499
 4362TIP3    H134501   4.920   5.569   1.338 -0.7279 -1.2875  0.9937
 4362TIP3    H234502   5.052   5.557   1.266 -1.4578 -0.2229 -0.5898
 4363TIP3   OH234503   2.160   4.712   2.277  0.0143 -0.3712  0.3122
 4363TIP3    H134504   2.102   4.642   2.245 -0.2047  0.6439 -1.6322
 4363TIP3    H234505   2.100   4.782   2.302  0.1429 -1.2407  3.5097
 4364TIP3   OH234506   5.524   1.940   2.799 -0.0831 -0.1872  0.5949
 4364TIP3    H134507   5.545   2.031   2.820 -1.1064 -0.2530  2.0768
 4364TIP3    H234508   5.528   1.936   2.704  2.4305  0.7756  0.5843
 4365TIP3   OH234509   6.022   4.038   0.870  0.6365 -0.3769  0.1580
 4365TIP3    H134510   6.066   4.035   0.786 -1.0827 -2.0657 -0.7496
 4365TIP3    H234511   5.992   4.128   0.878 -0.6499 -0.5614 -1.8871
 4366TIP3   OH234512   5.907   4.669  16.286  0.3079  0.2755 -0.2544
 4366TIP3    H134513   5.879   4.716  16.208 -0.9591  0.1402  0.0853
 4366TIP3    H234514   5.828   4.664  16.340  1.2335  0.6503  1.1841
 4367TIP3   OH234515   4.769   4.025  15.592  0.5569 -0.0170 -0.5914
 4367TIP3    H134516   4.674   4.027  15.580  0.2670  0.5431  1.5108
 4367TIP3    H234517   4.804   4.020  15.503 -1.4427 -1.0871 -1.3857
 4368TIP3   OH234518   0.162   4.121   6.963  0.1383 -0.7783 -0.6035
 4368TIP3    H134519   0.253   4.129   6.990  0.6971  0.1715 -2.6183
 4368TIP3    H234520   0.160   4.046   6.905 -0.4888 -1.1262 -0.1481
 4369TIP3   OH234521   3.958   2.498   3.878  0.6056  0.2695  0.6053
 4369TIP3    H134522   4.012   2.442   3.822 -2.3542 -1.4813 -0.7460
 4369TIP3    H234523   3.903   2.546   3.817  0.9915  2.4851  1.9020
 4370TIP3   OH234524   3.450   4.696   1.531 -0.3317 -0.0004 -0.3276
 4370TIP3    H134525   3.497   4.678   1.612  0.7485  2.3894 -0.3297
 4370TIP3    H234526   3.505   4.657   1.463  0.1179  0.2205 -0.0948
 4371TIP3   OH234527   5.516   4.398  14.901  0.0154  0.1873  0.2195
 4371TIP3    H134528   5.601   4.418  14.941  0.9058  0.6351 -1.7686
 4371TIP3    H234529   5.506   4.463  14.832 -2.0076  0.1811  0.4510
 4372TIP3   OH234530   6.321   2.476   1.446 -0.1129 -0.6333  0.9151
 4372TIP3    H134531   6.335   2.544   1.511 -0.0778 -1.0741  1.3780
 4372TIP3    H234532   6.348   2.515   1.363 -0.1204 -0.0813  1.1696
 4373TIP3   OH234533   3.937   5.895  13.092 -0.1168  0.0083  0.5319
 4373TIP3    H134534   3.996   5.968  13.074 -1.3335  0.6522 -0.9971
 4373TIP3    H234535   3.956   5.831  13.023 -0.7469 -0.0708  0.4301
 4374TIP3   OH234536   3.749   1.059   1.522  0.0922  0.2641  0.3273
 4374TIP3    H134537   3.714   1.102   1.600  0.0531  0.9662 -0.0665
 4374TIP3    H234538   3.828   1.109   1.500 -0.5934  0.8998 -0.8197
 4375TIP3   OH234539   5.006   6.785   2.983  0.4440 -0.0435  0.0223
 4375TIP3    H134540   5.096   6.754   2.988  0.1708 -0.8234  0.3825
 4375TIP3    H234541   5.008   6.859   2.922  0.7962 -2.1051 -2.6623
 4376TIP3   OH234542   2.879   6.154  14.025  0.3343 -0.2603 -0.5073
 4376TIP3    H134543   2.793   6.195  14.030  0.4262 -0.1632  0.3772
 4376TIP3    H234544   2.861   6.060  14.024  0.2063 -0.2348 -0.5614
 4377TIP3   OH234545   6.344   0.232   1.665 -0.4535 -0.0658  0.0928
 4377TIP3    H134546   6.317   0.223   1.756  1.1441 -0.7726  0.5232
 4377TIP3    H234547   6.368   0.324   1.657 -1.9134  0.3290 -0.0194
 4378TIP3   OH234548   5.615   4.560   3.179 -0.3847 -0.0187  0.1823
 4378TIP3    H134549   5.553   4.632   3.170  0.9880  1.3579  1.1797
 4378TIP3    H234550   5.676   4.571   3.106 -0.7728 -0.8280 -0.2776
 4379TIP3   OH234551   3.613   2.108   5.800 -0.5694  0.2106  0.3073
 4379TIP3    H134552   3.638   2.024   5.761 -0.7795  0.9720 -1.5432
 4379TIP3    H234553   3.695   2.146   5.829 -0.2938  0.0585 -0.2721
 4380TIP3   OH234554   6.728   0.987   1.213 -0.1181 -0.4221  0.2371
 4380TIP3    H134555   6.633   0.983   1.207 -0.1697 -2.6566  1.4445
 4380TIP3    H234556   6.746   1.046   1.285 -0.5975 -0.3145  0.2695
 4381TIP3   OH234557   4.080   2.635   1.623 -0.1578 -0.6521  0.4893
 4381TIP3    H134558   4.035   2.561   1.663 -1.2596  0.3033  1.0518
 4381TIP3    H234559   4.170   2.604   1.611 -0.7572 -2.3112  0.0675
 4382TIP3   OH234560   6.209   0.867   0.253  0.0731  1.1479 -0.2722
 4382TIP3    H134561   6.253   0.911   0.326 -0.3329  0.4722  0.3949
 4382TIP3    H234562   6.270   0.877   0.180  0.9614  0.9651  0.4153
 4383TIP3   OH234563   2.986   3.728  16.049 -0.1942 -0.3789 -0.5337
 4383TIP3    H134564   3.057   3.701  16.108  1.1872  1.4546 -1.2740
 4383TIP3    H234565   2.926   3.778  16.105  0.7526  0.7567 -0.5066
 4384TIP3   OH234566   6.726   6.013   3.734 -0.4465  0.2436 -0.3930
 4384TIP3    H134567   6.700   6.102   3.761 -1.9664 -0.1194 -0.5563
 4384TIP3    H234568   6.752   6.023   3.643  0.0005  0.6238 -0.2294
 4385TIP3   OH234569   4.264   3.886  12.610  0.1485  0.0977  0.4147
 4385TIP3    H134570   4.271   3.810  12.552  0.5219  0.2068  0.3189
 4385TIP3    H234571   4.315   3.863  12.687 -1.4159 -0.5847  1.2848
 4386TIP3   OH234572   2.106   1.169  12.318 -0.5469 -0.3768  0.2367
 4386TIP3    H134573   2.158   1.237  12.360 -0.4521  0.8821 -1.7925
 4386TIP3    H234574   2.160   1.139  12.245 -1.7337 -0.6163 -0.5740
 4387TIP3   OH234575   1.846   0.640  16.411  0.1665 -0.3879 -0.4086
 4387TIP3    H134576   1.896   0.584  16.353 -1.3764 -0.5930 -1.6037
 4387TIP3    H234577   1.763   0.594  16.423 -0.8077  1.2085 -0.7244
 4388TIP3   OH234578   5.461   0.774  13.848  0.1045 -0.0705 -0.0305
 4388TIP3    H134579   5.553   0.748  13.852 -0.3197 -1.5526  1.2123
 4388TIP3    H234580   5.433   0.749  13.760  0.7174 -0.2506 -0.1800
 4389TIP3   OH234581   0.331   4.568   2.412  0.1174 -0.0335  0.4102
 4389TIP3    H134582   0.289   4.590   2.495 -2.0716 -1.0348 -0.3669
 4389TIP3    H234583   0.399   4.505   2.435  0.4098  0.6804  1.5675
 4390TIP3   OH234584   0.366   0.498  13.096  0.0832  0.2178  0.3360
 4390TIP3    H134585   0.326   0.415  13.070  0.1269 -0.1353  1.3341
 4390TIP3    H234586   0.431   0.516  13.029 -0.7266  0.0357 -0.5077
 4391TIP3   OH234587   2.652   2.735   4.300 -0.2398 -0.3113 -0.1224
 4391TIP3    H134588   2.675   2.819   4.339 -2.2446 -0.5410  1.7909
 4391TIP3    H234589   2.708   2.671   4.344  0.8892 -0.0775 -1.1747
 4392TIP3   OH234590   2.229   4.609   3.464  0.7201  0.2792 -0.4376
 4392TIP3    H134591   2.189   4.599   3.377  0.1280 -0.8304 -0.0646
 4392TIP3    H234592   2.232   4.520   3.499  2.2976  0.5003  0.1089
 4393TIP3   OH234593   1.110   2.796   0.072 -0.2347 -0.1852 -0.6279
 4393TIP3    H134594   1.043   2.787   0.004 -0.5794  3.0355 -0.8811
 4393TIP3    H234595   1.060   2.819   0.151  0.1524 -3.8561  0.9125
 4394TIP3   OH234596   2.280   4.080   6.310  0.2094 -0.7483  0.5096
 4394TIP3    H134597   2.361   4.044   6.275 -0.1903  0.1118 -1.4687
 4394TIP3    H234598   2.304   4.167   6.341  0.0485 -0.4040 -0.2823
 4395TIP3   OH234599   6.254   4.463   0.453 -0.5931 -0.3994 -0.0095
 4395TIP3    H134600   6.217   4.467   0.365 -0.1725  0.3991 -0.1537
 4395TIP3    H234601   6.337   4.509   0.447 -0.0960 -1.1874  0.5877
 4396TIP3   OH234602   2.554   0.758  12.680  0.4128  0.5263 -0.4682
 4396TIP3    H134603   2.533   0.847  12.705 -0.3030 -0.0820  1.1768
 4396TIP3    H234604   2.628   0.734  12.736  0.9348  0.2337 -1.2576
 4397TIP3   OH234605   1.687   5.084   3.014 -0.2389 -0.2763 -0.2661
 4397TIP3    H134606   1.642   5.002   2.992  1.7468 -1.5166  0.0386
 4397TIP3    H234607   1.626   5.152   2.987 -3.2954 -1.7829  2.1915
 4398TIP3   OH234608   0.119   0.597   3.346  0.5359 -0.2810  0.0588
 4398TIP3    H134609   0.104   0.683   3.386  1.8723  0.5291 -1.0738
 4398TIP3    H234610   0.181   0.554   3.405  0.8399  0.0589 -0.0037
 4399TIP3   OH234611   5.811   5.159   1.968  0.0230  0.5732  0.1628
 4399TIP3    H134612   5.808   5.222   2.041  0.5505  0.4134  0.3245
 4399TIP3    H234613   5.722   5.160   1.933  0.0119  1.3808  0.1893
 4400TIP3   OH234614   3.011   0.418  15.505 -0.2013 -0.2270  0.5960
 4400TIP3    H134615   3.027   0.512  15.501  0.1606 -0.3186 -0.7077
 4400TIP3    H234616   2.949   0.401  15.434 -1.7652 -0.7201  2.0039
 4401TIP3   OH234617   3.601   0.342   0.488  0.3645 -0.2722  0.4508
 4401TIP3    H134618   3.607   0.252   0.457  0.9751 -0.8198  2.0978
 4401TIP3    H234619   3.650   0.343   0.570 -0.8142  1.2242  1.1860
 4402TIP3   OH234620   5.585   4.983  15.068 -0.2991  0.0887 -0.0997
 4402TIP3    H134621   5.655   5.048  15.059 -0.8053  0.7143  0.4179
 4402TIP3    H234622   5.504   5.034  15.067 -0.7119 -0.5463  0.1565
 4403TIP3   OH234623   3.979   6.460  15.492 -0.1038  0.3284 -0.4759
 4403TIP3    H134624   4.069   6.492  15.484  0.8151 -1.4872  1.6469
 4403TIP3    H234625   3.949   6.497  15.575 -1.3421  0.9018 -1.1630
 4404TIP3   OH234626   2.261   0.630   4.935 -0.3625  0.2921  0.5226
 4404TIP3    H134627   2.323   0.568   4.974 -0.5542 -1.0782 -1.2301
 4404TIP3    H234628   2.187   0.576   4.909 -1.2524  1.5363  0.4062
 4405TIP3   OH234629   6.041   3.110   1.888  0.3861 -0.0938  0.3551
 4405TIP3    H134630   5.990   3.189   1.909 -1.2414 -0.1995 -2.5306
 4405TIP3    H234631   5.980   3.038   1.902  1.6398 -0.8505  2.2724
 4406TIP3   OH234632   4.954   5.973   0.952  0.3476  0.1864 -0.3104
 4406TIP3    H134633   4.908   6.051   0.922 -0.7096  0.5327  1.9906
 4406TIP3    H234634   5.041   6.004   0.977  0.4958  0.2828 -0.9170
 4407TIP3   OH234635   6.240   3.649  13.527 -0.2100  0.7152 -0.0101
 4407TIP3    H134636   6.226   3.722  13.467 -0.9817  1.1881  0.7272
 4407TIP3    H234637   6.290   3.585  13.475 -0.8022  1.1282 -1.1312
 4408TIP3   OH234638   1.626   5.583  15.049  0.0299 -0.1320 -0.0987
 4408TIP3    H134639   1.591   5.627  15.127  0.2674 -0.3336  0.1230
 4408TIP3    H234640   1.626   5.490  15.072 -4.4804 -0.8823 -2.0300
 4409TIP3   OH234641   0.569   3.467   5.423 -0.0732 -0.0117  0.2346
 4409TIP3    H134642   0.627   3.466   5.347  0.7858 -0.6795  0.8761
 4409TIP3    H234643   0.592   3.548   5.469 -0.8776  0.6022 -0.4023
 4410TIP3   OH234644   1.428   6.746  17.111  0.1203 -0.1983 -0.3560
 4410TIP3    H134645   1.409   6.781  17.024  0.3356  0.2043 -0.2398
 4410TIP3    H234646   1.448   6.822  17.165 -0.1204 -0.4371  0.0787
 4411TIP3   OH234647   2.202   1.807   5.577  0.2631  0.3128 -0.3784
 4411TIP3    H134648   2.130   1.867   5.595 -2.1159 -2.1439 -1.0829
 4411TIP3    H234649   2.194   1.739   5.644  2.4534  0.3477 -0.0067
 4412TIP3   OH234650   5.320   4.187   6.650  0.5285 -0.3028 -0.3107
 4412TIP3    H134651   5.393   4.245   6.670  1.1514 -1.1025 -0.2473
 4412TIP3    H234652   5.353   4.127   6.584 -0.9593  1.1533 -2.5402
 4413TIP3   OH234653   0.990   0.707   2.515 -0.4547 -0.1955 -0.4984
 4413TIP3    H134654   1.034   0.655   2.447 -0.5112 -0.1310 -0.5840
 4413TIP3    H234655   0.902   0.721   2.481 -1.6567 -3.0468  1.0302
 4414TIP3   OH234656   2.808   1.155   2.126  0.4430  0.7057  0.3924
 4414TIP3    H134657   2.841   1.172   2.037 -0.3973 -2.2993 -0.6221
 4414TIP3    H234658   2.718   1.188   2.125 -0.0190 -0.4748 -0.3983
 4415TIP3   OH234659   5.582   5.383  13.897  0.9308 -0.4390  0.3036
 4415TIP3    H134660   5.652   5.432  13.853  0.9739 -1.9948 -1.5078
 4415TIP3    H234661   5.606   5.291  13.884 -1.7445 -1.0574 -0.9942
 4416TIP3   OH234662   3.011   5.061   3.842 -0.1491 -0.0436 -0.3466
 4416TIP3    H134663   3.074   4.989   3.847 -1.3318 -1.0589  0.2357
 4416TIP3    H234664   2.992   5.070   3.748  2.1424  1.4694 -0.7684
 4417TIP3   OH234665   3.500   6.476   4.172  0.2611 -0.6465  0.2568
 4417TIP3    H134666   3.535   6.462   4.084 -0.4266 -2.1522  0.1790
 4417TIP3    H234667   3.425   6.534   4.160 -0.3047 -1.4598 -0.2865
 4418TIP3   OH234668   5.367   1.326   4.659 -0.7648  0.2152 -0.0621
 4418TIP3    H134669   5.410   1.256   4.708 -1.3829  1.2958  2.1422
 4418TIP3    H234670   5.367   1.401   4.719  0.0546  2.2269 -2.3995
 4419TIP3   OH234671   0.630   0.584   3.524  0.0466 -0.0171 -0.0765
 4419TIP3    H134672   0.639   0.576   3.619 -1.9457 -0.7051  0.0899
 4419TIP3    H234673   0.557   0.527   3.502  0.3037  0.3405 -2.0092
 4420TIP3   OH234674   4.948   6.579  11.806  0.0930  0.1441 -0.0713
 4420TIP3    H134675   4.898   6.557  11.884 -1.1120 -1.1455 -1.1422
 4420TIP3    H234676   5.031   6.532  11.817 -0.2957 -0.4955  0.1911
 4421TIP3   OH234677   2.962   3.563  14.696 -0.3373  0.3616  0.8550
 4421TIP3    H134678   2.923   3.649  14.688 -0.2628  0.2852 -0.7655
 4421TIP3    H234679   2.946   3.521  14.611 -0.0272 -1.0673  1.4647
 4422TIP3   OH234680   0.193   2.088  12.683 -0.4172  0.4232 -0.1474
 4422TIP3    H134681   0.135   2.161  12.704 -0.8754  0.5950 -1.8358
 4422TIP3    H234682   0.184   2.077  12.588  1.5913 -0.1694 -0.3259
 4423TIP3   OH234683   3.425   1.743  11.237 -0.0520  0.0343 -0.4068
 4423TIP3    H134684   3.388   1.711  11.155 -0.6267  1.3855 -0.7128
 4423TIP3    H234685   3.350   1.772  11.288  0.4365  1.2973 -0.3560
 4424TIP3   OH234686   4.897   4.083   3.925  0.2437 -0.3644  0.1022
 4424TIP3    H134687   4.844   4.005   3.940 -0.6231 -0.0531 -1.1690
 4424TIP3    H234688   4.969   4.053   3.870  0.9409 -0.6140  1.1223
 4425TIP3   OH234689   2.797   6.718  13.288 -0.7058  0.0723  0.2587
 4425TIP3    H134690   2.861   6.659  13.329 -0.8482 -1.8073 -1.9861
 4425TIP3    H234691   2.842   6.754  13.212 -2.5200 -2.4757 -2.3009
 4426TIP3   OH234692   5.939   2.894   0.131  0.0228 -0.0741 -0.4651
 4426TIP3    H134693   5.917   2.817   0.183  1.9653 -0.4925 -0.1929
 4426TIP3    H234694   5.878   2.892   0.058 -1.4606 -0.5722  0.7469
 4427TIP3   OH234695   0.003   1.170   0.295  0.5754 -0.0187 -0.9469
 4427TIP3    H134696   0.033   1.251   0.337  1.2000 -0.8439  0.2505
 4427TIP3    H234697   0.008   1.188   0.201  0.0144  1.5715 -0.7105
 4428TIP3   OH234698   1.930   4.758   1.658  0.5831 -0.3548  0.0807
 4428TIP3    H134699   1.920   4.766   1.563  0.4581 -1.5123 -0.0207
 4428TIP3    H234700   1.882   4.832   1.694 -0.9762 -0.9532 -0.7060
 4429TIP3   OH234701   0.157   2.197  15.145  0.3993 -0.1617 -0.1508
 4429TIP3    H134702   0.228   2.241  15.098  0.3990  1.0954  0.9403
 4429TIP3    H234703   0.166   2.228  15.235 -0.8801 -0.8320  0.2321
 4430TIP3   OH234704   0.016   6.090  13.371  0.2472 -0.2077 -0.4528
 4430TIP3    H134705   0.101   6.128  13.350  0.2661  0.1758  0.2699
 4430TIP3    H234706   0.012   6.010  13.319  0.3621  0.5851 -1.7380
 4431TIP3   OH234707   1.512   1.476   4.430  0.1271 -0.0157  0.0005
 4431TIP3    H134708   1.542   1.517   4.350 -0.8897 -1.6984 -1.3119
 4431TIP3    H234709   1.431   1.431   4.405  0.8246 -2.2642  1.4461
 4432TIP3   OH234710   2.802   3.394  16.645  0.0704  0.3422  0.4647
 4432TIP3    H134711   2.711   3.398  16.617  0.4603 -1.7552 -1.4194
 4432TIP3    H234712   2.799   3.363  16.736 -1.1034  1.9634  1.0098
 4433TIP3   OH234713   4.919   4.375  12.629  0.0790 -0.5492 -0.2396
 4433TIP3    H134714   4.866   4.300  12.657 -1.7319  0.6811 -0.1668
 4433TIP3    H234715   4.878   4.451  12.671  0.1633  0.7982 -2.3803
 4434TIP3   OH234716   5.188   5.236  11.458 -0.1004  0.1027  0.4431
 4434TIP3    H134717   5.212   5.158  11.508  0.4569  0.7140  1.1609
 4434TIP3    H234718   5.124   5.281  11.514  0.8674  1.0281  0.8512
 4435TIP3   OH234719   0.176   2.064  11.038 -0.1440  0.0621  0.3617
 4435TIP3    H134720   0.214   2.083  10.953 -2.2693  0.1726 -0.6381
 4435TIP3    H234721   0.174   2.148  11.084  0.9915  0.0036  0.5560
 4436TIP3   OH234722   5.489   0.377   1.563 -0.4735 -0.5692 -0.2859
 4436TIP3    H134723   5.486   0.335   1.649 -0.9954 -0.3359 -0.1882
 4436TIP3    H234724   5.406   0.425   1.556  0.4797  1.2433  0.0130
 4437TIP3   OH234725   0.809   4.936   6.113  0.3492 -0.3532  0.0182
 4437TIP3    H134726   0.887   4.883   6.094  0.1550 -0.5140 -0.3227
 4437TIP3    H234727   0.746   4.873   6.148  0.5021 -0.1586  0.6554
 4438TIP3   OH234728   6.619   4.915   2.608 -0.2570  0.4672  0.2215
 4438TIP3    H134729   6.671   4.940   2.685  1.0432 -0.0307 -0.4600
 4438TIP3    H234730   6.684   4.887   2.544 -1.4920 -2.4169  0.1179
 4439TIP3   OH234731   2.514   1.286  15.351  0.8690 -0.3238 -0.5943
 4439TIP3    H134732   2.451   1.222  15.318  0.5470 -0.4670  0.2610
 4439TIP3    H234733   2.552   1.244  15.428  1.8213 -0.1299 -0.9451
 4440TIP3   OH234734   6.690   6.410   0.215 -0.0736 -0.0934 -0.1527
 4440TIP3    H134735   6.773   6.387   0.257  0.6884  1.1441 -0.9303
 4440TIP3    H234736   6.686   6.355   0.137 -0.8326 -1.3981  0.7766
 4441TIP3   OH234737   1.111   0.473   0.529 -0.0503  0.0699  0.5446
 4441TIP3    H134738   1.165   0.460   0.451 -0.8184  0.0730 -0.0123
 4441TIP3    H234739   1.043   0.534   0.500 -0.9112 -0.6775  0.9275
 4442TIP3   OH234740   6.577   5.021  13.762 -0.1830  0.6214  0.0755
 4442TIP3    H134741   6.524   4.985  13.834  1.1095  0.0784  0.7865
 4442TIP3    H234742   6.514   5.069  13.708 -1.8798 -2.0197 -0.4874
 4443TIP3   OH234743   4.225   6.709  11.946 -0.5360 -0.9871 -0.0373
 4443TIP3    H134744   4.252   6.676  11.860  0.8076 -0.5702  0.2089
 4443TIP3    H234745   4.163   6.779  11.926 -1.2075 -1.7219 -0.6205
 4444TIP3   OH234746   6.118   2.510   0.868 -0.0631  0.2880  0.1282
 4444TIP3    H134747   6.205   2.548   0.883 -0.2328  1.6870 -1.9365
 4444TIP3    H234748   6.095   2.538   0.779 -1.7244 -1.8684 -0.2038
 4445TIP3   OH234749   2.409   0.964  11.182  0.2683 -0.5854 -0.2926
 4445TIP3    H134750   2.474   1.021  11.225  0.3311 -0.4230 -0.5985
 4445TIP3    H234751   2.335   1.022  11.164  0.1110 -0.7294 -0.1061
 4446TIP3   OH234752   0.966   5.297   2.398  0.3912  0.0360  0.3944
 4446TIP3    H134753   0.937   5.352   2.471  1.1903 -0.9291  1.4772
 4446TIP3    H234754   0.902   5.313   2.329 -0.7722  0.4859  1.5324
 4447TIP3   OH234755   1.034   0.114   2.188 -0.3441 -0.0100 -0.2256
 4447TIP3    H134756   1.090   0.036   2.190  0.5787  0.6357  0.5186
 4447TIP3    H234757   0.966   0.094   2.124  0.1817 -1.2128 -0.4347
 4448TIP3   OH234758   0.703   2.797   0.112 -0.1666 -0.1483 -0.0678
 4448TIP3    H134759   0.765   2.742   0.064  0.4229  0.9495 -0.5846
 4448TIP3    H234760   0.618   2.755   0.099 -0.1163  0.4151 -2.5325
 4449TIP3   OH234761   4.992   0.854  12.389  0.0468 -0.3543  0.5610
 4449TIP3    H134762   5.087   0.849  12.378  0.1831  2.6110 -0.7788
 4449TIP3    H234763   4.978   0.855  12.483  1.3742 -0.3790  0.7753
 4450TIP3   OH234764   6.357   1.716  15.624  0.6177  0.3659 -0.3297
 4450TIP3    H134765   6.278   1.671  15.594 -0.6797  1.7911  0.8332
 4450TIP3    H234766   6.352   1.803  15.584  1.6071  0.4778 -0.2307
 4451TIP3   OH234767   3.798   5.029   6.582 -0.0015 -0.2383 -0.0859
 4451TIP3    H134768   3.742   4.970   6.531  0.3774 -0.9866  0.3436
 4451TIP3    H234769   3.778   5.116   6.548 -0.6597 -0.5991 -0.6559
 4452TIP3   OH234770   4.157   5.088  15.891  0.1182 -0.5538  0.4172
 4452TIP3    H134771   4.250   5.110  15.892 -0.1507  0.7548 -0.9572
 4452TIP3    H234772   4.123   5.123  15.973  0.7091 -0.4959  0.6411
 4453TIP3   OH234773   3.742   1.348   2.173 -0.3056  0.1290  0.0097
 4453TIP3    H134774   3.666   1.401   2.150 -0.2948  0.2895  0.3270
 4453TIP3    H234775   3.793   1.342   2.092 -1.5422 -1.5097 -0.6746
 4454TIP3   OH234776   2.978   1.831  12.623 -0.1119  0.0237 -0.7752
 4454TIP3    H134777   3.052   1.816  12.565 -0.2343  4.4195 -2.5096
 4454TIP3    H234778   2.904   1.847  12.564 -1.9701 -1.9742  0.8582
 4455TIP3   OH234779   5.613   0.748  11.822  0.8058  0.3110  0.4795
 4455TIP3    H134780   5.706   0.732  11.804  0.8912  0.2110  0.9985
 4455TIP3    H234781   5.585   0.806  11.751  1.2331  0.2454  0.2511
 4456TIP3   OH234782   1.005   3.446   3.379 -0.2470  0.0094  1.0520
 4456TIP3    H134783   0.983   3.410   3.464 -4.3268  0.6921  0.4928
 4456TIP3    H234784   1.002   3.540   3.391 -0.2214  0.1129  0.3033
 4457TIP3   OH234785   3.236   2.198  12.752  0.2265  0.2584 -0.7178
 4457TIP3    H134786   3.301   2.251  12.705  0.1996  0.1183 -0.9105
 4457TIP3    H234787   3.271   2.109  12.750  0.5323  0.3577  0.0719
 4458TIP3   OH234788   2.099   5.177   5.823 -0.4623 -0.3566  0.3744
 4458TIP3    H134789   2.121   5.188   5.916 -1.2022 -0.1886  0.5322
 4458TIP3    H234790   2.012   5.215   5.814 -0.7425 -1.1287 -0.2300
 4459TIP3   OH234791   6.740   5.967   0.216 -0.2266  0.3030  0.4719
 4459TIP3    H134792   6.701   5.968   0.129  2.4193  0.6945 -0.8292
 4459TIP3    H234793   6.779   5.879   0.224 -1.2311 -0.0604  1.6816
 4460TIP3   OH234794   5.165   0.520  14.042 -0.0854 -0.2687  0.1044
 4460TIP3    H134795   5.082   0.522  13.996 -0.1775  0.6209  0.2880
 4460TIP3    H234796   5.153   0.454  14.111 -0.8098  0.2141  0.4497
 4461TIP3   OH234797   6.696   2.404   4.946  0.3157  0.2711 -0.8805
 4461TIP3    H134798   6.773   2.376   4.995 -1.7390 -1.6364  1.4978
 4461TIP3    H234799   6.672   2.328   4.894 -1.3319 -0.0792  0.3136
 4462TIP3   OH234800   3.104   1.625   1.166 -0.6026  0.1096  0.4448
 4462TIP3    H134801   3.183   1.605   1.216 -0.3211 -0.3954 -0.1741
 4462TIP3    H234802   3.036   1.571   1.205 -0.3616 -0.3581  0.2353
 4463TIP3   OH234803   6.461   5.398   1.242 -0.1606 -0.4517 -0.7880
 4463TIP3    H134804   6.491   5.484   1.273 -0.7607  0.0088 -1.4361
 4463TIP3    H234805   6.458   5.344   1.321  0.8396 -0.0688 -0.4696
 4464TIP3   OH234806   5.840   6.747  11.660 -0.0152  0.5158  0.2037
 4464TIP3    H134807   5.846   6.790  11.745 -1.9683 -0.5321  0.9333
 4464TIP3    H234808   5.901   6.673  11.666  1.0361  1.3422  0.0683
 4465TIP3   OH234809   2.663   5.974  10.931  0.0737  0.6383  0.0093
 4465TIP3    H134810   2.630   5.891  10.963 -1.0959  0.8616 -0.5613
 4465TIP3    H234811   2.685   5.958  10.839 -1.4849  1.2620 -0.5199
 4466TIP3   OH234812   4.313   2.835  15.502  0.6720 -0.3543  0.1662
 4466TIP3    H134813   4.289   2.792  15.584 -0.5731  0.0476  0.0413
 4466TIP3    H234814   4.298   2.928  15.519 -0.3445 -0.3291 -0.7224
 4467TIP3   OH234815   2.338   5.966  12.371 -0.7386 -0.6360 -0.2574
 4467TIP3    H134816   2.414   5.909  12.385 -0.1999 -0.6147 -2.6636
 4467TIP3    H234817   2.331   5.973  12.276 -3.9179 -0.8221 -0.1388
 4468TIP3   OH234818   4.070   3.106   3.956  0.2754 -0.0667 -0.0350
 4468TIP3    H134819   4.063   3.027   3.904  0.1914 -1.2233  1.6578
 4468TIP3    H234820   3.990   3.155   3.937 -1.1193 -1.7910  1.0643
 4469TIP3   OH234821   2.142   0.562  16.878  0.0337 -0.0156  0.2956
 4469TIP3    H134822   2.060   0.519  16.904  0.6982 -0.5508  1.6307
 4469TIP3    H234823   2.126   0.593  16.789 -0.7234 -2.4803 -0.5188
 4470TIP3   OH234824   6.104   4.667   4.339  0.0838 -0.0205 -0.0920
 4470TIP3    H134825   6.075   4.733   4.403 -0.7041  0.1283 -0.5918
 4470TIP3    H234826   6.130   4.718   4.262 -0.0325 -0.2628 -0.2927
 4471TIP3   OH234827   5.914   1.782  13.826  0.5999  0.2963  0.3034
 4471TIP3    H134828   5.851   1.768  13.896  2.0498  0.8518  1.7954
 4471TIP3    H234829   5.861   1.788  13.746 -1.2165  0.8574  1.4942
 4472TIP3   OH234830   0.513   0.740  12.050  0.2832 -0.1239  0.3190
 4472TIP3    H134831   0.582   0.680  12.078  1.9191  0.8898 -1.3174
 4472TIP3    H234832   0.540   0.769  11.962 -2.3524  0.1432 -0.4946
 4473TIP3   OH234833   6.447   3.225  14.135 -0.1564  0.1095  0.2581
 4473TIP3    H134834   6.436   3.311  14.093 -0.0086 -0.8594 -1.8805
 4473TIP3    H234835   6.360   3.205  14.170 -0.1382  1.2108  0.9984
 4474TIP3   OH234836   3.529   3.782   4.097 -0.1780 -0.1714 -0.9990
 4474TIP3    H134837   3.466   3.802   4.027  0.4927  0.4055 -1.4505
 4474TIP3    H234838   3.493   3.704   4.140 -0.8407 -0.2565 -1.6865
 4475TIP3   OH234839   0.010   4.957  16.919  0.4104 -0.4029 -0.5426
 4475TIP3    H134840   0.090   4.911  16.944  1.0239  1.2789  0.8046
 4475TIP3    H234841   0.023   4.979  16.826  3.0577  2.6136  0.3640
 4476TIP3   OH234842   4.232   2.465   5.274  0.4657  0.2989 -0.1804
 4476TIP3    H134843   4.146   2.505   5.258 -0.1978 -0.7093  0.7165
 4476TIP3    H234844   4.294   2.537   5.265 -0.6378  1.4542  0.9653
 4477TIP3   OH234845   1.241   3.670  13.507 -0.6812 -0.0105 -0.2925
 4477TIP3    H134846   1.148   3.647  13.506 -0.4775 -0.9241  0.2529
 4477TIP3    H234847   1.273   3.636  13.591  0.2795 -0.2717 -0.7491
 4478TIP3   OH234848   1.479   0.861  13.758  0.4065 -0.2574  0.4022
 4478TIP3    H134849   1.549   0.925  13.749 -1.1734  1.2863 -2.2207
 4478TIP3    H234850   1.498   0.795  13.692 -1.2835  0.9729 -1.4238
 4479TIP3   OH234851   3.168   4.422   4.566 -0.1573 -0.3585  0.6391
 4479TIP3    H134852   3.086   4.438   4.518  1.3961  0.2386 -2.0084
 4479TIP3    H234853   3.177   4.327   4.566 -0.5006 -0.3950  0.2787
 4480TIP3   OH234854   5.823   2.321  16.480  0.2888  0.2752  0.4164
 4480TIP3    H134855   5.744   2.275  16.508  1.7624 -1.4395  2.0350
 4480TIP3    H234856   5.863   2.353  16.561  0.9013  1.7709 -0.4325
 4481TIP3   OH234857   3.218   4.876   1.980 -0.3304  0.0841  0.3861
 4481TIP3    H134858   3.206   4.970   1.966  0.9256  0.2585  0.3077
 4481TIP3    H234859   3.242   4.842   1.894 -4.1656 -0.9766 -0.4122
 4482TIP3   OH234860   2.575   5.577   3.894 -0.1450  0.2121 -0.2926
 4482TIP3    H134861   2.480   5.588   3.886 -0.1228 -0.1513 -1.1076
 4482TIP3    H234862   2.605   5.658   3.936 -0.6837  0.7889 -0.9982
 4483TIP3   OH234863   0.652   2.709  15.036 -0.4939  0.0088  0.0510
 4483TIP3    H134864   0.609   2.648  14.976 -1.6088 -0.4915  1.3114
 4483TIP3    H234865   0.580   2.756  15.078  0.2364 -0.0317  1.3819
 4484TIP3   OH234866   5.133   6.475   1.140 -0.1760 -0.3151  0.3602
 4484TIP3    H134867   5.139   6.414   1.213 -0.3775  0.3107  0.9036
 4484TIP3    H234868   5.040   6.497   1.135  0.0821  1.0091  1.0518
 4485TIP3   OH234869   5.761   0.927  11.093  0.3333  0.3394  0.9461
 4485TIP3    H134870   5.720   0.972  11.020  0.4866  1.7816  1.7190
 4485TIP3    H234871   5.785   0.841  11.058  4.3654  2.3430 -2.1253
 4486TIP3   OH234872   4.469   6.119   0.008  0.5469  0.1640 -0.6379
 4486TIP3    H134873   4.538   6.111  -0.057 -0.5570 -0.3288 -1.7823
 4486TIP3    H234874   4.388   6.120  -0.043 -0.2586  1.8045  0.5931
 4487TIP3   OH234875   2.681   2.230  15.337 -0.2484  0.4797  0.0143
 4487TIP3    H134876   2.586   2.236  15.325 -0.0656  0.4854 -1.6610
 4487TIP3    H234877   2.692   2.185  15.420 -1.7208 -0.1736 -0.1154
 4488TIP3   OH234878   5.591   4.542   5.849 -0.1844  0.1216 -0.1249
 4488TIP3    H134879   5.666   4.483   5.852  0.0762  0.3621 -1.3668
 4488TIP3    H234880   5.521   4.492   5.808 -1.0084 -0.3730  1.7412
 4489TIP3   OH234881   4.406   2.046  16.662 -0.6201  0.3049  0.1250
 4489TIP3    H134882   4.369   1.959  16.647 -0.6196  0.1448  0.9961
 4489TIP3    H234883   4.331   2.104  16.666 -0.5772  0.4986 -1.3098
 4490TIP3   OH234884   1.336   4.406  14.516  0.1056 -0.2117  0.6697
 4490TIP3    H134885   1.274   4.332  14.510 -0.9541  0.6245  0.9664
 4490TIP3    H234886   1.420   4.365  14.536 -0.1393 -1.4711 -0.6721
 4491TIP3   OH234887   2.034   0.984  16.148 -0.3458  0.0889  0.2137
 4491TIP3    H134888   1.971   0.922  16.113  1.1976 -1.2111 -0.3866
 4491TIP3    H234889   2.101   0.930  16.190 -0.1036  1.4583  1.7008
 4492TIP3   OH234890   0.419   4.476  15.555 -0.1988 -0.6555  0.9418
 4492TIP3    H134891   0.489   4.456  15.492 -0.4585 -0.4330  0.5829
 4492TIP3    H234892   0.427   4.407  15.621 -0.2474 -1.1867  0.4002
 4493TIP3   OH234893   5.840   2.450   2.278 -0.3004  0.2480 -0.1706
 4493TIP3    H134894   5.816   2.487   2.193  0.1986  1.7851  0.3334
 4493TIP3    H234895   5.758   2.414   2.312 -0.0586 -2.8971 -2.4177
 4494TIP3   OH234896   3.293   1.919   2.556  0.0454  0.1246 -0.1906
 4494TIP3    H134897   3.220   1.962   2.512  0.4792 -0.0363 -1.0861
 4494TIP3    H234898   3.273   1.825   2.550 -0.3550  0.1395  0.7872
 4495TIP3   OH234899   5.938   5.715  11.246 -0.0673  0.3715 -0.0250
 4495TIP3    H134900   5.885   5.736  11.323 -0.1664 -1.3623  0.4250
 4495TIP3    H234901   5.976   5.799  11.219 -0.0943  1.0248  1.8574
 4496TIP3   OH234902   1.348   4.275  17.018  0.0215 -0.5787 -0.3270
 4496TIP3    H134903   1.441   4.282  17.038  0.0591 -1.0020 -0.3485
 4496TIP3    H234904   1.308   4.247  17.101  0.0473 -1.3701 -0.5784
 4497TIP3   OH234905   6.364   1.628   0.373 -0.2090 -0.1413  0.3427
 4497TIP3    H134906   6.305   1.677   0.315 -1.6516  0.8450  2.4985
 4497TIP3    H234907   6.432   1.691   0.396  1.0526 -0.9054 -1.1787
 4498TIP3   OH234908   2.278   1.128   1.689  0.3048 -0.1069 -0.1886
 4498TIP3    H134909   2.231   1.173   1.618  0.1674 -0.2234 -0.1722
 4498TIP3    H234910   2.224   1.051   1.708  1.3342 -1.1336 -1.2795
 4499TIP3   OH234911   0.175   6.552  14.616 -0.0865  0.3287 -0.2578
 4499TIP3    H134912   0.088   6.529  14.582  0.6872 -0.2948 -1.8848
 4499TIP3    H234913   0.181   6.504  14.699 -1.7306  1.3165  0.5085
 4500TIP3   OH234914   6.720   0.608   5.862 -0.0561  0.2749 -0.5382
 4500TIP3    H134915   6.667   0.611   5.942 -0.0293  1.6081 -0.5394
 4500TIP3    H234916   6.810   0.620   5.892 -0.2155  2.9079 -0.8622
 4501TIP3   OH234917   3.704   3.755  14.085  0.0507 -0.0172  0.1881
 4501TIP3    H134918   3.726   3.720  14.171  1.0029 -2.0300 -0.8106
 4501TIP3    H234919   3.785   3.746  14.034 -0.5281  0.9965 -0.9594
 4502TIP3   OH234920   4.006   2.137   1.771  0.2684  0.1017 -0.0870
 4502TIP3    H134921   3.927   2.131   1.825  0.5052  1.7577  0.4908
 4502TIP3    H234922   4.075   2.101   1.827  0.6533  2.5107  1.0799
 4503TIP3   OH234923   1.805   5.641  15.399  0.2128  0.4708  0.1525
 4503TIP3    H134924   1.796   5.602  15.486 -0.0960  1.6378  0.6756
 4503TIP3    H234925   1.877   5.703  15.408  0.4467  0.3021 -0.5407
 4504TIP3   OH234926   2.954   4.257  15.431  0.5513  0.0103  0.9922
 4504TIP3    H134927   2.896   4.253  15.506  0.8157 -0.6716  1.1723
 4504TIP3    H234928   2.960   4.166  15.400 -0.7286  0.4727 -0.7733
 4505TIP3   OH234929   1.335   1.743  13.497  0.0300  0.0571 -0.3346
 4505TIP3    H134930   1.321   1.743  13.402 -0.6733  0.3337 -0.2395
 4505TIP3    H234931   1.426   1.716  13.508  0.2973  0.6139 -1.1119
 4506TIP3   OH234932   5.017   3.866  11.021 -0.5286  0.2002 -0.3958
 4506TIP3    H134933   5.052   3.864  11.110  0.4639 -1.2388 -0.7846
 4506TIP3    H234934   5.084   3.911  10.969 -0.9612  0.7585 -0.4806
 4507TIP3   OH234935   0.290   5.198   1.953 -0.5388  0.4796 -0.0373
 4507TIP3    H134936   0.312   5.288   1.976  0.3138  0.2515  0.0540
 4507TIP3    H234937   0.204   5.184   1.995  0.0553  0.7303  1.3366
 4508TIP3   OH234938   4.481   2.489  13.805 -0.0081  0.2611  0.1019
 4508TIP3    H134939   4.506   2.561  13.748 -0.8787  0.5492  0.0675
 4508TIP3    H234940   4.456   2.530  13.888 -0.3868 -0.0068  0.1260
 4509TIP3   OH234941   5.500   2.488   6.457  0.1219 -0.1212 -0.1827
 4509TIP3    H134942   5.572   2.433   6.487 -0.7062 -0.9217  0.4077
 4509TIP3    H234943   5.498   2.560   6.519  0.3698 -0.1360 -0.1564
 4510TIP3   OH234944   3.060   5.770   4.753  0.7611 -0.2924 -0.0689
 4510TIP3    H134945   3.053   5.697   4.691 -0.2074 -1.1335  0.9886
 4510TIP3    H234946   2.981   5.822   4.739  1.8493  1.1040 -1.4187
 4511TIP3   OH234947   6.304   1.615  13.874 -0.0351 -0.1596 -0.0633
 4511TIP3    H134948   6.391   1.630  13.911  0.0268  0.6039 -0.4944
 4511TIP3    H234949   6.320   1.557  13.800 -0.0710 -1.1115  0.6513
 4512TIP3   OH234950   5.065   5.457   3.733  0.1411 -0.4471  0.0553
 4512TIP3    H134951   4.984   5.433   3.778 -0.1560  0.9205  0.2860
 4512TIP3    H234952   5.130   5.460   3.803 -0.0322  0.3667  0.1837
 4513TIP3   OH234953   5.285   3.539  12.274 -0.4662 -0.3306  0.0181
 4513TIP3    H134954   5.341   3.463  12.289  0.3827  0.2167 -0.2795
 4513TIP3    H234955   5.297   3.594  12.351 -1.2031 -0.5562  0.3068
 4514TIP3   OH234956   0.402   3.614   4.297 -0.4512  0.3672 -0.4537
 4514TIP3    H134957   0.323   3.598   4.348  1.1144  1.5835  2.6206
 4514TIP3    H234958   0.455   3.536   4.310 -0.8614 -0.2437 -2.1254
 4515TIP3   OH234959   6.159   4.709   3.852  0.3126  0.3453  0.1806
 4515TIP3    H134960   6.122   4.634   3.807 -1.2365  2.0588 -1.5799
 4515TIP3    H234961   6.199   4.762   3.782  0.0997  1.8491  1.1463
 4516TIP3   OH234962   6.540   2.485   1.712 -0.2683 -0.1473  0.1616
 4516TIP3    H134963   6.493   2.417   1.663 -0.8552  0.5162 -0.2132
 4516TIP3    H234964   6.588   2.437   1.779  2.6498 -1.4026 -2.5535
 4517TIP3   OH234965   0.980   3.627   4.978  0.0547  0.0422 -0.1141
 4517TIP3    H134966   1.074   3.645   4.990 -0.5686  5.4306 -0.7064
 4517TIP3    H234967   0.969   3.628   4.883 -0.7335  0.8840 -0.0243
 4518TIP3   OH234968   2.854   3.613  15.282 -0.3157 -0.2440  0.3338
 4518TIP3    H134969   2.923   3.552  15.309 -0.4193 -0.1793  0.7481
 4518TIP3    H234970   2.883   3.645  15.196  0.3269  0.0134  0.6335
 4519TIP3   OH234971   2.397   1.906  10.477 -0.0197 -0.1501  0.0845
 4519TIP3    H134972   2.487   1.893  10.444  0.1633  2.0826 -0.4815
 4519TIP3    H234973   2.343   1.903  10.398 -0.1166  0.8976  0.0960
 4520TIP3   OH234974   0.340   3.672  13.904 -0.0462 -0.1839  0.1227
 4520TIP3    H134975   0.375   3.757  13.877  0.3707 -0.1445  0.7694
 4520TIP3    H234976   0.344   3.673  13.999 -1.8527 -0.1844  0.2249
 4521TIP3   OH234977   0.366   2.320  13.833 -0.2754 -0.1250  0.3287
 4521TIP3    H134978   0.351   2.232  13.798  1.4136 -0.2602 -0.1114
 4521TIP3    H234979   0.283   2.366  13.818 -0.4752 -0.9834 -1.4818
 4522TIP3   OH234980   5.184   5.048  12.282 -0.3454 -0.3609 -0.1230
 4522TIP3    H134981   5.270   5.070  12.248  0.8516 -0.6939  2.4966
 4522TIP3    H234982   5.199   4.975  12.342 -2.0318  0.9937  2.1173
 4523TIP3   OH234983   3.778   3.382  13.318 -0.3015 -0.1856  0.0289
 4523TIP3    H134984   3.784   3.418  13.406  0.8120 -2.5396  1.0028
 4523TIP3    H234985   3.827   3.444  13.264 -0.9258  1.2491  1.0405
 4524TIP3   OH234986   6.174   1.417   3.270 -0.5708  0.0750  0.3505
 4524TIP3    H134987   6.173   1.489   3.207  2.0794 -0.2285 -0.1421
 4524TIP3    H234988   6.199   1.457   3.353 -1.7868  0.0992  0.7330
 4525TIP3   OH234989   1.351   4.683  13.616  0.2420  0.1930  0.4518
 4525TIP3    H134990   1.387   4.771  13.612 -1.2188  0.7787 -0.1543
 4525TIP3    H234991   1.373   4.644  13.531  1.6800 -0.3936  1.0423
 4526TIP3   OH234992   4.792   5.584  10.489  0.5750  0.0781  0.3385
 4526TIP3    H134993   4.807   5.642  10.564  1.8568 -0.3800  0.4698
 4526TIP3    H234994   4.846   5.621  10.419  0.0225  0.0408 -0.1058
 4527TIP3   OH234995   3.900   6.089  12.818 -0.0091  0.0785  0.5794
 4527TIP3    H134996   3.827   6.136  12.778  0.0267 -0.4355 -0.1009
 4527TIP3    H234997   3.954   6.158  12.858 -0.8596  0.4604  1.0993
 4528TIP3   OH234998   4.385   5.999  16.039  0.2988 -0.3146  0.4370
 4528TIP3    H134999   4.465   6.031  15.999 -0.0524 -1.0804 -0.9250
 4528TIP3    H235000   4.414   5.934  16.104  0.7910 -0.4130  0.1209
 4529TIP3   OH235001   4.090   0.872   2.171  0.2474 -0.3611  0.4568
 4529TIP3    H135002   4.145   0.820   2.113 -1.6670 -0.6800 -1.1859
 4529TIP3    H235003   4.050   0.937   2.113 -2.4490 -1.2672  1.1674
 4530TIP3   OH235004   6.264   3.893  13.363  0.0041 -0.4953 -0.7010
 4530TIP3    H135005   6.359   3.901  13.374 -0.1425  0.2420  0.1602
 4530TIP3    H235006   6.233   3.984  13.363 -0.8131 -0.7635  0.0924
 4531TIP3   OH235007   6.102   1.668   3.881  0.3946 -0.2481 -0.2036
 4531TIP3    H135008   6.169   1.600   3.870 -1.0449 -1.9175  0.7720
 4531TIP3    H235009   6.109   1.721   3.802  1.7840 -1.3532 -0.8824
 4532TIP3   OH235010   3.698   0.693   5.503  0.4983 -0.0539 -0.6096
 4532TIP3    H135011   3.644   0.615   5.514 -0.4645  0.7847  0.9424
 4532TIP3    H235012   3.717   0.721   5.592  0.9012  1.4384 -1.1428
 4533TIP3   OH235013   0.036   4.876   0.203 -0.4171 -0.5295 -0.6329
 4533TIP3    H135014   0.024   4.823   0.282 -2.4151  1.2571  0.3759
 4533TIP3    H235015  -0.032   4.845   0.143 -1.6544  0.8650 -0.0038
 4534TIP3   OH235016   5.265   3.021   6.001 -0.4213  0.1704 -0.2172
 4534TIP3    H135017   5.236   3.076   5.929  0.7700  2.1069  0.6903
 4534TIP3    H235018   5.336   3.071   6.042 -1.0362 -0.8539  2.2744
 4535TIP3   OH235019   3.173   5.802  13.329  0.3619  0.0007  0.1950
 4535TIP3    H135020   3.226   5.723  13.319 -0.0151 -0.1732 -0.4945
 4535TIP3    H235021   3.137   5.797  13.417  0.0857 -0.7535  0.0406
 4536TIP3   OH235022   1.879   5.360   5.140 -0.0944 -0.1491 -0.4907
 4536TIP3    H135023   1.911   5.317   5.220  0.1438 -1.2155 -1.1404
 4536TIP3    H235024   1.908   5.303   5.069 -0.2362  0.8309 -1.3519
 4537TIP3   OH235025   5.725   1.058   3.226 -0.0188 -0.0144 -0.0317
 4537TIP3    H135026   5.737   0.964   3.240 -2.7015 -0.3790  0.3431
 4537TIP3    H235027   5.740   1.071   3.132 -0.6565 -1.0259 -0.2845
 4538TIP3   OH235028   4.745   4.216  12.236  0.0020  0.0571  0.3109
 4538TIP3    H135029   4.700   4.154  12.178 -0.6904 -0.1782  1.0740
 4538TIP3    H235030   4.827   4.173  12.258  0.0375 -0.0815 -0.0715
 4539TIP3   OH235031   2.809   6.540   5.482  0.1635 -0.3890 -0.6778
 4539TIP3    H135032   2.869   6.495   5.542 -0.0335 -1.4509 -1.2472
 4539TIP3    H235033   2.860   6.550   5.401 -0.4977 -1.6239 -1.2899
 4540TIP3   OH235034   4.651   3.964  12.661 -0.5262  0.1932 -0.3804
 4540TIP3    H135035   4.698   4.042  12.691 -0.4969  0.5650 -1.3534
 4540TIP3    H235036   4.718   3.895  12.660 -0.9882 -0.4263  2.4926
 4541TIP3   OH235037   2.797   4.990   0.531 -0.2020 -0.0929 -0.3840
 4541TIP3    H135038   2.888   5.020   0.538 -1.0394  2.7838 -0.4802
 4541TIP3    H235039   2.760   5.009   0.617 -1.2385  0.8551 -1.0177
 4542TIP3   OH235040   0.926   2.011   1.042 -0.4682 -0.5822  0.6366
 4542TIP3    H135041   1.015   1.997   1.009 -1.0645 -0.6319 -1.0548
 4542TIP3    H235042   0.893   1.924   1.061 -0.7751 -0.7320 -0.5078
 4543TIP3   OH235043   6.488   5.717   4.978  0.2796 -0.2281 -0.1380
 4543TIP3    H135044   6.436   5.797   4.987  0.3667 -0.2071  0.1795
 4543TIP3    H235045   6.433   5.648   5.016  0.3538 -0.2589 -0.0870
 4544TIP3   OH235046   6.779   5.889   5.523  0.3735  0.0622 -0.3108
 4544TIP3    H135047   6.782   5.984   5.510  0.9120  0.1147  0.1714
 4544TIP3    H235048   6.837   5.873   5.597  0.2583 -0.6428 -0.3674
 4545TIP3   OH235049   2.686   4.126  15.520 -0.1900 -0.7371 -0.0733
 4545TIP3    H135050   2.614   4.129  15.457 -0.6640 -0.4626  0.4737
 4545TIP3    H235051   2.667   4.198  15.581  0.9291 -0.1909 -0.3389
 4546TIP3   OH235052   3.181   0.301   2.259 -0.4140 -0.2495  0.3486
 4546TIP3    H135053   3.162   0.394   2.268  1.0380 -0.0277  1.4889
 4546TIP3    H235054   3.098   0.257   2.276 -1.0545  0.8066  0.0527
 4547TIP3   OH235055   5.022   0.362  12.857  0.4363 -0.3227  0.4363
 4547TIP3    H135056   4.979   0.309  12.925  0.4632 -1.8868 -0.7101
 4547TIP3    H235057   5.089   0.411  12.904  1.4632 -2.4902  1.3803
 4548TIP3   OH235058   4.078   0.067   5.284 -0.1533 -0.4102 -0.2677
 4548TIP3    H135059   4.156   0.020   5.313 -0.0679  0.0904  0.3317
 4548TIP3    H235060   4.058   0.127   5.356  0.4943  1.4004 -1.5131
 4549TIP3   OH235061   4.225   3.816  13.433  0.1915  0.2128  0.4476
 4549TIP3    H135062   4.199   3.744  13.489 -0.1586  0.0920  0.1373
 4549TIP3    H235063   4.319   3.826  13.447  0.5214 -1.1966 -0.5140
 4550TIP3   OH235064   3.122   0.827  13.995  0.3027 -0.5816  0.1337
 4550TIP3    H135065   3.109   0.749  14.049 -0.9017 -0.9336 -0.6169
 4550TIP3    H235066   3.092   0.802  13.908  0.2326  0.6064 -0.2122
 4551TIP3   OH235067   5.067   0.252  16.697  0.5442 -0.3425  0.0934
 4551TIP3    H135068   5.130   0.240  16.768  0.7078 -1.0133 -0.1590
 4551TIP3    H235069   5.079   0.343  16.670 -0.0819  0.1621  1.4479
 4552TIP3   OH235070   5.438   0.106   2.404  0.4298  0.1001  0.2831
 4552TIP3    H135071   5.450   0.177   2.341  0.7969  0.8081  1.1314
 4552TIP3    H235072   5.512   0.113   2.463 -1.0772  0.9456  2.1887
 4553TIP3   OH235073   1.097   1.705  10.582 -0.1369  0.1638 -0.1403
 4553TIP3    H135074   1.104   1.759  10.503 -0.6066 -0.0938 -0.3587
 4553TIP3    H235075   1.023   1.743  10.631 -2.2053 -1.8356 -1.5330
 4554TIP3   OH235076   3.410   3.575   0.758  0.5534 -0.3107  0.1580
 4554TIP3    H135077   3.439   3.637   0.825  1.2934 -0.2479 -0.2123
 4554TIP3    H235078   3.355   3.627   0.700  3.3146  0.7745 -1.7181
 4555TIP3   OH235079   2.324   4.883   3.982  0.2053 -0.2654 -0.1156
 4555TIP3    H135080   2.409   4.916   4.011  0.4805  0.1693 -1.3329
 4555TIP3    H235081   2.311   4.924   3.896 -0.4353 -1.6853 -0.7244
 4556TIP3   OH235082   2.285   2.133   3.096 -0.3023 -0.3209 -0.5307
 4556TIP3    H135083   2.224   2.206   3.086 -1.1260 -0.8634  0.3020
 4556TIP3    H235084   2.333   2.153   3.177 -2.1371 -1.7712  0.9938
 4557TIP3   OH235085   4.791   3.365  15.348 -0.0036 -0.7024 -0.2737
 4557TIP3    H135086   4.842   3.440  15.318 -1.4715  0.0062 -1.1252
 4557TIP3    H235087   4.845   3.324  15.415  0.4379  1.6788  0.9423
 4558TIP3   OH235088   5.287   4.556   0.683  0.3709 -0.1137 -0.5387
 4558TIP3    H135089   5.363   4.597   0.643 -0.8214 -1.0287 -4.1233
 4558TIP3    H235090   5.318   4.470   0.711  1.2042  0.4955  0.4779
 4559TIP3   OH235091   3.027   3.111   5.155 -0.3984  0.1450 -0.5479
 4559TIP3    H135092   2.958   3.072   5.101 -0.0948  1.1546 -1.6961
 4559TIP3    H235093   3.092   3.041   5.165 -1.3861 -0.7081  0.2533
 4560TIP3   OH235094   3.328   3.098  16.538 -0.3428  0.5544 -0.2353
 4560TIP3    H135095   3.306   3.120  16.447  0.2566  0.1361 -0.4855
 4560TIP3    H235096   3.290   3.170  16.589 -2.3696 -0.1749 -0.6238
 4561TIP3   OH235097   4.151   5.458   0.582  0.4216  0.7354  0.1476
 4561TIP3    H135098   4.207   5.516   0.531  1.2381 -0.8891 -0.8945
 4561TIP3    H235099   4.153   5.375   0.535 -0.5743 -0.2072  1.6637
 4562TIP3   OH235100   3.018   5.462  17.065 -0.0729  0.3162 -0.4093
 4562TIP3    H135101   2.938   5.490  17.109 -2.1031 -2.4249 -2.0156
 4562TIP3    H235102   3.043   5.381  17.110  0.8368  0.2835 -0.9586
 4563TIP3   OH235103   0.572   4.455   4.746  0.5388 -0.1315  0.6080
 4563TIP3    H135104   0.601   4.539   4.712 -2.2587 -0.0959 -2.1324
 4563TIP3    H235105   0.599   4.392   4.679 -0.0190 -0.9948  1.1797
 4564TIP3   OH235106   4.375   1.259   3.688 -0.0758 -0.6130 -0.0894
 4564TIP3    H135107   4.322   1.179   3.684 -0.9594 -0.0055 -1.2640
 4564TIP3    H235108   4.418   1.263   3.602  0.1419  0.0555  0.0478
 4565TIP3   OH235109   3.460   2.577   3.206  0.1269  0.5186  0.0312
 4565TIP3    H135110   3.381   2.630   3.211  0.2946  0.9192 -1.1924
 4565TIP3    H235111   3.475   2.547   3.296 -1.5394  0.2360  0.2501
 4566TIP3   OH235112   6.588   3.057  13.954 -0.1078 -1.0770 -0.1369
 4566TIP3    H135113   6.539   3.077  13.874 -0.8948 -1.5376  0.2099
 4566TIP3    H235114   6.549   3.114  14.021  0.8495 -0.3679 -0.1702
 4567TIP3   OH235115   0.613   3.410   0.810  0.1606 -0.4915  0.1027
 4567TIP3    H135116   0.564   3.327   0.810 -0.4359 -0.1496  1.0769
 4567TIP3    H235117   0.705   3.383   0.817  0.0614 -1.1057 -0.7565
 4568TIP3   OH235118   1.206   1.012   4.745 -0.0025 -0.1202  0.5872
 4568TIP3    H135119   1.256   0.982   4.821 -0.6248 -0.5066  0.8475
 4568TIP3    H235120   1.258   0.984   4.670 -0.1879 -1.1840  0.8406
 4569TIP3   OH235121   1.584   3.836  14.968 -0.7790 -0.3376 -0.4063
 4569TIP3    H135122   1.626   3.839  14.882  0.8206 -0.4368  0.3339
 4569TIP3    H235123   1.508   3.780  14.955  0.3850 -1.7735 -1.3828
 4570TIP3   OH235124   2.741   4.451  15.308 -0.4137  0.2030 -0.5855
 4570TIP3    H135125   2.649   4.447  15.335 -0.5137 -0.0262 -0.9666
 4570TIP3    H235126   2.788   4.402  15.376 -0.4276  1.2897  0.2418
 4571TIP3   OH235127   3.634   4.146   0.674  0.0737 -0.2223  0.4148
 4571TIP3    H135128   3.627   4.217   0.610 -0.2457 -0.8529 -0.2637
 4571TIP3    H235129   3.623   4.066   0.622 -0.8698 -0.7233  1.3489
 4572TIP3   OH235130   3.754   3.513  15.795 -0.3553 -0.8190 -0.0958
 4572TIP3    H135131   3.661   3.530  15.800 -0.4144 -0.6263 -1.5166
 4572TIP3    H235132   3.760   3.419  15.777 -0.3723 -0.4834 -2.0372
 4573TIP3   OH235133   2.952   2.684  13.183  0.1391 -0.2448  0.6853
 4573TIP3    H135134   2.980   2.609  13.235  0.5659 -0.3311  0.3329
 4573TIP3    H235135   3.033   2.724  13.152 -0.1021 -0.0058  0.3534
 4574TIP3   OH235136   1.239   5.639   3.200  0.0371  0.7269 -0.0392
 4574TIP3    H135137   1.213   5.570   3.261 -0.0278 -0.0136 -0.8724
 4574TIP3    H235138   1.210   5.606   3.114 -0.5333  2.0735 -0.3816
 4575TIP3   OH235139   4.054   1.195  13.802  0.2693  0.0283  0.3427
 4575TIP3    H135140   4.070   1.141  13.879 -0.5527  0.0537  0.5473
 4575TIP3    H235141   4.041   1.132  13.731  2.1863  0.0148 -0.0561
 4576TIP3   OH235142   4.155   6.761   3.261 -0.7839 -0.0682  0.8181
 4576TIP3    H135143   4.135   6.849   3.229 -0.1417  0.3261  1.4732
 4576TIP3    H235144   4.072   6.730   3.298 -1.2657 -0.1353 -0.2720
 4577TIP3   OH235145   3.874   3.946   1.870 -0.3137  0.0446 -0.2412
 4577TIP3    H135146   3.844   4.031   1.837 -0.3608  0.0394 -0.2119
 4577TIP3    H235147   3.829   3.936   1.954  0.3054  0.3526  0.1250
 4578TIP3   OH235148   3.670   0.631   4.921 -0.7757 -0.2503  0.1051
 4578TIP3    H135149   3.723   0.570   4.870 -1.8183 -0.5488 -0.6485
 4578TIP3    H235150   3.592   0.645   4.868 -0.9931  0.9908  0.7200
 4579TIP3   OH235151   6.483   1.629  14.080 -0.1876  0.5079 -0.0914
 4579TIP3    H135152   6.555   1.658  14.024  0.3110  0.6636  0.6260
 4579TIP3    H235153   6.526   1.581  14.151 -0.4916  3.2122  2.0549
 4580TIP3   OH235154   3.821   4.063   1.609 -0.2561 -0.1119  0.1455
 4580TIP3    H135155   3.748   4.113   1.646  0.3082  1.0426 -0.2557
 4580TIP3    H235156   3.779   3.994   1.559 -1.0742  0.3371  0.1819
 4581TIP3   OH235157   5.596   0.342   1.156 -0.4269  0.2452  0.3860
 4581TIP3    H135158   5.670   0.324   1.214 -0.3252 -0.5438  0.0155
 4581TIP3    H235159   5.573   0.433   1.176  1.3517  0.8982 -0.2750
 4582TIP3   OH235160   0.360   5.087  16.156 -0.0536  0.6613  0.4131
 4582TIP3    H135161   0.320   5.097  16.243  1.0739  1.1257  0.8989
 4582TIP3    H235162   0.344   4.996  16.132 -1.2682  0.8009  0.6513
 4583TIP3   OH235163   1.066   0.145   4.790  0.0351  0.3815  0.0931
 4583TIP3    H135164   1.084   0.052   4.778 -1.4731 -0.0378  0.7730
 4583TIP3    H235165   1.150   0.183   4.815  0.6176 -0.8361  0.0597
 4584TIP3   OH235166   6.297   1.915   4.264  0.1579 -0.1998  0.2585
 4584TIP3    H135167   6.320   1.991   4.318  0.8997 -0.1375 -0.1289
 4584TIP3    H235168   6.291   1.842   4.325  1.2641 -0.1849  0.4011
 4585TIP3   OH235169   3.358   2.684   3.674  0.1669  0.2835 -0.1333
 4585TIP3    H135170   3.332   2.776   3.668  2.2042  0.8758 -0.6358
 4585TIP3    H235171   3.443   2.680   3.630  0.5009 -1.6884  0.5907
 4586TIP3   OH235172   1.657   3.584   0.850 -0.4604  0.7324  0.3513
 4586TIP3    H135173   1.614   3.669   0.854 -0.8896  0.5310  0.1235
 4586TIP3    H235174   1.589   3.525   0.817  0.4681  0.7047 -1.5962
 4587TIP3   OH235175   5.875   4.453   5.001 -0.2529  0.1782  0.0909
 4587TIP3    H135176   5.844   4.381   4.945 -0.8795  0.7932 -0.3746
 4587TIP3    H235177   5.856   4.423   5.090  0.3485 -0.6251 -0.0420
 4588TIP3   OH235178   3.169   4.106   4.272  0.3406 -0.5259  0.4814
 4588TIP3    H135179   3.241   4.098   4.335 -0.3597 -0.1863  1.3492
 4588TIP3    H235180   3.095   4.137   4.324 -0.4197 -0.8013 -0.4097
 4589TIP3   OH235181   1.855   3.206  14.996  0.5831 -0.0657 -0.0423
 4589TIP3    H135182   1.811   3.280  15.038 -1.7720 -0.9897 -0.7356
 4589TIP3    H235183   1.929   3.246  14.950 -0.8150  1.9322 -0.7092
 4590TIP3   OH235184   6.677   0.027  16.825 -0.0845  0.3490 -0.4457
 4590TIP3    H135185   6.713  -0.023  16.899 -1.1241  0.0290 -0.1236
 4590TIP3    H235186   6.752   0.072  16.786  0.7410 -0.7723 -0.1922
 4591TIP3   OH235187   2.849   1.302  10.957 -0.0256 -0.0404 -0.2713
 4591TIP3    H135188   2.917   1.300  10.889 -0.2490  0.1283 -0.5027
 4591TIP3    H235189   2.778   1.248  10.920 -0.4306  0.6247 -0.4771
 4592TIP3   OH235190   5.357   6.400   6.370  0.7315  0.3343  0.9473
 4592TIP3    H135191   5.408   6.434   6.296  1.4052 -3.5855 -0.6448
 4592TIP3    H235192   5.414   6.411   6.446  0.2753  3.8783  0.9358
 4593TIP3   OH235193   0.448   1.518  16.732  0.5296  0.3944  0.6870
 4593TIP3    H135194   0.415   1.576  16.664 -0.0339 -0.8699 -0.1423
 4593TIP3    H235195   0.369   1.482  16.774  0.8462 -0.5614  0.4921
 4594TIP3   OH235196   1.318   6.466  13.144  0.5252 -0.2629 -0.8490
 4594TIP3    H135197   1.238   6.485  13.094  0.2801 -0.8061 -0.6713
 4594TIP3    H235198   1.328   6.540  13.204  1.0631  0.6233 -1.9871
 4595TIP3   OH235199   3.077   0.171   0.408  0.0878  0.0648 -0.7833
 4595TIP3    H135200   3.011   0.197   0.345 -0.3561 -0.7658 -0.6747
 4595TIP3    H235201   3.154   0.223   0.385 -1.2308  2.8249  0.5453
 4596TIP3   OH235202   2.762   5.624   2.110  0.1967  0.1080 -0.3793
 4596TIP3    H135203   2.838   5.655   2.061 -0.2884  1.1469 -0.4927
 4596TIP3    H235204   2.687   5.669   2.071 -0.7926 -2.3939 -1.6230
 4597TIP3   OH235205   6.020   5.267   5.883  0.0091  0.0606 -0.0427
 4597TIP3    H135206   6.007   5.173   5.878 -0.5462  0.1938 -1.2439
 4597TIP3    H235207   6.088   5.278   5.950  0.3944 -1.2111 -0.2098
 4598TIP3   OH235208   6.184   4.896  15.296  0.5016  0.0302  0.0092
 4598TIP3    H135209   6.201   4.948  15.217 -0.9405 -0.3360 -0.5741
 4598TIP3    H235210   6.270   4.888  15.338  1.5752 -0.8199 -2.1680
 4599TIP3   OH235211   4.098   4.775  12.302 -0.2415  0.0996 -0.6614
 4599TIP3    H135212   4.146   4.734  12.374  0.5496  0.6507 -0.8627
 4599TIP3    H235213   4.027   4.714  12.282 -0.8557  0.2346  1.0017
 4600TIP3   OH235214   1.941   3.729   6.235  0.3677 -0.5063 -0.1438
 4600TIP3    H135215   1.953   3.693   6.322  0.6041 -0.3845 -0.1253
 4600TIP3    H235216   1.972   3.820   6.242 -1.4840  0.1576  0.1695
 4601TIP3   OH235217   2.192   2.466  15.702 -0.4366  0.4359  0.7273
 4601TIP3    H135218   2.250   2.535  15.735  0.3016 -0.4358  1.3252
 4601TIP3    H235219   2.232   2.439  15.620 -2.0143  2.2783 -0.7374
 4602TIP3   OH235220   1.069   4.288   5.210  0.4994 -0.3781  0.2242
 4602TIP3    H135221   0.976   4.283   5.189  0.5382  1.5390 -0.6467
 4602TIP3    H235222   1.114   4.267   5.128  0.8733 -1.5718  0.7082
 4603TIP3   OH235223   5.881   1.238   3.405  0.1728 -0.0705 -0.4530
 4603TIP3    H135224   5.814   1.265   3.343 -0.7224 -1.2143 -0.0185
 4603TIP3    H235225   5.893   1.144   3.388 -0.6554 -0.5942  1.5988
 4604TIP3   OH235226   3.564   4.760   2.399  0.3884 -0.5039 -0.4105
 4604TIP3    H135227   3.473   4.744   2.424  0.5957 -2.4913 -0.7755
 4604TIP3    H235228   3.559   4.817   2.323 -0.4463  0.9867  0.7071
 4605TIP3   OH235229   3.629   5.472   2.198 -0.0648  0.1980  0.3362
 4605TIP3    H135230   3.719   5.470   2.229  0.8938  2.1012 -1.9713
 4605TIP3    H235231   3.615   5.386   2.160  1.1011  0.1511 -0.0328
 4606TIP3   OH235232   2.577   5.671   1.922  0.1287  0.6532  0.0358
 4606TIP3    H135233   2.526   5.748   1.899  0.6028  0.5399 -1.5604
 4606TIP3    H235234   2.584   5.622   1.840  0.7514 -0.5411  0.7742
 4607TIP3   OH235235   2.873   4.920   4.676 -0.1484 -0.1193 -0.2254
 4607TIP3    H135236   2.807   4.990   4.672  0.5239  0.6436  1.2899
 4607TIP3    H235237   2.823   4.841   4.698 -0.6162  0.3728  0.5205
 4608TIP3   OH235238   2.334   5.053   1.907  0.7796 -0.0940  0.1789
 4608TIP3    H135239   2.242   5.065   1.886  0.5922 -0.6090  0.7116
 4608TIP3    H235240   2.352   5.117   1.976  0.6833 -0.3808  0.4688
 4609TIP3   OH235241   3.202   6.229  14.432  0.1098  0.0198  0.6102
 4609TIP3    H135242   3.158   6.186  14.359  0.8418 -1.8544  1.2212
 4609TIP3    H235243   3.194   6.323  14.413  0.9375 -0.4033 -2.2607
 4610TIP3   OH235244   5.653   2.444   1.063  0.4406 -0.2021  0.4141
 4610TIP3    H135245   5.674   2.451   0.970  0.5597  2.1581  0.5394
 4610TIP3    H235246   5.719   2.499   1.106 -1.2802  1.0861  1.5586
 4611TIP3   OH235247   6.459   5.123   5.699 -0.5824 -0.0564 -0.2760
 4611TIP3    H135248   6.384   5.067   5.679  0.5855 -1.8441  0.1575
 4611TIP3    H235249   6.420   5.209   5.718 -2.7476 -1.4561  2.3083
 4612TIP3   OH235250   2.579   3.124  15.920 -0.1271  0.2763 -0.5817
 4612TIP3    H135251   2.543   3.147  16.006  0.9383 -0.1814  0.0060
 4612TIP3    H235252   2.511   3.151  15.858 -0.7611  0.9527  0.3721
 4613TIP3   OH235253   1.419   4.121   4.515  0.2328  0.5621 -0.1642
 4613TIP3    H135254   1.330   4.103   4.485 -0.6958 -0.5053  2.9178
 4613TIP3    H235255   1.433   4.213   4.492 -2.2912  1.2266  0.5719
 4614TIP3   OH235256   2.938   2.144   3.393  0.3918  0.1396  0.3629
 4614TIP3    H135257   2.866   2.194   3.355 -1.2887 -2.5569 -0.2339
 4614TIP3    H235258   3.000   2.133   3.320  0.6169  1.0370  0.4105
 4615TIP3   OH235259   3.861   2.015  15.548  0.2192 -0.6609 -0.8125
 4615TIP3    H135260   3.903   1.955  15.610 -1.7334 -2.0116 -0.6989
 4615TIP3    H235261   3.783   2.046  15.594 -1.1802 -1.5380 -2.4570
 4616TIP3   OH235262   0.885   2.937  14.080 -0.2203 -0.1093 -0.0924
 4616TIP3    H135263   0.966   2.965  14.037  0.6690 -0.0258  1.5449
 4616TIP3    H235264   0.820   2.933  14.009  1.1950 -0.1577 -1.4436
 4617TIP3   OH235265   4.653   1.085   4.357 -0.5145 -0.1282 -0.0066
 4617TIP3    H135266   4.725   1.034   4.320 -0.4127  0.8557 -1.2337
 4617TIP3    H235267   4.620   1.136   4.284 -0.8617  1.2710  1.0801
 4618TIP3   OH235268   5.986   0.572   4.699 -0.0220  0.0246 -0.0724
 4618TIP3    H135269   5.903   0.550   4.741 -0.4307  0.5520 -0.6104
 4618TIP3    H235270   5.979   0.536   4.611  0.1890  0.3770 -0.2326
 4619TIP3   OH235271   4.166   2.816   5.926  0.0532 -0.1902  0.1020
 4619TIP3    H135272   4.110   2.764   5.985  0.0740 -0.2128  0.1022
 4619TIP3    H235273   4.124   2.901   5.922  1.1305  0.4774  1.7471
 4620TIP3   OH235274   1.334   2.917   0.323 -0.0209  0.0229  0.7964
 4620TIP3    H135275   1.304   2.874   0.403 -1.0116  1.0384  0.9909
 4620TIP3    H235276   1.263   2.975   0.299  0.1325 -0.4959 -1.0173
 4621TIP3   OH235277   6.552   1.794  13.669 -0.2155  0.3463  0.4091
 4621TIP3    H135278   6.472   1.743  13.658  0.3188 -0.5935  0.8034
 4621TIP3    H235279   6.530   1.857  13.738  0.1160 -1.5714  2.4047
 4622TIP3   OH235280   6.229   0.385  15.587 -0.1493 -0.0893  0.2385
 4622TIP3    H135281   6.267   0.472  15.603 -1.3547  0.6764 -0.8493
 4622TIP3    H235282   6.171   0.398  15.512  1.9406 -2.4914 -2.0055
 4623TIP3   OH235283   0.808   0.604   3.041 -0.5254 -0.6749  0.8430
 4623TIP3    H135284   0.747   0.541   3.002 -0.6413  0.6304 -1.2039
 4623TIP3    H235285   0.757   0.645   3.111 -0.9617 -1.7408  1.1724
 4624TIP3   OH235286   0.534   2.546   5.190  0.3636 -0.6643 -0.1089
 4624TIP3    H135287   0.625   2.533   5.162  0.8058 -1.5348  1.5923
 4624TIP3    H235288   0.482   2.516   5.116  1.4498 -0.1703 -1.1083
 4625TIP3   OH235289   1.183   4.744   2.664 -0.7155 -0.1480 -0.4896
 4625TIP3    H135290   1.181   4.831   2.703 -1.5650 -0.0412 -0.7562
 4625TIP3    H235291   1.099   4.736   2.619 -0.6063 -1.0733 -0.5426
 4626TIP3   OH235292   1.121   0.430   5.139  0.4332  0.3626 -0.0974
 4626TIP3    H135293   1.195   0.488   5.156  3.1462 -2.8067 -0.0719
 4626TIP3    H235294   1.063   0.443   5.215  1.7702  1.7763  0.7370
 4627TIP3   OH235295   0.291   0.660  11.872 -0.3037 -0.5815  0.0345
 4627TIP3    H135296   0.331   0.719  11.936 -4.2987 -0.4765  2.7916
 4627TIP3    H235297   0.319   0.573  11.899  0.3333 -0.3646  0.0917
 4628TIP3   OH235298   6.056   4.295  17.177  0.2029 -0.0579 -0.3014
 4628TIP3    H135299   6.001   4.218  17.161  2.5292 -2.0486  0.5687
 4628TIP3    H235300   6.089   4.319  17.090  2.3580 -2.4834 -0.2778
 4629TIP3   OH235301   0.663   6.282  14.602  0.2637  0.0815 -0.2822
 4629TIP3    H135302   0.595   6.308  14.664 -0.8688 -4.0484  0.5311
 4629TIP3    H235303   0.651   6.340  14.527 -0.8342  2.7179  1.7953
 4630TIP3   OH235304   1.663   2.790  13.571  0.1615 -0.3579 -0.2616
 4630TIP3    H135305   1.739   2.848  13.571  0.5396 -0.8074 -1.6837
 4630TIP3    H235306   1.660   2.754  13.482 -2.0417  0.0693 -0.4202
 4631TIP3   OH235307   0.718   3.629   3.471 -0.0503  0.2026 -0.2848
 4631TIP3    H135308   0.691   3.537   3.465  0.8403 -0.1137  0.3595
 4631TIP3    H235309   0.664   3.666   3.540  1.2390 -0.4889  1.1716
 4632TIP3   OH235310   1.637   2.996   4.559  0.4225 -0.7446  0.0614
 4632TIP3    H135311   1.674   2.946   4.631 -3.6395 -0.0118  2.9536
 4632TIP3    H235312   1.574   2.936   4.518 -2.2557  0.8152  1.6289
 4633TIP3   OH235313   5.596   2.169   2.088  0.2067  0.2450 -0.0860
 4633TIP3    H135314   5.597   2.195   1.995 -0.0603 -1.1717 -0.5058
 4633TIP3    H235315   5.677   2.120   2.100 -0.9125 -1.7907 -0.2794
 4634TIP3   OH235316   4.019   6.184   3.872  1.0439  0.2897  0.4768
 4634TIP3    H135317   4.094   6.179   3.931  0.6590 -1.5917  0.8841
 4634TIP3    H235318   3.958   6.118   3.906  1.1519 -1.4814 -2.5075
 4635TIP3   OH235319   6.310   5.190  13.086 -0.4326 -0.2515  0.2680
 4635TIP3    H135320   6.352   5.180  13.172  1.0422 -0.9880 -0.5040
 4635TIP3    H235321   6.288   5.101  13.060 -2.8588  0.1295  0.7775
 4636TIP3   OH235322   4.780   2.689  16.916  0.0677 -0.7009  0.0120
 4636TIP3    H135323   4.686   2.678  16.921 -0.2178  1.1954 -0.3188
 4636TIP3    H235324   4.806   2.713  17.005  0.2606 -1.2932  0.1206
 4637TIP3   OH235325   5.748   0.499   1.977  0.1208  0.1878  0.6391
 4637TIP3    H135326   5.772   0.416   2.018 -0.3953 -1.7497 -2.5884
 4637TIP3    H235327   5.825   0.523   1.925 -1.2286 -0.7562 -1.9523
 4638TIP3   OH235328   0.876   2.621   3.080  0.3624 -0.1645 -0.0101
 4638TIP3    H135329   0.964   2.588   3.100  0.8671  0.4164 -1.1738
 4638TIP3    H235330   0.818   2.550   3.107  1.3099 -1.3166 -0.8432
 4639TIP3   OH235331   4.076   1.597  15.541  0.4543  0.2341  0.2767
 4639TIP3    H135332   4.036   1.515  15.512  1.1921  0.0354 -0.1945
 4639TIP3    H235333   4.085   1.650  15.462 -1.5927  1.4980  0.8087
 4640TIP3   OH235334   2.074   1.915   1.389 -0.0123  0.7669  0.1000
 4640TIP3    H135335   2.123   1.892   1.468  0.0978  0.9317  0.0806
 4640TIP3    H235336   2.111   1.860   1.321 -1.2737 -0.6376  0.5099
 4641TIP3   OH235337   1.892   4.912  13.357 -0.1041 -0.3018 -0.1784
 4641TIP3    H135338   1.875   4.931  13.450  0.3249  0.9611 -0.3415
 4641TIP3    H235339   1.979   4.948  13.341 -0.3956 -0.0281 -1.2017
 4642TIP3   OH235340   1.701   1.069   2.559 -0.6066  0.2127  0.7737
 4642TIP3    H135341   1.755   1.111   2.493  0.8783  0.4782  2.0903
 4642TIP3    H235342   1.717   0.976   2.547 -1.3189  0.1747 -0.0089
 4643TIP3   OH235343   3.487   6.698  13.478 -0.9797 -0.4844  0.0830
 4643TIP3    H135344   3.410   6.751  13.500  0.4666  1.2070  1.4047
 4643TIP3    H235345   3.513   6.658  13.560  0.1425 -0.1741 -0.1035
 4644TIP3   OH235346   5.324   6.658  12.034  0.3180 -0.0987  0.7804
 4644TIP3    H135347   5.377   6.598  11.981  1.4870  1.4330  0.1453
 4644TIP3    H235348   5.380   6.734  12.049 -0.3335 -0.0597  3.4555
 4645TIP3   OH235349   4.597   5.762  16.392 -0.2228  0.5951  0.2222
 4645TIP3    H135350   4.615   5.744  16.300  0.8319  2.4563  0.0192
 4645TIP3    H235351   4.605   5.857  16.400  1.6875  0.3188  2.6329
 4646TIP3   OH235352   2.854   0.290  16.901 -0.0317  0.0050 -0.1215
 4646TIP3    H135353   2.893   0.372  16.872  1.1204 -0.4598  0.0627
 4646TIP3    H235354   2.767   0.314  16.933  0.7877  1.3474  1.1756
 4647TIP3   OH235355   2.255   4.192   3.135 -0.7270 -0.2478  0.1832
 4647TIP3    H135356   2.333   4.218   3.087  2.1194  0.0020  4.3983
 4647TIP3    H235357   2.196   4.267   3.128  2.3509  2.6218  2.2861
 4648TIP3   OH235358   4.722   0.170   0.429  0.1519 -0.0546 -0.2814
 4648TIP3    H135359   4.658   0.101   0.408  0.5952  0.0260 -2.0350
 4648TIP3    H235360   4.763   0.190   0.345 -0.0261  2.4241  0.1721
 4649TIP3   OH235361   6.716   3.584   4.714 -0.6938 -0.0910 -0.3511
 4649TIP3    H135362   6.767   3.648   4.665  0.4971 -1.1173 -0.5062
 4649TIP3    H235363   6.625   3.601   4.688 -0.2598  0.5504 -1.5290
 4650TIP3   OH235364   0.364   4.556   5.341  0.5015 -0.4294 -0.5297
 4650TIP3    H135365   0.315   4.501   5.280 -0.2550 -1.1045  0.6596
 4650TIP3    H235366   0.337   4.645   5.320 -0.7213 -0.7421 -0.3522
 4651TIP3   OH235367   3.601   3.925  14.477  0.1624  0.3066  0.3150
 4651TIP3    H135368   3.553   3.901  14.557  0.3568 -0.3739  0.2360
 4651TIP3    H235369   3.693   3.914  14.501  0.2539  0.9366  0.2558
 4652TIP3   OH235370   6.754   4.455   5.635  0.1601  0.4888 -0.1146
 4652TIP3    H135371   6.768   4.469   5.541 -1.4801 -0.2279 -0.5005
 4652TIP3    H235372   6.661   4.435   5.643  0.2471  0.6122  1.6920
 4653TIP3   OH235373   2.003   5.316  15.073 -0.3269  0.6707  0.2212
 4653TIP3    H135374   2.063   5.246  15.099  0.5228  1.6155  0.8171
 4653TIP3    H235375   2.003   5.313  14.977  0.3523  0.4163  0.2276
 4654TIP3   OH235376   0.628   5.633   0.195  0.4100 -0.7014 -0.1947
 4654TIP3    H135377   0.538   5.602   0.198 -0.7942  2.4029 -0.2246
 4654TIP3    H235378   0.674   5.570   0.139 -1.9815 -1.8229 -1.0190
 4655TIP3   OH235379   6.454   4.292   2.378 -1.2742 -0.3407 -0.3167
 4655TIP3    H135380   6.400   4.216   2.360 -1.7749 -0.4918  1.6258
 4655TIP3    H235381   6.392   4.365   2.386 -1.0405 -0.1910  0.2178
 4656TIP3   OH235382   1.112   2.303  16.319 -0.6847 -0.5036 -0.5957
 4656TIP3    H135383   1.123   2.222  16.270  0.4108 -0.5624 -0.2865
 4656TIP3    H235384   1.083   2.367  16.255  1.0141 -0.4964 -1.4217
 4657TIP3   OH235385   1.882   0.874  12.512  0.6388 -0.1670 -0.0418
 4657TIP3    H135386   1.882   0.814  12.587  0.9610  0.1802  0.2400
 4657TIP3    H235387   1.864   0.960  12.550 -2.1695 -0.3786 -0.7224
 4658TIP3   OH235388   0.443   0.708   2.353  0.2755 -0.3100  0.6584
 4658TIP3    H135389   0.450   0.763   2.431  2.2040  0.0610  0.2624
 4658TIP3    H235390   0.401   0.764   2.288 -0.4530 -0.3002  1.1297
 4659TIP3   OH235391   5.645   2.571   4.227  0.7564 -0.0358 -0.1457
 4659TIP3    H135392   5.660   2.551   4.134  0.0795 -0.2925 -0.2106
 4659TIP3    H235393   5.589   2.500   4.258 -2.9401  2.2709 -0.7602
 4660TIP3   OH235394   1.845   1.954  12.428 -0.2483  0.2861 -0.1718
 4660TIP3    H135395   1.883   1.890  12.368 -0.0515  0.0914  0.1585
 4660TIP3    H235396   1.806   2.020  12.371 -0.9578 -0.4132 -0.5324
 4661TIP3   OH235397   1.407   1.847   2.487  0.0320 -0.0858 -0.3493
 4661TIP3    H135398   1.450   1.882   2.409  0.6926 -1.5186 -0.6579
 4661TIP3    H235399   1.315   1.874   2.479  0.4834  1.4311 -0.6230
 4662TIP3   OH235400   3.718   6.186  15.832 -0.2560  0.0932 -0.1229
 4662TIP3    H135401   3.630   6.226  15.832 -0.8188 -1.0759  0.6897
 4662TIP3    H235402   3.776   6.256  15.801 -1.2502  1.4056  0.8564
 4663TIP3   OH235403   0.874   3.063   3.853  0.0783 -0.1559 -0.1475
 4663TIP3    H135404   0.821   2.984   3.860  1.8368 -1.4863 -0.9702
 4663TIP3    H235405   0.946   3.050   3.914  0.8337  0.4215 -0.8765
 4664TIP3   OH235406   5.223   0.353   0.634  0.1638  0.6302  0.4323
 4664TIP3    H135407   5.231   0.332   0.727 -2.0087  1.9998  1.0144
 4664TIP3    H235408   5.173   0.280   0.598 -1.8135  1.5559  1.1038
 4665TIP3   OH235409   1.623   0.540   5.534 -0.3349 -0.2069 -0.2414
 4665TIP3    H135410   1.527   0.535   5.529 -0.3290 -3.5547  0.2287
 4665TIP3    H235411   1.645   0.489   5.612  1.8251  2.0958  0.8038
 4666TIP3   OH235412   1.514   3.167  16.158 -0.0335  0.0707 -1.2701
 4666TIP3    H135413   1.534   3.226  16.085  2.0457  1.1411  0.0685
 4666TIP3    H235414   1.533   3.219  16.236  0.8425 -2.0448 -0.0047
 4667TIP3   OH235415   1.435   3.030  11.406 -0.3161 -0.1634 -0.8012
 4667TIP3    H135416   1.380   3.107  11.417 -0.9123 -0.4484 -1.7118
 4667TIP3    H235417   1.521   3.057  11.439 -1.1628  0.0356  1.4065
 4668TIP3   OH235418   5.627   0.046   5.301 -0.0235  0.3157 -0.0883
 4668TIP3    H135419   5.639  -0.039   5.260 -0.8653 -0.2007  0.7163
 4668TIP3    H235420   5.542   0.041   5.345  1.4797  0.2555  3.0899
 4669TIP3   OH235421   6.132   6.512  16.428  0.2212 -0.5910 -0.3347
 4669TIP3    H135422   6.095   6.447  16.489 -0.4924 -0.6099 -0.7787
 4669TIP3    H235423   6.062   6.576  16.416  0.1697 -0.8389 -1.4991
 4670TIP3   OH235424   3.322   1.736  13.594  0.0481  0.3282 -0.5802
 4670TIP3    H135425   3.352   1.822  13.623 -1.4001  1.5637 -2.5054
 4670TIP3    H235426   3.230   1.749  13.570 -0.0803 -1.6409 -1.3791
 4671TIP3   OH235427   1.828   5.537  12.818 -0.2542 -0.3792  0.1907
 4671TIP3    H135428   1.836   5.623  12.858 -1.1333 -0.2077  0.0294
 4671TIP3    H235429   1.839   5.475  12.890 -0.6636 -0.1042  0.4888
 4672TIP3   OH235430   4.465   3.836  16.596 -0.1320 -0.4513 -0.2149
 4672TIP3    H135431   4.383   3.812  16.640  0.4926 -1.6464  0.3367
 4672TIP3    H235432   4.461   3.790  16.512 -0.2724 -0.0283 -0.4490
 4673TIP3   OH235433   3.011   3.319   0.378  0.0358  0.5832 -0.1603
 4673TIP3    H135434   2.936   3.340   0.322 -0.5386  3.0893  1.4043
 4673TIP3    H235435   2.991   3.360   0.462  2.2597 -0.4415  0.9597
 4674TIP3   OH235436   6.196   1.740   5.437  0.1655  0.1668 -0.3420
 4674TIP3    H135437   6.189   1.726   5.531  1.5275 -0.7339 -0.3426
 4674TIP3    H235438   6.176   1.654   5.399  2.3758 -0.2333 -0.7000
 4675TIP3   OH235439   0.750   0.094  15.036 -0.6872 -0.3529 -0.4337
 4675TIP3    H135440   0.677   0.094  15.099  1.2900 -2.1388  2.0681
 4675TIP3    H235441   0.820   0.140  15.082 -0.0825  1.1746 -2.7220
 4676TIP3   OH235442   5.238   1.362  16.317  0.1486 -0.2605 -0.0110
 4676TIP3    H135443   5.305   1.418  16.278  0.5947  0.0278  1.1231
 4676TIP3    H235444   5.285   1.309  16.380 -0.4978 -0.9684 -0.1078
 4677TIP3   OH235445   3.928   5.815  14.504 -0.2655 -0.1992  0.0138
 4677TIP3    H135446   3.864   5.844  14.568  0.3589 -1.8131  1.4456
 4677TIP3    H235447   4.012   5.817  14.550  0.2747 -0.8919 -0.8938
 4678TIP3   OH235448   3.760   3.672   1.333 -0.1088  0.2243  0.7412
 4678TIP3    H135449   3.801   3.662   1.247 -0.7736 -1.5324  0.5835
 4678TIP3    H235450   3.692   3.604   1.336 -0.1570  0.2856  2.6300
 4679TIP3   OH235451   5.307   2.475  11.636 -0.4836  0.5139 -0.5728
 4679TIP3    H135452   5.313   2.547  11.699 -1.0960 -0.8467  1.1153
 4679TIP3    H235453   5.286   2.398  11.689 -1.3332 -0.6451 -2.4770
 4680TIP3   OH235454   2.605   1.014  12.516  0.0977 -0.0181 -0.3077
 4680TIP3    H135455   2.541   0.943  12.516 -0.0335  0.0786  0.6770
 4680TIP3    H235456   2.589   1.061  12.435 -2.4990  1.2202  0.8014
 4681TIP3   OH235457   1.527   5.594  16.473 -0.3548  0.1986 -0.1574
 4681TIP3    H135458   1.481   5.677  16.484 -1.7632 -0.7638  1.7700
 4681TIP3    H235459   1.459   5.532  16.445  0.1597 -0.7977  0.7179
 4682TIP3   OH235460   3.025   5.682   5.894 -0.5021  0.3824 -0.3286
 4682TIP3    H135461   3.062   5.634   5.968 -1.6107  2.0399  1.4070
 4682TIP3    H235462   3.004   5.769   5.930  0.7971  1.9781 -3.1296
 4683TIP3   OH235463   5.820   1.195   5.274 -0.6386 -0.4002  0.3658
 4683TIP3    H135464   5.814   1.289   5.290 -1.0303 -0.1831 -0.9212
 4683TIP3    H235465   5.799   1.185   5.181  1.1753 -1.5664  0.0236
 4684TIP3   OH235466   5.360   4.554  17.125 -0.5185 -0.4683  0.0213
 4684TIP3    H135467   5.274   4.511  17.134 -1.3291  1.5351  4.1754
 4684TIP3    H235468   5.339   4.642  17.093  0.0443 -0.2080  0.3621
 4685TIP3   OH235469   1.802   4.345  12.042 -0.1039  0.0010 -0.1651
 4685TIP3    H135470   1.789   4.252  12.023 -0.4404 -0.1948  0.9476
 4685TIP3    H235471   1.784   4.389  11.959  2.1017 -1.0461 -1.2992
 4686TIP3   OH235472   6.677   4.344  14.284  0.0519 -0.1739  0.3122
 4686TIP3    H135473   6.630   4.262  14.292  0.2537 -0.5755 -2.0421
 4686TIP3    H235474   6.747   4.338  14.349 -1.0288 -1.0342  1.4439
 4687TIP3   OH235475   5.442   3.824   0.716 -0.3921  0.1797  0.2116
 4687TIP3    H135476   5.455   3.749   0.775 -0.4847  0.2737  0.3505
 4687TIP3    H235477   5.400   3.890   0.770 -0.6144  0.2120 -0.0007
 4688TIP3   OH235478   0.411   5.051  13.402  0.1530  0.1420  0.3093
 4688TIP3    H135479   0.359   4.971  13.405 -1.0558  0.8392 -0.8648
 4688TIP3    H235480   0.477   5.034  13.336 -0.5379  0.3438 -0.4457
 4689TIP3   OH235481   4.831   0.510   6.109 -0.2637 -0.4237  0.5995
 4689TIP3    H135482   4.793   0.479   6.191  0.1184 -0.0025  0.9431
 4689TIP3    H235483   4.826   0.605   6.114 -0.8424 -0.4011 -0.1654
 4690TIP3   OH235484   0.388   4.186  15.513  0.1919 -0.3141  0.0993
 4690TIP3    H135485   0.299   4.184  15.548 -0.2633  0.8950 -0.8847
 4690TIP3    H235486   0.434   4.115  15.558 -1.0236 -0.3963  1.2678
 4691TIP3   OH235487   4.136   1.670   3.594  0.0329 -0.1363  0.6139
 4691TIP3    H135488   4.201   1.692   3.528  0.3076  0.3055  1.0241
 4691TIP3    H235489   4.185   1.621   3.660 -0.4587 -1.5069 -0.0168
 4692TIP3   OH235490   5.124   4.480   3.342  0.2244 -0.2161 -0.5225
 4692TIP3    H135491   5.175   4.422   3.400  0.3369  0.2509 -0.1417
 4692TIP3    H235492   5.163   4.467   3.256 -0.1720 -1.1884 -0.5728
 4693TIP3   OH235493   6.373   6.367   2.860 -0.4002  0.0397  0.3497
 4693TIP3    H135494   6.308   6.428   2.893 -1.7734  0.8098 -3.3420
 4693TIP3    H235495   6.334   6.329   2.782  2.0894 -2.4812  0.1487
 4694TIP3   OH235496   6.789   0.353  12.409 -0.0573 -0.1587  0.4119
 4694TIP3    H135497   6.772   0.446  12.427 -0.8737  0.1766 -1.7568
 4694TIP3    H235498   6.710   0.309  12.440 -0.7115  0.2003 -0.6673
 4695TIP3   OH235499   1.978   0.942  13.125 -0.6564 -0.0508 -0.2101
 4695TIP3    H135500   2.025   0.982  13.051 -0.3969  0.9695  0.4823
 4695TIP3    H235501   1.894   0.915  13.089 -0.2904 -0.1325 -1.0226
 4696TIP3   OH235502   3.264   6.485  15.113  0.3142  0.0653  0.1204
 4696TIP3    H135503   3.219   6.424  15.054 -0.0474 -1.8291  2.1982
 4696TIP3    H235504   3.239   6.572  15.082 -0.6605 -0.8535 -1.8641
 4697TIP3   OH235505   1.650   3.674   0.288  0.1278 -0.5974 -0.4360
 4697TIP3    H135506   1.662   3.769   0.295 -0.9541 -0.1914 -2.8501
 4697TIP3    H235507   1.632   3.645   0.377  0.4925  1.4535  0.3595
 4698TIP3   OH235508   4.464   0.632   0.299 -0.3277 -0.1290  0.3953
 4698TIP3    H135509   4.488   0.711   0.348 -1.1693  0.2070  0.2708
 4698TIP3    H235510   4.441   0.568   0.367  2.7315 -1.1389  0.6531
 4699TIP3   OH235511   1.346   1.675  12.986  0.3463  0.1948  0.7293
 4699TIP3    H135512   1.398   1.661  13.066 -0.9161 -1.3245  1.3309
 4699TIP3    H235513   1.281   1.605  12.987  0.2243  0.1959 -1.6052
 4700TIP3   OH235514   5.394   1.099  10.877 -0.2862 -0.3512  0.1778
 4700TIP3    H135515   5.354   1.137  10.800  0.1552  1.0986  0.6345
 4700TIP3    H235516   5.441   1.171  10.919  0.2994 -1.3152  1.2751
 4701TIP3   OH235517   3.564   4.055  15.650 -0.1813  0.2412 -0.4702
 4701TIP3    H135518   3.651   4.056  15.610  1.0412 -0.8077  1.9647
 4701TIP3    H235519   3.564   4.130  15.710 -0.9404  0.2132 -0.4280
 4702TIP3   OH235520   1.994   5.639   6.256  0.4260  1.3177 -0.7972
 4702TIP3    H135521   1.986   5.697   6.331 -0.2963 -0.7091  0.7938
 4702TIP3    H235522   2.004   5.697   6.181  1.8821  3.4352  0.9060
 4703TIP3   OH235523   5.669   0.265   0.512 -0.3193  0.4479  0.9255
 4703TIP3    H135524   5.715   0.221   0.440 -0.5742  1.5394  0.0639
 4703TIP3    H235525   5.586   0.217   0.521  0.1057 -0.2561  1.1103
 4704TIP3   OH235526   3.579   4.348  10.914  0.1038  0.6730 -0.4304
 4704TIP3    H135527   3.653   4.302  10.953  0.6660  2.8345  1.2275
 4704TIP3    H235528   3.514   4.279  10.897  1.2454 -0.8492  1.0686
 4705TIP3   OH235529   3.652   3.553   3.539 -0.2411  0.1414  0.8437
 4705TIP3    H135530   3.602   3.512   3.468  0.9868  1.9504 -1.1896
 4705TIP3    H235531   3.740   3.517   3.530 -0.0530  0.4460  1.4256
 4706TIP3   OH235532   1.688   2.130  12.269  0.3789  0.3011  0.1106
 4706TIP3    H135533   1.659   2.122  12.360 -0.7307  0.2968 -0.2299
 4706TIP3    H235534   1.617   2.178  12.225  0.8270  0.1645 -0.7872
 4707TIP3   OH235535   2.109   1.404   2.242  0.2962 -0.4251 -0.3647
 4707TIP3    H135536   2.070   1.405   2.329 -1.4241  0.7680 -1.0910
 4707TIP3    H235537   2.183   1.344   2.249  0.8115  0.4094  2.1652
 4708TIP3   OH235538   5.275   3.680   5.922 -0.3234  0.3034  0.6259
 4708TIP3    H135539   5.323   3.754   5.958  0.5169  2.2644 -3.8471
 4708TIP3    H235540   5.330   3.604   5.941  1.6745  1.6785  0.5554
 4709TIP3   OH235541   0.021   2.634   4.878 -0.3729  0.4995  0.9682
 4709TIP3    H135542   0.030   2.631   4.782 -0.7133  0.8005  0.9263
 4709TIP3    H235543  -0.015   2.548   4.901 -0.6751  0.5724  0.7808
 4710TIP3   OH235544   6.093   4.800   5.091 -0.5177 -0.3606  0.3637
 4710TIP3    H135545   6.034   4.874   5.107  0.5511 -0.0828  3.8114
 4710TIP3    H235546   6.177   4.840   5.070 -0.0327 -0.5771  1.8396
 4711TIP3   OH235547   3.555   0.429   5.867  0.4928  0.4026 -0.2887
 4711TIP3    H135548   3.530   0.509   5.913 -0.1798  0.9013 -1.4546
 4711TIP3    H235549   3.619   0.387   5.924  2.0876  2.5606 -0.3167
 4712TIP3   OH235550   3.754   0.437   4.101  0.0789  0.7107 -0.2110
 4712TIP3    H135551   3.734   0.510   4.043 -0.3187  2.0789  1.5344
 4712TIP3    H235552   3.683   0.438   4.165  1.4053  0.4143  1.3284
 4713TIP3   OH235553   0.767   2.946  14.717  0.1876 -0.5855 -0.2831
 4713TIP3    H135554   0.726   2.940  14.631 -1.1357 -1.3375  0.3553
 4713TIP3    H235555   0.800   3.035  14.722  0.1676 -0.4970 -1.5164
 4714TIP3   OH235556   1.474   1.103   5.738  0.3677 -0.1083  0.4226
 4714TIP3    H135557   1.475   1.130   5.830 -0.6008  0.8178  0.1948
 4714TIP3    H235558   1.405   1.157   5.699  0.5647 -0.7000 -0.7846
 4715TIP3   OH235559   1.438   5.271  14.958  0.0615  0.0622  0.2658
 4715TIP3    H135560   1.363   5.279  15.016 -0.5705 -0.1821 -0.4908
 4715TIP3    H235561   1.514   5.280  15.015 -0.5383  1.6004  0.8529
 4716TIP3   OH235562   2.623   6.050  14.455  0.2665  0.3609 -0.1948
 4716TIP3    H135563   2.540   6.088  14.483 -1.7172 -1.2577 -3.2791
 4716TIP3    H235564   2.671   6.124  14.418  1.8244  1.9795  4.3292
 4717TIP3   OH235565   0.437   2.020  16.546  0.7257  0.0323  1.0820
 4717TIP3    H135566   0.437   1.962  16.623  2.0422 -0.8780  0.4430
 4717TIP3    H235567   0.467   1.964  16.474 -2.7057  0.1728 -0.6954
 4718TIP3   OH235568   1.077   0.998  11.255 -0.1194 -0.0523 -0.3141
 4718TIP3    H135569   1.067   0.907  11.283  1.4262  0.3479  1.7613
 4718TIP3    H235570   1.110   0.991  11.165  0.5628 -1.5745  0.0156
 4719TIP3   OH235571   3.265   1.733  13.955  0.4144 -0.6168  0.1461
 4719TIP3    H135572   3.245   1.704  14.044 -0.4345 -0.9888 -0.1561
 4719TIP3    H235573   3.323   1.665  13.920  0.7126 -0.4932  0.3945
 4720TIP3   OH235574   4.458   2.732   2.536 -0.7044  0.2031 -0.2734
 4720TIP3    H135575   4.510   2.784   2.597  0.0059  0.9660 -1.4638
 4720TIP3    H235576   4.481   2.641   2.556 -1.0835  0.3830  1.0778
 4721TIP3   OH235577   0.815   6.161   3.968 -0.6198 -0.1536  0.0644
 4721TIP3    H135578   0.798   6.232   4.030 -2.0483 -0.5135  0.1306
 4721TIP3    H235579   0.832   6.085   4.024  0.4077  0.0120 -0.0068
 4722TIP3   OH235580   4.186   0.060   3.958  0.3284  0.4806  1.0760
 4722TIP3    H135581   4.094   0.050   3.981 -0.1247  3.1705  0.7658
 4722TIP3    H235582   4.191   0.146   3.914  2.9213  0.2735  0.7812
 4723TIP3   OH235583   6.060   4.453  13.549 -0.1170 -0.6299 -0.3538
 4723TIP3    H135584   6.102   4.497  13.475 -0.0970 -0.3949 -0.2013
 4723TIP3    H235585   6.124   4.389  13.578  0.9249  0.9660  1.0624
 4724TIP3   OH235586   6.314   2.836  11.743 -0.1822  0.0719 -0.4287
 4724TIP3    H135587   6.293   2.752  11.704  1.6850 -1.0898  0.9121
 4724TIP3    H235588   6.238   2.856  11.799 -0.8381 -0.4469 -1.1127
 4725TIP3   OH235589   1.200   1.809   0.483  0.1423  0.0122 -0.1623
 4725TIP3    H135590   1.254   1.862   0.542 -0.5563 -0.8631  1.3213
 4725TIP3    H235591   1.262   1.749   0.442  0.5250  0.0788  0.3053
 4726TIP3   OH235592   5.761   1.059   1.241  0.2742  0.2404 -0.3033
 4726TIP3    H135593   5.683   1.050   1.187  0.6984  2.7568 -1.4794
 4726TIP3    H235594   5.730   1.092   1.325 -0.0342 -0.1113 -0.2775
 4727TIP3   OH235595   4.916   2.105   1.960  0.0174 -0.2220 -0.3760
 4727TIP3    H135596   4.972   2.129   2.034 -0.0269  2.5162 -1.1401
 4727TIP3    H235597   4.951   2.021   1.929  0.9523 -0.7030  1.7789
 4728TIP3   OH235598   4.373   0.678  17.072 -0.4567  0.3319 -0.4583
 4728TIP3    H135599   4.369   0.582  17.077 -0.1665  0.3931  1.7614
 4728TIP3    H235600   4.466   0.697  17.061 -0.3324  0.3784  0.5872
 4729TIP3   OH235601   6.137   2.848  13.772  0.8856  0.6365 -0.3376
 4729TIP3    H135602   6.158   2.924  13.717  0.3191 -0.7727 -2.6279
 4729TIP3    H235603   6.192   2.778  13.739 -0.0532 -0.4743  0.3749
 4730TIP3   OH235604   1.578   6.173  15.730 -0.2028 -0.0930  0.7530
 4730TIP3    H135605   1.603   6.264  15.745  0.6634 -0.4418  1.5488
 4730TIP3    H235606   1.655   6.133  15.692 -1.0802 -0.1669 -1.0395
 4731TIP3   OH235607   1.148   4.449  13.590  0.2815 -0.1792 -0.1942
 4731TIP3    H135608   1.094   4.427  13.666  0.9475 -1.2369 -0.0066
 4731TIP3    H235609   1.227   4.488  13.628  0.4833 -0.4263 -0.3607
 4732TIP3   OH235610   1.064   1.156  15.128 -0.0825  0.1594  0.2202
 4732TIP3    H135611   1.021   1.103  15.060  2.2911 -1.1632 -0.3591
 4732TIP3    H235612   1.124   1.095  15.171 -0.8196  1.2143  2.9095
 4733TIP3   OH235613   1.530   4.914   4.777  0.1715 -0.2359 -0.2312
 4733TIP3    H135614   1.622   4.891   4.770 -0.6659 -3.9974 -1.1956
 4733TIP3    H235615   1.511   4.908   4.871  0.7258 -0.3233 -0.1240
 4734TIP3   OH235616   2.583   0.539   2.683 -0.6294  0.2755 -0.4618
 4734TIP3    H135617   2.583   0.443   2.687  0.5968  0.3059  0.7444
 4734TIP3    H235618   2.531   0.566   2.759  0.3709  0.5771  0.1256
 4735TIP3   OH235619   1.282   5.274   0.697  0.1184 -0.0211 -0.6538
 4735TIP3    H135620   1.220   5.228   0.641 -1.8674  2.3023 -0.5829
 4735TIP3    H235621   1.321   5.340   0.640  0.1924  0.5346  0.0232
 4736TIP3   OH235622   5.629   2.978   4.474 -0.1197 -0.1362  0.2721
 4736TIP3    H135623   5.716   2.941   4.487  0.4322  1.2939  0.7943
 4736TIP3    H235624   5.579   2.907   4.432  1.3824 -0.8623 -0.3723
 4737TIP3   OH235625   0.345   2.726  14.085  0.0310 -0.4393  0.0005
 4737TIP3    H135626   0.372   2.787  14.154 -1.7170 -0.3954  0.7092
 4737TIP3    H235627   0.274   2.772  14.040  0.4438 -0.9100 -1.1642
 4738TIP3   OH235628   4.959   4.170   1.072 -0.1969 -0.1893 -0.1430
 4738TIP3    H135629   4.996   4.115   1.003  1.9880 -0.5275  1.2169
 4738TIP3    H235630   5.010   4.250   1.069 -1.1343  0.4286  0.0906
 4739TIP3   OH235631   4.158   3.992   1.473 -0.2953 -0.5148  0.7257
 4739TIP3    H135632   4.088   3.955   1.420 -0.8579  0.8555  0.4777
 4739TIP3    H235633   4.189   4.067   1.423  0.3450 -0.2229  1.5354
 4740TIP3   OH235634   3.243   5.008  15.238 -0.2010 -0.2977  0.0915
 4740TIP3    H135635   3.246   4.962  15.322 -1.5111  0.2624  0.4751
 4740TIP3    H235636   3.212   5.096  15.260 -3.6203 -1.0109 -1.2535
 4741TIP3   OH235637   5.418   5.302  10.832 -0.3530  0.2623  1.1597
 4741TIP3    H135638   5.331   5.263  10.830  0.4301 -1.5293  0.6831
 4741TIP3    H235639   5.468   5.254  10.766  0.8393  1.6892  0.9756
 4742TIP3   OH235640   2.165   3.289   5.810 -0.4420 -0.0181 -0.0339
 4742TIP3    H135641   2.172   3.384   5.820 -0.5614 -0.0048 -0.0820
 4742TIP3    H235642   2.251   3.256   5.837 -0.6846  0.0373  0.8327
 4743TIP3   OH235643   5.787   3.112  13.863  0.4547 -0.3907 -0.3671
 4743TIP3    H135644   5.844   3.036  13.876  0.7919 -0.1415 -0.3702
 4743TIP3    H235645   5.779   3.120  13.768 -0.0392 -0.7589 -0.3582
 4744TIP3   OH235646   3.991   0.818  12.146  0.5164 -0.1297 -0.0055
 4744TIP3    H135647   4.036   0.901  12.160 -0.3375  0.5031 -0.8515
 4744TIP3    H235648   4.009   0.795  12.055  1.4886 -1.3509  0.4759
 4745TIP3   OH235649   3.523   2.579   0.762 -0.0205 -0.2815 -0.1571
 4745TIP3    H135650   3.454   2.557   0.824 -0.7350 -1.1344 -1.2296
 4745TIP3    H235651   3.477   2.613   0.686  0.8243  0.3073 -0.4261
 4746TIP3   OH235652   2.957   6.166  13.162  0.6846  0.0561  0.0384
 4746TIP3    H135653   2.993   6.115  13.234 -1.6481 -2.4734 -0.3953
 4746TIP3    H235654   2.923   6.100  13.101 -3.1492  2.0082 -0.2669
 4747TIP3   OH235655   4.550   1.681   0.830  0.5942 -0.1702  0.2087
 4747TIP3    H135656   4.561   1.724   0.915 -0.2499  0.6981 -0.1067
 4747TIP3    H235657   4.495   1.605   0.848 -0.3680  0.5279  0.3043
 4748TIP3   OH235658   2.792   0.592   0.415 -0.1819  1.0031  0.5735
 4748TIP3    H135659   2.810   0.588   0.509 -0.6616 -1.2799  0.6364
 4748TIP3    H235660   2.818   0.680   0.389  2.2677  0.9164  2.3708
 4749TIP3   OH235661   0.830   0.106  12.107  0.0546  0.4530 -0.6668
 4749TIP3    H135662   0.797   0.146  12.026 -1.9650  0.7873  0.2796
 4749TIP3    H235663   0.852   0.180  12.163  0.3918  0.2136 -0.4796
 4750TIP3   OH235664   0.389   1.571   1.026  0.2729  0.1934 -0.5640
 4750TIP3    H135665   0.481   1.588   1.048 -0.0904 -1.9898  3.5910
 4750TIP3    H235666   0.345   1.655   1.039  1.2267  0.5298  0.6069
 4751TIP3   OH235667   3.165   3.298  15.977  0.1141  0.2546 -0.0918
 4751TIP3    H135668   3.187   3.353  16.052 -0.0660 -0.4341  0.4807
 4751TIP3    H235669   3.174   3.355  15.901  1.0192  0.7637  0.3868
 4752TIP3   OH235670   6.056   3.346   5.566  0.1849  0.0681  0.2400
 4752TIP3    H135671   6.047   3.258   5.527  1.5140  0.5901 -1.3675
 4752TIP3    H235672   6.150   3.355   5.582  0.2093  1.5786 -0.6132
 4753TIP3   OH235673   6.386   0.307  13.690  0.4301 -0.2936 -0.5329
 4753TIP3    H135674   6.316   0.287  13.627 -0.7281  1.0351  0.2628
 4753TIP3    H235675   6.365   0.395  13.721  1.6237 -0.4654  0.8500
 4754TIP3   OH235676   3.515   3.196  16.027  0.4548  0.2634  0.0405
 4754TIP3    H135677   3.419   3.197  16.020  0.4523 -0.7441 -0.2350
 4754TIP3    H235678   3.533   3.241  16.110 -0.1104  2.5498 -0.9770
 4755TIP3   OH235679   0.547   2.434   3.662  0.3940 -0.4668  0.0679
 4755TIP3    H135680   0.542   2.339   3.666  0.0645 -0.5959 -2.1117
 4755TIP3    H235681   0.457   2.463   3.651  0.5667  0.0352 -0.0712
 4756TIP3   OH235682   4.233   1.637  10.869 -0.3287 -0.0320  0.6774
 4756TIP3    H135683   4.307   1.576  10.870 -0.4959 -0.2336  0.9344
 4756TIP3    H235684   4.157   1.582  10.846 -0.3658  0.2114  0.1977
 4757TIP3   OH235685   5.032   1.660   5.738 -0.4416  0.3375  0.5160
 4757TIP3    H135686   5.068   1.692   5.821 -1.1917  2.5248  0.0547
 4757TIP3    H235687   5.102   1.606   5.701  0.6652  0.9322  1.6769
 4758TIP3   OH235688   2.601   3.501  14.601 -0.3209  0.3425 -0.0070
 4758TIP3    H135689   2.557   3.554  14.667 -1.1458 -1.3675  0.8808
 4758TIP3    H235690   2.554   3.520  14.520  0.6706  2.4263 -0.1650
 4759TIP3   OH235691   6.368   3.251   2.743 -0.2501 -0.2909  0.1449
 4759TIP3    H135692   6.362   3.291   2.656 -1.0354 -0.0057  0.3154
 4759TIP3    H235693   6.460   3.256   2.766 -0.2124  0.6963 -0.1827
 4760TIP3   OH235694   0.745   2.989  11.294  0.2688 -0.5645  0.1399
 4760TIP3    H135695   0.791   2.920  11.341  0.3806 -0.6745 -0.1282
 4760TIP3    H235696   0.814   3.052  11.271 -0.0299  0.3243  1.5734
 4761TIP3   OH235697   3.615   6.221   5.424  0.1039 -0.2836 -0.0510
 4761TIP3    H135698   3.638   6.267   5.343  0.0477  2.4893  1.3806
 4761TIP3    H235699   3.700   6.193   5.460  0.2574 -0.1246 -0.2879
 4762TIP3   OH235700   5.818   2.152  17.031 -0.2162 -0.6847  0.0376
 4762TIP3    H135701   5.849   2.074  17.077 -0.9313 -1.4410 -0.7099
 4762TIP3    H235702   5.733   2.171  17.071 -0.5945 -1.0263 -0.5877
 4763TIP3   OH235703   6.548   3.600  13.678 -0.3344  0.5083 -0.2268
 4763TIP3    H135704   6.595   3.563  13.752 -0.6190  1.9782  0.7321
 4763TIP3    H235705   6.493   3.669  13.716  0.3034  2.0305 -1.8897
 4764TIP3   OH235706   2.102   4.104   2.636 -0.5907 -0.1195 -0.3423
 4764TIP3    H135707   2.077   4.114   2.545 -1.2224  0.9512 -0.0654
 4764TIP3    H235708   2.030   4.054   2.675 -0.4887 -0.2765 -0.3543
 4765TIP3   OH235709   0.576   0.851  16.850 -0.1139 -0.1748  0.3819
 4765TIP3    H135710   0.506   0.916  16.860  1.1150  1.2252  0.2713
 4765TIP3    H235711   0.576   0.802  16.932 -0.8835  0.1406  0.5802
 4766TIP3   OH235712   1.021   1.454  14.989 -0.1034  0.1614  0.0285
 4766TIP3    H135713   0.988   1.509  15.060  0.5333  0.2241  0.2798
 4766TIP3    H235714   0.992   1.498  14.910 -0.3365  0.3968  0.2418
 4767TIP3   OH235715   1.286   5.719   5.983 -0.2118  0.0259  0.5709
 4767TIP3    H135716   1.234   5.640   5.966  0.2146 -0.1843  0.2364
 4767TIP3    H235717   1.246   5.786   5.926 -0.1906 -0.1070  0.3973
 4768TIP3   OH235718   3.408   6.259  16.623 -0.1350 -0.1407 -1.1059
 4768TIP3    H135719   3.416   6.167  16.596  0.6490 -0.7809  1.0621
 4768TIP3    H235720   3.486   6.301  16.588  0.6382 -0.8462 -0.3055
 4769TIP3   OH235721   5.397   6.592  13.289  0.5617 -0.2338  0.1899
 4769TIP3    H135722   5.314   6.549  13.311  0.0637 -0.3243 -1.6847
 4769TIP3    H235723   5.447   6.525  13.241  0.9605  0.3911 -0.2787
 4770TIP3   OH235724   4.820   4.053  10.957 -0.1267 -0.0223 -0.3014
 4770TIP3    H135725   4.900   4.071  10.908  2.4186 -0.8652  3.1836
 4770TIP3    H235726   4.827   3.962  10.983 -2.7727 -0.4185 -0.6361
 4771TIP3   OH235727   6.428   4.367   1.394  0.1434  0.2867 -0.2980
 4771TIP3    H135728   6.435   4.271   1.386  1.5251  0.4720 -2.0766
 4771TIP3    H235729   6.512   4.393   1.433  0.3784  0.8522 -1.1388
 4772TIP3   OH235730   5.928   6.236   5.478  0.0910  0.0654  0.6138
 4772TIP3    H135731   5.994   6.190   5.530  0.6262 -0.5148 -0.5475
 4772TIP3    H235732   5.886   6.167   5.427 -0.7605  0.5632  0.6256
 4773TIP3   OH235733   2.938   2.300   2.451 -0.1236  0.0335 -0.1322
 4773TIP3    H135734   2.894   2.274   2.532 -0.8045  0.9800 -0.1802
 4773TIP3    H235735   2.888   2.375   2.419  0.7393  0.3059 -0.9036
 4774TIP3   OH235736   3.281   4.371  11.330 -0.6485 -0.1837  0.1763
 4774TIP3    H135737   3.247   4.331  11.250 -1.9078  1.3573 -0.1193
 4774TIP3    H235738   3.204   4.406  11.374 -0.1075 -1.8500  2.6353
 4775TIP3   OH235739   1.874   6.704  14.078  0.3013 -0.7016 -0.3839
 4775TIP3    H135740   1.816   6.776  14.054  0.6263 -0.6756 -1.1016
 4775TIP3    H235741   1.866   6.641  14.006  1.1600 -0.6952 -0.4934
 4776TIP3   OH235742   3.221   3.165  10.749 -0.0330 -0.2870  0.3378
 4776TIP3    H135743   3.200   3.242  10.803 -0.8473 -0.7645  0.7162
 4776TIP3    H235744   3.279   3.199  10.681 -0.7579  0.7612  0.2212
 4777TIP3   OH235745   1.612   1.532   1.118  0.2555 -0.3002  0.1950
 4777TIP3    H135746   1.652   1.449   1.143 -0.7596 -0.7616  0.3101
 4777TIP3    H235747   1.601   1.525   1.023 -0.2091 -0.4730  0.2588
 4778TIP3   OH235748   4.671   0.189  11.348  0.4662 -0.1009  1.2169
 4778TIP3    H135749   4.707   0.257  11.290  0.3800 -1.4936 -0.5633
 4778TIP3    H235750   4.658   0.233  11.432  3.0311  1.3609  0.9484
 4779TIP3   OH235751   6.752   1.062  11.737  0.0613  0.0655 -0.1999
 4779TIP3    H135752   6.746   1.005  11.814  1.2748  1.6363  1.1485
 4779TIP3    H235753   6.796   1.009  11.671 -0.6100 -1.1791  0.3056
 4780TIP3   OH235754   5.209   4.912  15.267  0.4684 -0.2906 -0.0982
 4780TIP3    H135755   5.146   4.967  15.221  1.6566  1.7828  0.6225
 4780TIP3    H235756   5.157   4.859  15.327 -0.6276  0.9895  0.1066
 4781TIP3   OH235757   6.362   0.103  11.986  0.3615 -0.4445 -0.7942
 4781TIP3    H135758   6.432   0.154  12.027 -0.9711  1.3297 -0.6147
 4781TIP3    H235759   6.341   0.151  11.907 -1.2803 -0.4059 -0.3622
 4782TIP3   OH235760   3.886   6.220   3.157  0.5388  0.6033 -0.0519
 4782TIP3    H135761   3.922   6.303   3.188 -1.0892  1.3592 -0.0692
 4782TIP3    H235762   3.926   6.207   3.071  0.3882  1.6907 -0.3074
 4783TIP3   OH235763   0.757   4.717   5.169  0.0646  0.6434 -0.3167
 4783TIP3    H135764   0.720   4.803   5.149 -1.2222  0.2913  0.4445
 4783TIP3    H235765   0.690   4.654   5.141  0.4629 -0.0548  0.2519
 4784TIP3   OH235766   4.889   0.221   4.259  0.3735  0.3808  0.0492
 4784TIP3    H135767   4.796   0.243   4.251  0.8674  1.8152 -3.1505
 4784TIP3    H235768   4.896   0.133   4.221  0.5750  1.0953 -1.6137
 4785TIP3   OH235769   5.619   5.030  11.393 -0.0058  0.4656 -0.6627
 4785TIP3    H135770   5.588   5.061  11.478 -1.7926 -1.9401 -0.3374
 4785TIP3    H235771   5.713   5.016  11.405  0.1335  2.0200  0.2762
 4786TIP3   OH235772   3.500   3.829   0.408  0.0954  0.0962  0.4609
 4786TIP3    H135773   3.436   3.824   0.478 -0.7782  0.4943 -0.2855
 4786TIP3    H235774   3.451   3.861   0.332  1.5298  2.0327  0.2856
 4787TIP3   OH235775   1.995   2.808  14.709  0.5560 -0.0293 -0.3414
 4787TIP3    H135776   1.918   2.802  14.652  0.3723 -1.5709  0.0187
 4787TIP3    H235777   2.038   2.889  14.683 -1.0024  0.7004 -0.7833
 4788TIP3   OH235778   0.723   6.249  11.418  0.3703  0.6022 -0.8015
 4788TIP3    H135779   0.708   6.288  11.504  0.7031  0.6533 -0.7646
 4788TIP3    H235780   0.794   6.186  11.432 -1.2084 -1.2088 -0.5217
 4789TIP3   OH235781   3.926   0.456  16.460 -0.5680  0.3926 -0.0579
 4789TIP3    H135782   3.909   0.407  16.379  1.8516  0.3846 -0.6406
 4789TIP3    H235783   4.013   0.494  16.447 -0.5763  1.2935  2.1295
 4790TIP3   OH235784   1.932   3.796  15.673  0.2538  0.1029 -0.4299
 4790TIP3    H135785   1.898   3.834  15.592 -2.7671 -0.0507  0.6056
 4790TIP3    H235786   1.853   3.775  15.724  1.9671 -1.7959  1.6541
 4791TIP3   OH235787   0.753   6.239   4.446  0.0697 -0.6373  0.4262
 4791TIP3    H135788   0.751   6.296   4.523 -2.1655 -0.8314  0.5893
 4791TIP3    H235789   0.830   6.185   4.458  0.9743  0.7969  1.4288
 4792TIP3   OH235790   4.683   2.754   4.375  0.2360  0.3373  0.4437
 4792TIP3    H135791   4.620   2.801   4.428 -1.8572  0.5119 -2.0234
 4792TIP3    H235792   4.647   2.666   4.366 -0.0449  0.5942 -1.4691
 4793TIP3   OH235793   6.507   1.680   3.348  0.3858 -0.1722  0.1286
 4793TIP3    H135794   6.489   1.618   3.418  2.5339  0.6430  1.5201
 4793TIP3    H235795   6.517   1.765   3.392  0.1478  0.6807 -1.3731
 4794TIP3   OH235796   3.313   3.029  12.277  0.1389  0.5484 -0.3045
 4794TIP3    H135797   3.253   2.963  12.312 -0.2197  0.9985 -0.0628
 4794TIP3    H235798   3.319   3.009  12.183  1.1793 -0.7231  0.0163
 4795TIP3   OH235799   1.899   5.203  12.021  0.0468  0.1633  0.0653
 4795TIP3    H135800   1.885   5.115  12.056  1.7952  0.1449  0.8323
 4795TIP3    H235801   1.896   5.260  12.098 -0.2391  0.6763 -0.3213
 4796TIP3   OH235802   1.460   1.491  13.505  0.5377  0.2730 -0.2612
 4796TIP3    H135803   1.471   1.457  13.417  0.8583  0.0533 -0.1403
 4796TIP3    H235804   1.539   1.463  13.552  0.2469  0.1588  0.1691
 4797TIP3   OH235805   4.439   1.551  13.077  0.0350  0.2792 -0.8458
 4797TIP3    H135806   4.477   1.483  13.132 -2.7451 -1.1720 -0.5322
 4797TIP3    H235807   4.414   1.620  13.139  1.7943  1.1249 -1.0249
 4798TIP3   OH235808   6.334   3.159   0.202 -0.2223 -0.5208 -0.5444
 4798TIP3    H135809   6.240   3.151   0.185 -1.1219  1.5609  2.6565
 4798TIP3    H235810   6.345   3.130   0.293  1.3260  3.6232  0.8025
 4799TIP3   OH235811   5.252   0.820  12.673 -0.1160 -0.9070  0.3975
 4799TIP3    H135812   5.212   0.744  12.631  0.3014 -0.5895 -0.5942
 4799TIP3    H235813   5.346   0.807  12.664 -0.0007  0.9489 -2.1414
 4800TIP3   OH235814   3.907   3.739  16.697 -0.0002  0.0022 -0.5445
 4800TIP3    H135815   3.922   3.664  16.755  1.8161  0.4662 -0.3477
 4800TIP3    H235816   3.968   3.805  16.729 -2.5811  2.1856  0.2866
 4801TIP3   OH235817   1.675   6.626   0.008  0.9838  0.1121  0.2607
 4801TIP3    H135818   1.725   6.589  -0.065  0.5325 -1.4310  0.7037
 4801TIP3    H235819   1.602   6.671  -0.035  1.0903 -0.2140 -0.2763
 4802TIP3   OH235820   3.464   4.089  11.142  0.2777 -0.3057 -0.7420
 4802TIP3    H135821   3.466   4.083  11.046  0.4875 -0.6624 -0.7180
 4802TIP3    H235822   3.502   4.007  11.172 -1.4429 -0.9846 -0.3235
 4803TIP3   OH235823   2.637   2.346   1.464  0.2784  0.3275  0.1950
 4803TIP3    H135824   2.680   2.260   1.452 -0.3072  0.2841 -1.9343
 4803TIP3    H235825   2.597   2.340   1.550  0.2629 -1.5627  0.1141
 4804TIP3   OH235826   5.678   5.201  12.161 -0.1528 -0.5710  0.8276
 4804TIP3    H135827   5.770   5.180  12.146  0.2648  1.7939 -0.3088
 4804TIP3    H235828   5.664   5.180  12.254  1.3211 -1.5706  0.8581
 4805TIP3   OH235829   3.272   4.835  16.133  0.6537 -0.3718  0.4424
 4805TIP3    H135830   3.266   4.929  16.148 -2.5649 -0.6678  1.8014
 4805TIP3    H235831   3.335   4.804  16.198  1.8240  0.8098 -0.0823
 4806TIP3   OH235832   0.619   2.891  11.024 -0.1700 -0.0120 -0.2585
 4806TIP3    H135833   0.714   2.891  11.014  0.1693  4.4656  0.7452
 4806TIP3    H235834   0.587   2.945  10.951 -1.6327  0.5934  0.7832
 4807TIP3   OH235835   4.776   0.573   2.270  0.6144 -0.2655  0.8299
 4807TIP3    H135836   4.834   0.570   2.346  1.1789 -0.2299  0.4041
 4807TIP3    H235837   4.766   0.481   2.245 -1.2588 -0.4925  2.1942
 4808TIP3   OH235838   3.160   3.635  12.598  0.2674  0.0027  0.3611
 4808TIP3    H135839   3.252   3.626  12.622  0.9065  0.1488 -1.7497
 4808TIP3    H235840   3.162   3.640  12.502 -1.9134  0.3928  0.2981
 4809TIP3   OH235841   2.507   1.030  16.348  0.6676  0.2083  0.3080
 4809TIP3    H135842   2.570   0.959  16.338 -1.3607 -1.7016  0.2256
 4809TIP3    H235843   2.502   1.044  16.443  0.0548 -0.8153  0.4494
 4810TIP3   OH235844   5.074   0.580   3.427  0.0492 -0.3599 -0.6288
 4810TIP3    H135845   5.116   0.659   3.461 -2.3060 -0.0703  1.9431
 4810TIP3    H235846   5.059   0.599   3.334 -1.2026  2.6335  0.0706
 4811TIP3   OH235847   5.563   3.456   1.930 -0.9429 -0.4012  0.5843
 4811TIP3    H135848   5.639   3.493   1.886 -0.4358 -1.9781  0.0705
 4811TIP3    H235849   5.494   3.456   1.863 -0.6310 -1.3156  0.2378
 4812TIP3   OH235850   3.638   3.289   3.718 -0.1688 -0.2521  0.4712
 4812TIP3    H135851   3.637   3.378   3.683 -2.2884 -0.9179 -1.4740
 4812TIP3    H235852   3.650   3.299   3.812  4.1596  1.7736 -0.0419
 4813TIP3   OH235853   3.311   4.314  13.644  0.0625  0.5985  0.4036
 4813TIP3    H135854   3.339   4.299  13.554 -1.0508 -0.2111  0.1778
 4813TIP3    H235855   3.261   4.395  13.641  1.3388  1.4166  0.5958
 4814TIP3   OH235856   4.876   4.216   1.328  0.4520  0.0489  0.0644
 4814TIP3    H135857   4.874   4.197   1.234 -0.2277  1.0843 -0.1503
 4814TIP3    H235858   4.826   4.144   1.368  0.3446 -0.1464 -0.4161
 4815TIP3   OH235859   4.128   2.754   5.558 -0.2710  0.0755 -0.2968
 4815TIP3    H135860   4.175   2.808   5.494  0.5751 -0.0861  0.1706
 4815TIP3    H235861   4.044   2.798   5.569 -1.1737 -0.8317 -2.8165
 4816TIP3   OH235862   2.774   2.578   2.782 -0.5729  0.1213  0.0378
 4816TIP3    H135863   2.868   2.557   2.781 -0.6366 -0.1754  0.2367
 4816TIP3    H235864   2.742   2.545   2.698 -0.7012 -0.7270  0.4057
 4817TIP3   OH235865   0.543   1.545   3.569  0.2553 -0.2139  0.2907
 4817TIP3    H135866   0.574   1.533   3.659  1.9120 -2.2416 -0.4692
 4817TIP3    H235867   0.454   1.579   3.579 -0.1830 -1.7871  2.7462
 4818TIP3   OH235868   5.232   3.438  15.403 -0.4707 -0.1032 -0.7257
 4818TIP3    H135869   5.183   3.499  15.459  2.5666  1.3961  0.5162
 4818TIP3    H235870   5.244   3.361  15.458 -1.4539 -0.5139 -1.0685
 4819TIP3   OH235871   2.779   6.046  11.190  0.0855 -0.3461  0.1547
 4819TIP3    H135872   2.754   6.131  11.226  1.2264 -0.2542  0.7932
 4819TIP3    H235873   2.719   6.032  11.117 -0.2758  0.8938  0.1885
 4820TIP3   OH235874   3.384   4.278   2.289  0.1112  0.1993  0.1927
 4820TIP3    H135875   3.380   4.333   2.367  1.4953 -0.1098  0.4974
 4820TIP3    H235876   3.316   4.211   2.303 -2.4032  2.3655 -0.6825
 4821TIP3   OH235877   5.951   6.496  11.927 -0.0556  0.0094  0.4764
 4821TIP3    H135878   6.037   6.484  11.888 -0.6519  0.9170 -1.2304
 4821TIP3    H235879   5.891   6.455  11.866 -0.8361 -1.0588  1.8922
 4822TIP3   OH235880   3.943   6.779   1.914 -0.7924 -0.3569  0.7385
 4822TIP3    H135881   3.897   6.862   1.927 -0.5976 -0.2671  0.8472
 4822TIP3    H235882   3.970   6.752   2.002  1.6306  0.8756  0.4384
 4823TIP3   OH235883   2.247   2.033   2.809  0.2496  0.3046  0.2855
 4823TIP3    H135884   2.269   2.119   2.775  1.4580 -0.5168 -1.1541
 4823TIP3    H235885   2.251   2.042   2.904 -2.8195  2.5808  0.3524
 4824TIP3   OH235886   0.248   0.133  12.216 -0.0078  0.3353 -0.0299
 4824TIP3    H135887   0.251   0.043  12.251  1.2033  0.2412 -0.3626
 4824TIP3    H235888   0.337   0.165  12.224  0.9088 -0.3434 -4.7412
 4825TIP3   OH235889   6.525   0.682  15.097 -0.0155  0.5475 -0.2421
 4825TIP3    H135890   6.455   0.710  15.037 -1.2078  1.8945  1.6581
 4825TIP3    H235891   6.589   0.753  15.094  0.7734 -0.1649 -1.1224
 4826TIP3   OH235892   3.077   2.001   5.243 -0.6399  0.0377 -0.4672
 4826TIP3    H135893   3.113   2.036   5.162  0.5774 -1.1913 -0.4827
 4826TIP3    H235894   2.990   2.041   5.249 -1.2652 -0.7348 -2.9959
 4827TIP3   OH235895   1.889   6.150  13.243 -0.4327 -0.3731 -0.0280
 4827TIP3    H135896   1.949   6.218  13.213 -0.5952 -0.8314 -1.4690
 4827TIP3    H235897   1.891   6.156  13.339 -1.5305  2.6149 -0.0970
 4828TIP3   OH235898   5.191   0.433   1.570  1.0877 -0.3776 -0.5267
 4828TIP3    H135899   5.185   0.446   1.475  0.2773 -1.8862 -0.7278
 4828TIP3    H235900   5.132   0.359   1.587  1.2672 -0.1695  1.1511
 4829TIP3   OH235901   5.918   2.385  13.505 -0.0020 -0.1734 -0.1835
 4829TIP3    H135902   5.977   2.319  13.540  0.5600  0.1190 -0.5663
 4829TIP3    H235903   5.974   2.441  13.451  0.0619  2.0990  2.0297
 4830TIP3   OH235904   6.061   2.590  11.853 -0.2549 -0.0457  0.4258
 4830TIP3    H135905   6.094   2.595  11.763  1.4406  1.4501  1.0748
 4830TIP3    H235906   6.047   2.496  11.868  1.0016 -0.4880 -0.8850
 4831TIP3   OH235907   3.529   2.207  16.685 -0.1517 -0.3096  0.4096
 4831TIP3    H135908   3.581   2.272  16.638 -0.3951  0.2099  0.8449
 4831TIP3    H235909   3.567   2.205  16.772  0.5821 -1.5912  0.0742
 4832TIP3   OH235910   1.044   4.434  12.260 -0.2160 -0.2727  0.1892
 4832TIP3    H135911   1.030   4.528  12.254  1.6345 -0.0076 -0.2976
 4832TIP3    H235912   1.021   4.400  12.173  1.8419  0.1396 -0.5576
 4833TIP3   OH235913   6.574   1.432  14.293  0.2191  0.3733 -0.3806
 4833TIP3    H135914   6.517   1.383  14.233 -1.1235  0.9614  0.3809
 4833TIP3    H235915   6.659   1.388  14.287 -0.4840 -0.9342 -1.0382
 4834TIP3   OH235916   5.159   5.602   4.508  0.0984 -0.6593  0.2374
 4834TIP3    H135917   5.151   5.628   4.417  1.0475 -2.0321 -0.2641
 4834TIP3    H235918   5.120   5.515   4.513  0.7616 -0.9306  0.9709
 4835TIP3   OH235919   1.058   2.475   5.195 -0.2523  0.3652 -0.4352
 4835TIP3    H135920   1.127   2.412   5.213 -0.0073  0.9181  0.6250
 4835TIP3    H235921   1.101   2.543   5.142  0.7252  1.9534  2.2050
 4836TIP3   OH235922   2.060   4.435  14.087  0.6576  0.2659 -0.3766
 4836TIP3    H135923   2.116   4.484  14.147  0.8809  0.0971 -0.4438
 4836TIP3    H235924   2.037   4.497  14.018 -1.4360  1.1320  1.0276
 4837TIP3   OH235925   3.964   1.198   4.146 -0.4887 -0.0968 -0.0538
 4837TIP3    H135926   4.049   1.215   4.187  0.2081  0.5965 -1.6657
 4837TIP3    H235927   3.955   1.269   4.082 -2.2897 -0.1749  0.0878
 4838TIP3   OH235928   0.104   5.707   4.458  0.1370 -0.1121 -0.1318
 4838TIP3    H135929   0.141   5.643   4.397  0.5654  0.7609 -0.7995
 4838TIP3    H235930   0.156   5.696   4.538  1.2061  0.4154 -0.7348
 4839TIP3   OH235931   2.254   2.451  13.811 -0.3579  0.0031 -0.3767
 4839TIP3    H135932   2.315   2.403  13.867  0.3781  2.8275  1.4211
 4839TIP3    H235933   2.310   2.502  13.752 -1.0498  0.3003 -0.7881
 4840TIP3   OH235934   2.003   3.594   4.691 -0.0798 -0.0662 -0.3716
 4840TIP3    H135935   2.053   3.602   4.611 -0.1698  2.0255 -0.2978
 4840TIP3    H235936   2.068   3.578   4.759  0.3553  0.9867 -0.5078
 4841TIP3   OH235937   2.658   5.796  12.777 -0.1184 -0.0967  0.5696
 4841TIP3    H135938   2.693   5.709  12.797 -0.2891  0.1226  1.8905
 4841TIP3    H235939   2.630   5.789  12.685  1.7644 -0.7879  0.0024
 4842TIP3   OH235940   5.974   6.295  12.485 -0.0578  0.2614 -0.2378
 4842TIP3    H135941   5.903   6.261  12.431 -0.1827 -0.0436  0.1141
 4842TIP3    H235942   5.955   6.389  12.494 -0.8604  0.0386  0.5179
 4843TIP3   OH235943   0.277   0.631  10.613 -0.1843  0.2236  0.0246
 4843TIP3    H135944   0.357   0.585  10.639 -0.2095  0.3642  0.3527
 4843TIP3    H235945   0.304   0.722  10.602 -0.2061  0.1936 -0.2993
 4844TIP3   OH235946   0.356   0.966   4.684  0.5828 -0.1947  0.6758
 4844TIP3    H135947   0.337   0.887   4.734  2.0298  0.1869  1.8687
 4844TIP3    H235948   0.334   1.039   4.742  1.8896  0.2547  0.6559
 4845TIP3   OH235949   5.112   6.123  15.466  0.0087 -0.2533  0.2327
 4845TIP3    H135950   5.089   6.215  15.452 -2.8490 -0.6780  1.3573
 4845TIP3    H235951   5.081   6.078  15.388  2.1960 -0.2329 -0.7160
 4846TIP3   OH235952   5.517   6.784  15.892  0.1303  0.0787 -0.6233
 4846TIP3    H135953   5.540   6.780  15.985 -0.0710  0.6928 -0.5449
 4846TIP3    H235954   5.423   6.798  15.890  0.3510  1.6841 -0.8907
 4847TIP3   OH235955   1.038   4.013   4.886  0.2726  0.6925 -0.3879
 4847TIP3    H135956   1.079   4.090   4.925 -1.7232  1.9372 -0.5582
 4847TIP3    H235957   1.109   3.951   4.871  1.6341  1.6504  1.7513
 4848TIP3   OH235958   0.357   0.947  10.618  0.1475  1.0998  0.1575
 4848TIP3    H135959   0.386   1.025  10.664  0.0022  1.3025 -0.0896
 4848TIP3    H235960   0.408   0.946  10.537  0.6053  0.5923  0.4485
 4849TIP3   OH235961   5.837   4.433   5.865  0.4685  0.2955 -0.3044
 4849TIP3    H135962   5.877   4.491   5.930 -0.6849  0.8508 -0.0645
 4849TIP3    H235963   5.885   4.351   5.873  1.8607  1.0779 -0.3551
 4850TIP3   OH235964   2.998   5.922  12.485 -0.5338  0.5288 -0.2015
 4850TIP3    H135965   3.025   5.838  12.523  2.2079  1.1532 -0.5663
 4850TIP3    H235966   2.943   5.962  12.552  0.3083 -0.4222  1.1052
 4851TIP3   OH235967   3.559   6.422  11.885  0.7028  0.0963 -0.1439
 4851TIP3    H135968   3.594   6.353  11.941 -1.0381 -1.2034 -0.5565
 4851TIP3    H235969   3.591   6.503  11.924  1.6421 -0.8763  1.1950
 4852TIP3   OH235970   6.138   5.011  12.880 -0.2936  0.0441  0.0600
 4852TIP3    H135971   6.047   5.009  12.911 -0.1127 -1.6508  0.5883
 4852TIP3    H235972   6.187   4.962  12.945  0.6486 -0.8627 -1.2692
 4853TIP3   OH235973   5.104   1.198   5.361  0.6967 -0.1348 -0.3758
 4853TIP3    H135974   5.106   1.104   5.341 -0.3936 -0.3078  0.2727
 4853TIP3    H235975   5.166   1.208   5.433  2.2039 -0.0317 -1.6332
 4854TIP3   OH235976   3.184   2.261  13.122  0.0267  0.3792  0.0579
 4854TIP3    H135977   3.195   2.189  13.060  0.7661  0.8411 -0.3580
 4854TIP3    H235978   3.194   2.221  13.208 -0.1911 -0.1194 -0.1434
 4855TIP3   OH235979   1.890   6.542  14.301  0.1680 -1.1272 -0.0134
 4855TIP3    H135980   1.805   6.501  14.318  1.1913 -3.7705 -0.7425
 4855TIP3    H235981   1.884   6.575  14.212 -1.0650  1.5818  0.9699
 4856TIP3   OH235982   4.431   2.944  13.717 -0.0679 -0.2035 -0.1396
 4856TIP3    H135983   4.491   2.955  13.790 -0.4168  1.4695 -0.0579
 4856TIP3    H235984   4.346   2.929  13.757 -0.4453  1.7307 -0.1361
 4857TIP3   OH235985   1.241   1.870   0.742 -0.1901  0.3771  0.0485
 4857TIP3    H135986   1.224   1.902   0.831 -0.8162 -0.3865  0.2160
 4857TIP3    H235987   1.154   1.853   0.706  0.0695  0.4610 -0.6299
 4858TIP3   OH235988   1.108   3.087  14.903  0.0848 -0.3708 -0.3305
 4858TIP3    H135989   1.140   2.997  14.897 -0.5800 -0.5506 -1.3733
 4858TIP3    H235990   1.029   3.089  14.849  1.0857  1.2785 -1.8706
 4859TIP3   OH235991   6.754   4.564  12.527  0.5683 -0.3398  0.4271
 4859TIP3    H135992   6.804   4.601  12.454  1.3358 -1.1088  0.5358
 4859TIP3    H235993   6.758   4.469  12.513 -1.0473 -0.4165  0.3442
 4860TIP3   OH235994   3.223   2.699   1.062 -0.0567 -0.1044 -0.2902
 4860TIP3    H135995   3.158   2.683   1.130 -0.3769  1.0130 -0.3049
 4860TIP3    H235996   3.171   2.701   0.981 -0.1236  1.3819 -0.2390
 4861TIP3   OH235997   2.109   0.073   3.584  0.5255  0.2023 -0.2553
 4861TIP3    H135998   2.178   0.058   3.648  0.1400 -0.2856  0.0500
 4861TIP3    H235999   2.147   0.135   3.522  1.0325  0.3861  0.2324
 4862TIP3   OH236000   6.739   0.424   5.278 -0.1356 -1.0018 -0.2580
 4862TIP3    H136001   6.698   0.474   5.349  1.0993 -0.0287 -0.1894
 4862TIP3    H236002   6.668   0.404   5.218 -0.7187  0.6192 -0.1495
 4863TIP3   OH236003   4.420   2.250  11.765 -0.5205  0.4570 -0.2181
 4863TIP3    H136004   4.509   2.272  11.794 -0.8393 -0.5415  1.6702
 4863TIP3    H236005   4.397   2.320  11.704  0.5578  2.2502  1.3184
 4864TIP3   OH236006   6.476   4.149   2.962  0.2548 -0.1776 -0.1951
 4864TIP3    H136007   6.429   4.098   3.028  2.9065 -2.3537  0.1732
 4864TIP3    H236008   6.483   4.091   2.887  1.8710  0.2808 -0.4298
 4865TIP3   OH236009   5.400   5.963  14.259  0.3445  0.0085 -0.0096
 4865TIP3    H136010   5.315   5.921  14.242  1.0432 -0.3135 -3.3618
 4865TIP3    H236011   5.383   6.023  14.331 -2.3169 -1.2109  0.5059
 4866TIP3   OH236012   5.892   5.474  15.583  0.0845 -0.1748 -0.6594
 4866TIP3    H136013   5.873   5.488  15.675  0.7892 -2.0413 -0.1851
 4866TIP3    H236014   5.822   5.521  15.536 -0.4311  0.5693  0.8037
 4867TIP3   OH236015   4.028   0.338   6.430 -0.6618 -0.2435  0.1506
 4867TIP3    H136016   4.109   0.348   6.381 -0.7470 -0.1352  0.0285
 4867TIP3    H236017   4.028   0.410   6.492 -0.9140  0.0726 -0.2094
 4868TIP3   OH236018   1.376   3.954  16.705 -0.1668  0.0962  0.5082
 4868TIP3    H136019   1.440   3.883  16.694 -1.2945 -0.7543 -1.0022
 4868TIP3    H236020   1.298   3.923  16.659 -1.1109  1.8302  0.8487
 4869TIP3   OH236021   2.317   4.109   3.787  0.0843  0.1592  0.3214
 4869TIP3    H136022   2.270   4.058   3.853 -1.3660  0.1194 -0.7025
 4869TIP3    H236023   2.297   4.200   3.808 -1.4595  0.1052 -0.8029
 4870TIP3   OH236024   4.237   4.031   2.777 -0.0454  0.0595 -0.3004
 4870TIP3    H136025   4.165   4.055   2.719 -0.6112  1.6102  0.9622
 4870TIP3    H236026   4.194   4.015   2.862  0.7321 -2.2711 -0.2715
 4871TIP3   OH236027   3.173   1.518   5.283  0.2334 -0.6702  0.0212
 4871TIP3    H136028   3.256   1.559   5.307 -0.2518 -1.1626  2.9523
 4871TIP3    H236029   3.128   1.505   5.367 -2.6751 -0.7306 -1.4227
 4872TIP3   OH236030   5.005   6.515  15.012  0.3520 -0.0875 -0.0919
 4872TIP3    H136031   5.053   6.523  15.094 -0.8334 -0.3926  0.6392
 4872TIP3    H236032   5.062   6.462  14.956  0.2604 -1.6771  1.2627
 4873TIP3   OH236033   0.123   6.065  14.747  0.3441 -0.2924 -0.3335
 4873TIP3    H136034   0.117   6.156  14.776 -1.4682 -0.9731  1.6865
 4873TIP3    H236035   0.207   6.034  14.782  0.6398  0.3982 -0.4214
 4874TIP3   OH236036   6.181   5.020   2.734  0.0974 -0.1025 -0.1576
 4874TIP3    H136037   6.088   5.017   2.758  0.3904 -0.4711  1.0549
 4874TIP3    H236038   6.222   4.956   2.793  1.0546 -0.2845 -0.9953
 4875TIP3   OH236039   6.287   2.060   0.031 -0.1853  0.0605 -0.0106
 4875TIP3    H136040   6.222   1.997   0.001  0.6807  0.1062 -2.1647
 4875TIP3    H236041   6.341   2.078  -0.046  1.0213  1.6955  1.1319
 4876TIP3   OH236042   2.824   6.083  15.251  0.0834 -0.3639  0.3078
 4876TIP3    H136043   2.846   6.144  15.180  2.0518  0.1679  1.3076
 4876TIP3    H236044   2.855   5.998  15.220 -0.3214 -0.4007 -0.0161
 4877TIP3   OH236045   5.369   1.813   1.971 -0.3857 -0.1604  0.1393
 4877TIP3    H136046   5.402   1.746   2.031  0.5088  0.0198 -0.1430
 4877TIP3    H236047   5.325   1.764   1.902 -1.5823 -0.3682  1.0048
 4878TIP3   OH236048   1.405   6.475   2.911  0.0061  0.1010 -0.1537
 4878TIP3    H136049   1.424   6.561   2.949 -1.5041  0.1526  0.5808
 4878TIP3    H236050   1.339   6.493   2.845 -0.6133 -0.5255  0.2765
 4879TIP3   OH236051   6.665   4.710  15.324 -0.2218  0.1871  0.0583
 4879TIP3    H136052   6.612   4.789  15.313  0.7045  0.5931 -1.8597
 4879TIP3    H236053   6.704   4.719  15.411 -1.5278  0.9522  0.5973
 4880TIP3   OH236054   0.306   3.074   2.120  0.4031  0.1716 -0.1830
 4880TIP3    H136055   0.373   3.094   2.054  0.9228 -0.7206  0.0430
 4880TIP3    H236056   0.323   3.135   2.192  2.6606 -1.6668  0.9779
 4881TIP3   OH236057   1.698   6.168   5.171 -0.7084  0.7131 -0.4241
 4881TIP3    H136058   1.727   6.206   5.254 -1.4227 -0.5832  0.4458
 4881TIP3    H236059   1.728   6.230   5.105  3.9045 -0.3087  0.3478
 4882TIP3   OH236060   4.106   1.350   1.872 -0.8124  0.4279  0.9927
 4882TIP3    H136061   4.081   1.263   1.842 -1.6994  0.9276  0.2028
 4882TIP3    H236062   4.200   1.356   1.855 -1.1460  0.4527 -1.2191
 4883TIP3   OH236063   1.880   2.627   0.960 -0.0268  0.0385 -0.4634
 4883TIP3    H136064   1.815   2.610   0.892 -0.4012  0.0687 -0.1113
 4883TIP3    H236065   1.905   2.718   0.947 -1.4687  0.6197  0.6015
 4884TIP3   OH236066   0.504   0.158  10.705  0.9761 -0.1494 -0.1096
 4884TIP3    H136067   0.561   0.234  10.712  2.0301 -0.9707  0.7154
 4884TIP3    H236068   0.563   0.083  10.713  0.0456 -1.0809 -1.4079
 4885TIP3   OH236069   3.285   2.849  11.596  0.8360  0.2180  0.2842
 4885TIP3    H136070   3.268   2.800  11.675 -1.1324 -0.6884 -0.6460
 4885TIP3    H236071   3.380   2.841  11.583  1.0191 -0.5972  1.8715
 4886TIP3   OH236072   2.575   6.129   5.504 -0.6023 -0.4114  0.0816
 4886TIP3    H136073   2.483   6.105   5.508 -0.6968 -0.2892 -0.9913
 4886TIP3    H236074   2.578   6.219   5.537 -0.9392 -0.2782 -0.2369
 4887TIP3   OH236075   2.376   3.293   1.413  0.3398  0.1845  0.2649
 4887TIP3    H136076   2.439   3.295   1.484  1.3523  0.8777 -0.6203
 4887TIP3    H236077   2.425   3.322   1.336 -0.7396 -0.4578 -0.7059
 4888TIP3   OH236078   4.617   2.696   0.671  0.4424  0.1086 -0.1508
 4888TIP3    H136079   4.525   2.670   0.664  0.8506 -1.4490 -0.1562
 4888TIP3    H236080   4.618   2.767   0.735 -0.6868 -0.2815  0.3178
 4889TIP3   OH236081   5.085   3.220  16.948 -0.2900  0.2937  0.2990
 4889TIP3    H136082   5.048   3.300  16.910  0.4957  0.3493 -0.3673
 4889TIP3    H236083   5.010   3.178  16.991 -0.7483  1.2916  0.5044
 4890TIP3   OH236084   0.805   2.740   5.244 -0.0084 -0.6838 -0.1474
 4890TIP3    H136085   0.748   2.750   5.320  0.7561  1.2347  0.2523
 4890TIP3    H236086   0.888   2.709   5.280 -0.3524 -2.1287 -0.5451
 4891TIP3   OH236087   0.118   0.991   4.305  0.6924 -0.4243  0.3769
 4891TIP3    H136088   0.055   0.921   4.288 -0.1755  0.4579 -0.1287
 4891TIP3    H236089   0.203   0.947   4.302  0.2269 -1.3181 -0.7495
 4892TIP3   OH236090   4.843   6.119  10.595  0.2909 -0.7477  0.1838
 4892TIP3    H136091   4.910   6.118  10.664  1.0220  0.3215 -0.4818
 4892TIP3    H236092   4.862   6.042  10.542  1.8066  0.2049 -0.7210
 4893TIP3   OH236093   2.879   5.417   0.638  0.3989  0.9469  0.6288
 4893TIP3    H136094   2.832   5.420   0.721  1.0684  1.9071  0.9855
 4893TIP3    H236095   2.964   5.379   0.660 -0.2749 -1.1301 -0.0770
 4894TIP3   OH236096   6.131   3.366  12.352  0.0195 -0.0030  0.0395
 4894TIP3    H136097   6.149   3.282  12.392  0.2880 -0.0925 -0.2640
 4894TIP3    H236098   6.124   3.348  12.258 -2.4961 -0.1129  0.1919
 4895TIP3   OH236099   5.610   1.886   2.516 -0.3059  0.9308 -0.7363
 4895TIP3    H136100   5.616   1.940   2.437 -2.8721  0.9961 -0.9893
 4895TIP3    H236101   5.564   1.807   2.486  0.5482  0.0189  0.2911
 4896TIP3   OH236102   5.565   5.869  15.734 -0.5547  0.4182 -0.6922
 4896TIP3    H136103   5.549   5.831  15.820  0.3104  1.6198  0.0279
 4896TIP3    H236104   5.479   5.878  15.694 -0.9134 -0.6364 -0.1815
 4897TIP3   OH236105   5.137   5.606   2.194 -1.0295  0.2999 -0.0795
 4897TIP3    H136106   5.084   5.595   2.115 -0.1057 -2.1394 -0.4508
 4897TIP3    H236107   5.200   5.534   2.191  0.2606  1.2312  1.9565
 4898TIP3   OH236108   2.777   2.264   4.574  0.4970 -0.0279 -0.0622
 4898TIP3    H136109   2.872   2.252   4.584  0.6480  0.2013 -1.0481
 4898TIP3    H236110   2.752   2.195   4.512  0.2612  0.7575 -0.8545
 4899TIP3   OH236111   3.724   4.864  11.880  0.2523  0.9549  0.2509
 4899TIP3    H136112   3.719   4.867  11.976  1.5583  3.4810  0.3331
 4899TIP3    H236113   3.659   4.927  11.850  0.8258  1.2203 -0.4618
 4900TIP3   OH236114   3.660   1.276  13.023  0.0149  0.2494 -0.2535
 4900TIP3    H136115   3.700   1.362  13.010 -0.6967  0.7543  0.7689
 4900TIP3    H236116   3.732   1.220  13.053  0.4889  0.4644 -0.9719
 4901TIP3   OH236117   4.728   4.898  16.344  0.1822 -0.3075 -0.6144
 4901TIP3    H136118   4.777   4.822  16.375  0.2047 -0.2459 -0.4977
 4901TIP3    H236119   4.790   4.946  16.289  1.5345  1.7524  2.4133
 4902TIP3   OH236120   2.372   3.930  13.769  0.2058  0.4306 -0.0034
 4902TIP3    H136121   2.452   3.969  13.804 -0.2447  1.8505 -0.4939
 4902TIP3    H236122   2.391   3.916  13.677 -0.0976  0.7802 -0.1227
 4903TIP3   OH236123   1.784   0.043  14.314 -0.1822  0.2174 -0.1781
 4903TIP3    H136124   1.831  -0.007  14.247  0.9567  1.2897 -0.2131
 4903TIP3    H236125   1.798   0.134  14.289  1.6949  0.7220  2.4240
 4904TIP3   OH236126   5.726   0.154   6.219 -0.0023 -0.4620  0.0329
 4904TIP3    H136127   5.709   0.073   6.171 -0.6592  0.0019 -0.5288
 4904TIP3    H236128   5.685   0.222   6.167  1.4367  0.3759 -0.0492
 4905TIP3   OH236129   0.587   0.885   1.916 -0.0086  0.1609 -0.1128
 4905TIP3    H136130   0.653   0.860   1.981 -2.7039 -0.3611  2.6544
 4905TIP3    H236131   0.556   0.802   1.880  1.3950  0.4439 -2.1179
 4906TIP3   OH236132   0.402   1.644  12.968 -0.0154 -0.1844  0.0725
 4906TIP3    H136133   0.359   1.577  13.021  0.7949 -1.5093 -0.8951
 4906TIP3    H236134   0.330   1.699  12.937 -1.3706 -3.1373 -2.6293
 4907TIP3   OH236135   6.748   0.986  16.020  0.4079 -0.1667  0.0921
 4907TIP3    H136136   6.739   1.072  16.061  1.4303  0.2047 -0.4262
 4907TIP3    H236137   6.827   0.994  15.967 -0.5450 -0.8076 -1.4841
 4908TIP3   OH236138   0.900   5.783   2.245  0.4823 -0.4244  0.2904
 4908TIP3    H136139   0.873   5.873   2.226  1.1462 -0.4209 -0.7287
 4908TIP3    H236140   0.850   5.759   2.322 -1.1182  0.1712 -0.5135
 4909TIP3   OH236141   0.631   2.189  11.991 -0.4741  0.7992  0.1400
 4909TIP3    H136142   0.630   2.181  12.087 -0.1406  0.1447  0.0948
 4909TIP3    H236143   0.544   2.160  11.963 -0.0216 -0.6144  0.1380
 4910TIP3   OH236144   3.445   3.287   4.389 -0.2085  0.8273  0.6284
 4910TIP3    H136145   3.462   3.378   4.367 -1.4695  0.4946 -2.1895
 4910TIP3    H236146   3.481   3.237   4.316 -1.2723 -0.7778  1.1430
 4911TIP3   OH236147   3.836   4.324  15.825 -0.1532  0.5229  0.0681
 4911TIP3    H136148   3.786   4.370  15.892 -0.7498  1.0939 -0.7583
 4911TIP3    H236149   3.919   4.372  15.820  0.0330  0.2713  0.6238
 4912TIP3   OH236150   2.695   6.602   0.651 -0.0904 -0.1215  0.3651
 4912TIP3    H136151   2.748   6.680   0.631 -0.7185 -0.0205 -1.0189
 4912TIP3    H236152   2.619   6.610   0.594  0.2913 -2.2316 -0.5226
 4913TIP3   OH236153   1.835   5.869  13.385 -0.8827 -0.3139  0.2518
 4913TIP3    H136154   1.846   5.955  13.427  0.0902  0.0726 -0.7366
 4913TIP3    H236155   1.906   5.816  13.421  0.6285  0.3337 -1.5857
 4914TIP3   OH236156   5.525   4.309   2.105 -0.2017  0.2417  0.1195
 4914TIP3    H136157   5.616   4.337   2.109 -0.1641  0.8925 -2.8093
 4914TIP3    H236158   5.475   4.386   2.132  0.0795  0.4805 -0.0384
 4915TIP3   OH236159   3.686   0.097   4.608 -0.3586 -0.2054 -0.9638
 4915TIP3    H136160   3.717   0.187   4.619 -2.0582  0.1493  2.0390
 4915TIP3    H236161   3.596   0.107   4.576 -1.5552 -0.5574  1.9381
 4916TIP3   OH236162   1.511   2.845   5.101  0.0623  0.4911 -0.0070
 4916TIP3    H136163   1.478   2.756   5.086  1.2716 -0.1257  0.7982
 4916TIP3    H236164   1.581   2.834   5.164  1.6399  1.7726 -1.4402
 4917TIP3   OH236165   1.237   6.429  15.302  0.0230  1.1519 -0.0712
 4917TIP3    H136166   1.328   6.411  15.326  0.6933 -1.4995 -3.7344
 4917TIP3    H236167   1.185   6.380  15.366  1.4422 -1.4633 -0.7830
 4918TIP3   OH236168   5.756   1.621  16.826  0.4546  0.4140 -0.1353
 4918TIP3    H136169   5.718   1.602  16.912 -0.8767  0.8130 -0.5983
 4918TIP3    H236170   5.724   1.709  16.806  2.3293  1.1042 -0.2187
 4919TIP3   OH236171   2.004   3.828   5.656 -0.1081 -0.0481 -0.1236
 4919TIP3    H136172   1.970   3.772   5.587 -0.6244  1.4619 -1.1456
 4919TIP3    H236173   1.929   3.882   5.682  0.5331  0.6299  0.3575
 4920TIP3   OH236174   1.774   6.614   0.775  0.5432 -0.7880  0.1372
 4920TIP3    H136175   1.745   6.544   0.717 -2.1565  1.2181 -1.1691
 4920TIP3    H236176   1.696   6.638   0.825  1.2883  1.3945  0.3771
 4921TIP3   OH236177   0.425   1.933  16.935 -0.5289 -0.9711  0.2069
 4921TIP3    H136178   0.475   1.884  16.869  0.5508  0.0369  0.2392
 4921TIP3    H236179   0.466   1.910  17.018  0.0192 -0.0198  0.2186
 4922TIP3   OH236180   3.423   2.959  15.021  0.6836 -0.0204  0.0291
 4922TIP3    H136181   3.431   2.924  15.109  1.4841 -0.9089 -0.3787
 4922TIP3    H236182   3.380   2.890  14.971  0.7559  0.2422 -0.4058
 4923TIP3   OH236183   6.708   3.542   1.370 -0.0400  0.3750 -0.1668
 4923TIP3    H136184   6.784   3.590   1.404 -0.2503  0.0340  0.8269
 4923TIP3    H236185   6.729   3.527   1.278  0.9070  0.6628 -0.0138
 4924TIP3   OH236186   0.422   1.269  16.330  0.2134 -0.2688 -0.6007
 4924TIP3    H136187   0.491   1.292  16.392 -0.9823  0.4135  0.5406
 4924TIP3    H236188   0.450   1.307  16.247  0.9675  0.4640 -0.0313
 4925TIP3   OH236189   6.703   1.975   0.059  0.0182 -0.3751  0.3049
 4925TIP3    H136190   6.786   1.932   0.077  1.9801  3.1807  0.6356
 4925TIP3    H236191   6.678   2.017   0.141 -2.2161 -1.3868  0.2329
 4926TIP3   OH236192   4.470   2.923  14.847  0.7380 -0.6912  0.1590
 4926TIP3    H136193   4.401   2.956  14.905 -1.4000 -1.4239 -1.8559
 4926TIP3    H236194   4.450   2.831  14.835  3.3694 -1.4968  1.1895
 4927TIP3   OH236195   1.889   0.445   2.297 -0.5147  0.3777  0.1412
 4927TIP3    H136196   1.925   0.415   2.214  0.7036 -1.0997  1.1523
 4927TIP3    H236197   1.934   0.529   2.313  0.3858 -0.0636  0.0127
 4928TIP3   OH236198   0.200   3.868   2.716  0.4661  0.4131  0.2204
 4928TIP3    H136199   0.221   3.855   2.623 -1.1341  2.8175 -0.5757
 4928TIP3    H236200   0.116   3.824   2.729 -0.1124  1.4337  0.0630
 4929TIP3   OH236201   3.190   3.088   0.004  0.2617 -0.1953  0.0843
 4929TIP3    H136202   3.220   3.179   0.001  1.2702 -0.4965  0.5728
 4929TIP3    H236203   3.096   3.093  -0.007  0.2786  0.9341  0.3664
 4930TIP3   OH236204   5.486   4.795   3.166 -0.2176 -0.0414  0.3076
 4930TIP3    H136205   5.503   4.845   3.245  1.5253  0.4135 -0.2954
 4930TIP3    H236206   5.544   4.835   3.100 -1.0165 -0.9230 -0.9737
 4931TIP3   OH236207   4.979   1.868  14.463  0.1580 -0.8454 -0.3614
 4931TIP3    H136208   4.924   1.936  14.503  1.5890 -0.5745  1.2953
 4931TIP3    H236209   4.953   1.787  14.507  0.4872 -0.8503 -0.1670
 4932TIP3   OH236210   6.211   1.536   3.531 -0.2463 -0.6529 -0.0017
 4932TIP3    H136211   6.294   1.510   3.571  0.2817 -0.2476 -0.8043
 4932TIP3    H236212   6.147   1.476   3.569  0.0267  0.3333  2.1861
 4933TIP3   OH236213   0.010   6.186  11.008  0.3525  0.6014  0.5529
 4933TIP3    H136214   0.064   6.154  10.935  0.1736  0.4391  0.4907
 4933TIP3    H236215  -0.016   6.274  10.981  0.6731  0.7216  0.6301
 4934TIP3   OH236216   1.079   5.981  12.278  0.0620 -0.1830 -0.3291
 4934TIP3    H136217   1.166   5.956  12.248  0.3884 -0.9470  1.1852
 4934TIP3    H236218   1.094   6.047  12.346 -0.5295 -0.4631  0.0860
 4935TIP3   OH236219   2.949   6.148  15.867  0.4407 -0.0547 -0.4890
 4935TIP3    H136220   2.883   6.147  15.936 -0.1974  1.3039 -1.0581
 4935TIP3    H236221   2.950   6.058  15.834 -1.5517  0.0261 -0.8487
 4936TIP3   OH236222   6.229   6.274   2.674  0.6897 -0.3263 -0.1055
 4936TIP3    H136223   6.188   6.187   2.675 -0.1294 -0.0060  2.1487
 4936TIP3    H236224   6.207   6.310   2.588  1.7683 -2.6202 -1.4418
 4937TIP3   OH236225   2.444   3.896  11.502 -0.5985  0.1014 -0.4839
 4937TIP3    H136226   2.474   3.805  11.501 -1.1463 -0.0797 -0.8673
 4937TIP3    H236227   2.456   3.925  11.592 -3.1210 -1.2595  0.3746
 4938TIP3   OH236228   1.019   1.546  16.677 -1.2700  0.4544 -0.2549
 4938TIP3    H136229   1.091   1.542  16.614 -1.5581  0.9984 -0.6240
 4938TIP3    H236230   0.997   1.454  16.693 -1.8470  0.3029 -1.7107
 4939TIP3   OH236231   6.105   1.649  15.474 -0.3464 -0.2947 -0.3627
 4939TIP3    H136232   6.094   1.682  15.385 -0.1002 -0.9582 -0.6425
 4939TIP3    H236233   6.076   1.558  15.470 -0.8148 -0.1922  0.3531
 4940TIP3   OH236234   3.655   0.155  14.926  0.5052  0.1351 -0.8410
 4940TIP3    H136235   3.750   0.151  14.941  0.4127  1.4163  0.3113
 4940TIP3    H236236   3.617   0.133  15.011 -0.2691 -0.9788 -1.4513
 4941TIP3   OH236237   5.986   1.681  13.020 -0.2365 -0.0031  0.1088
 4941TIP3    H136238   5.939   1.761  12.995 -0.0370  0.2173  0.4272
 4941TIP3    H236239   6.023   1.648  12.938 -1.3943 -0.4811 -0.2366
 4942TIP3   OH236240   1.826   1.796  16.487  0.6474 -0.1329  0.0296
 4942TIP3    H136241   1.870   1.876  16.459 -1.4534  1.0626 -0.0417
 4942TIP3    H236242   1.897   1.734  16.504  2.3536  1.8622  0.4975
 4943TIP3   OH236243   0.651   6.414  16.999 -0.2077  0.1947  0.3660
 4943TIP3    H136244   0.737   6.399  17.038  0.1774  2.5490  0.5127
 4943TIP3    H236245   0.661   6.386  16.908  0.2525 -0.8888  0.7210
 4944TIP3   OH236246   5.820   4.244   4.820  0.0830 -0.7454  0.5134
 4944TIP3    H136247   5.816   4.248   4.725  2.1070  0.9309  0.4200
 4944TIP3    H236248   5.833   4.151   4.840  2.4757 -0.8370 -1.0754
 4945TIP3   OH236249   6.017   5.310   5.607  0.7356  0.3024  0.1009
 4945TIP3    H136250   6.007   5.221   5.573  2.2242 -0.7854  2.2472
 4945TIP3    H236251   6.017   5.299   5.702  0.2155  2.7275  0.4368
 4946TIP3   OH236252   2.583   2.105  13.077 -0.0216 -0.2551  0.3641
 4946TIP3    H136253   2.590   2.083  12.984  0.5223  0.7176  0.1676
 4946TIP3    H236254   2.674   2.109  13.107 -0.2145 -1.9649  1.2959
 4947TIP3   OH236255   3.450   4.898   3.299 -0.2157 -0.1569 -0.5974
 4947TIP3    H136256   3.432   4.805   3.293  1.2955 -0.4486 -1.0391
 4947TIP3    H236257   3.454   4.928   3.208  1.9337 -0.2459 -0.5896
 4948TIP3   OH236258   5.053   1.516  14.286 -0.7436 -0.1186  0.3967
 4948TIP3    H136259   5.033   1.522  14.192  0.3982  0.5445  0.1822
 4948TIP3    H236260   4.984   1.568  14.328 -1.7901 -1.1614  0.0155
 4949TIP3   OH236261   1.118   2.627  15.740 -0.2275 -0.0250  0.2687
 4949TIP3    H136262   1.154   2.622  15.651  0.2309 -0.5421  0.4795
 4949TIP3    H236263   1.173   2.568  15.792 -2.1428 -1.8884  0.3407
 4950TIP3   OH236264   2.971   5.777   1.487 -0.4674  0.4886  0.2009
 4950TIP3    H136265   3.057   5.813   1.466 -1.0193  0.8886 -1.5651
 4950TIP3    H236266   2.940   5.739   1.405 -1.0065 -1.7736  1.3859
 4951TIP3   OH236267   3.544   4.396  16.674  0.4968 -0.0118 -0.5017
 4951TIP3    H136268   3.478   4.456  16.639  1.4511  0.8810 -0.8277
 4951TIP3    H236269   3.541   4.410  16.769 -0.6319 -0.9000 -0.3808
 4952TIP3   OH236270   0.116   0.132   4.516  0.3820 -0.4070 -0.9161
 4952TIP3    H136271   0.064   0.083   4.579  1.3639 -1.2719 -0.7478
 4952TIP3    H236272   0.061   0.206   4.491  0.3782  0.6174  1.7918
 4953TIP3   OH236273   4.519   3.246   2.987 -0.1684 -0.0663  0.0049
 4953TIP3    H136274   4.462   3.175   3.017  0.7267 -0.8366 -0.0417
 4953TIP3    H236275   4.478   3.277   2.906 -0.2384 -0.9721 -0.3186
 4954TIP3   OH236276   2.753   5.164   2.641  0.5037  0.1523 -0.4071
 4954TIP3    H136277   2.824   5.108   2.672  1.0126  0.7913 -0.3991
 4954TIP3    H236278   2.674   5.128   2.682  0.4121 -2.1124 -2.3539
 4955TIP3   OH236279   4.812   4.996   0.522  0.1537  0.2254  0.2516
 4955TIP3    H136280   4.728   4.974   0.562  0.2768 -0.3592  0.2060
 4955TIP3    H236281   4.791   5.061   0.455 -0.5114 -1.0825 -0.8599
 4956TIP3   OH236282   3.676   2.036   4.159 -0.1652  0.4019  0.6560
 4956TIP3    H136283   3.589   2.060   4.189 -0.4916  1.2591 -0.8771
 4956TIP3    H236284   3.735   2.091   4.211 -0.5932  0.4726  1.0699
 4957TIP3   OH236285   2.830   6.492   1.580 -0.4591 -1.0073  0.7801
 4957TIP3    H136286   2.920   6.477   1.551 -0.6085 -3.3248  1.3153
 4957TIP3    H236287   2.798   6.563   1.524  1.4394 -0.6707  0.0509
 4958TIP3   OH236288   5.483   5.797   2.184  0.0103 -0.1742 -0.3091
 4958TIP3    H136289   5.525   5.860   2.243 -0.8518 -0.9939  1.2590
 4958TIP3    H236290   5.393   5.829   2.176 -0.2695 -0.8540  0.0203
 4959TIP3   OH236291   0.827   2.901   3.338  0.0939 -0.3902 -0.0809
 4959TIP3    H136292   0.832   2.973   3.401  1.0303 -0.4492 -0.0713
 4959TIP3    H236293   0.756   2.925   3.279  0.0767  0.3043  0.2148
 4960TIP3   OH236294   5.344   1.697   3.779  0.2210  0.5751  0.2888
 4960TIP3    H136295   5.413   1.704   3.712  0.7048  2.8299  0.9370
 4960TIP3    H236296   5.273   1.650   3.735  1.2735  0.2648 -1.1651
 4961TIP3   OH236297   3.474   1.389  14.981  0.4287 -0.3839  0.5327
 4961TIP3    H136298   3.420   1.312  14.960  0.6612  0.2097 -2.7528
 4961TIP3    H236299   3.544   1.354  15.036  0.2047 -2.4483 -0.3797
 4962TIP3   OH236300   0.602   4.290  16.597 -0.4631 -0.3623  0.0258
 4962TIP3    H136301   0.610   4.290  16.501 -1.6412  0.5336 -0.1014
 4962TIP3    H236302   0.556   4.209  16.617  0.4962 -0.9491 -0.0728
 4963TIP3   OH236303   2.566   1.139   0.931  0.4183 -0.3944  0.3629
 4963TIP3    H136304   2.502   1.192   0.883 -0.1894 -0.6518  0.8819
 4963TIP3    H236305   2.651   1.168   0.897  0.0527  0.2858  0.0094
 4964TIP3   OH236306   6.144   2.208  12.465  0.3142  0.4938  0.1809
 4964TIP3    H136307   6.202   2.278  12.436  1.1280 -0.6605 -1.1062
 4964TIP3    H236308   6.167   2.194  12.557  0.3849  1.6466  0.3545
 4965TIP3   OH236309   2.295   5.361  17.055  0.3946  0.6171  0.4452
 4965TIP3    H136310   2.251   5.279  17.080 -0.3394  0.3923 -1.4618
 4965TIP3    H236311   2.307   5.407  17.138 -1.6195 -0.2304  1.2778
 4966TIP3   OH236312   5.849   4.979  13.357 -0.3184  0.3449 -0.0574
 4966TIP3    H136313   5.887   4.929  13.429  0.8864 -0.3690 -1.1461
 4966TIP3    H236314   5.755   4.959  13.362 -0.2655  0.3751  1.3425
 4967TIP3   OH236315   5.717   5.227   4.936  0.3497  0.1066 -0.1624
 4967TIP3    H136316   5.738   5.320   4.935 -1.9788  0.7027 -1.7723
 4967TIP3    H236317   5.765   5.190   4.861  1.9195 -0.2188  0.9499
 4968TIP3   OH236318   1.977   2.632   4.368 -0.1071  0.1717 -0.4913
 4968TIP3    H136319   2.025   2.655   4.447  0.6002  0.0860 -0.8870
 4968TIP3    H236320   2.042   2.592   4.311 -0.8133 -0.6588 -0.7452
 4969TIP3   OH236321   3.611   6.124   6.093  0.7055  0.0845 -0.4906
 4969TIP3    H136322   3.666   6.196   6.065  0.4828  0.6821  0.5539
 4969TIP3    H236323   3.524   6.163   6.102  0.8616  0.0709  1.4946
 4970TIP3   OH236324   3.822   2.654  15.163 -0.5988  0.4444  0.1316
 4970TIP3    H136325   3.791   2.737  15.197 -0.7888  0.6066 -0.4356
 4970TIP3    H236326   3.917   2.655  15.180 -0.6990  0.4894  0.7118
 4971TIP3   OH236327   3.392   2.714  13.519 -0.1983  0.2777  0.2453
 4971TIP3    H136328   3.452   2.643  13.541 -0.7094  0.2691  1.7316
 4971TIP3    H236329   3.404   2.779  13.589 -1.3205  0.6407  0.1277
 4972TIP3   OH236330   6.276   0.111   3.663  0.3082 -0.0178 -0.8772
 4972TIP3    H136331   6.345   0.138   3.723 -1.8682  0.1258  1.7727
 4972TIP3    H236332   6.305   0.026   3.631  0.5440 -1.3502  2.4175
 4973TIP3   OH236333   3.820   2.581   4.335  0.3394 -0.1291  0.0323
 4973TIP3    H136334   3.881   2.621   4.272  1.2033 -0.9693  0.3134
 4973TIP3    H236335   3.831   2.634   4.414  1.0838 -0.5732  0.2362
 4974TIP3   OH236336   1.607   0.095  12.511 -0.3101  0.0814 -0.1231
 4974TIP3    H136337   1.637   0.017  12.557  0.9589 -0.2288 -1.4019
 4974TIP3    H236338   1.557   0.062  12.437 -1.0847  0.5401  0.1810
 4975TIP3   OH236339   5.933   0.077   4.847 -0.1217 -0.0883 -0.0761
 4975TIP3    H136340   5.886   0.038   4.920  0.1341  0.8085  0.5935
 4975TIP3    H236341   6.017   0.104   4.885  0.2633 -0.1737 -0.8548
 4976TIP3   OH236342   0.368   1.913  13.443  0.6843  0.4028 -0.4176
 4976TIP3    H136343   0.408   1.999  13.434  1.1686  0.3662  1.1233
 4976TIP3    H236344   0.320   1.900  13.361  1.0866  1.8694 -0.9130
 4977TIP3   OH236345   0.635   4.957   5.130 -0.3171  0.7708  0.1814
 4977TIP3    H136346   0.540   4.945   5.126 -0.2687  0.1730  0.6196
 4977TIP3    H236347   0.650   5.006   5.211 -0.1439 -0.5443  0.9788
 4978TIP3   OH236348   2.425   1.859  16.096  0.1068 -0.3934  0.0404
 4978TIP3    H136349   2.448   1.936  16.044 -2.0858  0.5161  0.3041
 4978TIP3    H236350   2.488   1.792  16.070  2.8715  1.7857  0.6511
 4979TIP3   OH236351   2.501   4.396   3.412  0.0726  0.6974 -0.3445
 4979TIP3    H136352   2.555   4.462   3.369 -1.0114  0.6446 -1.8679
 4979TIP3    H236353   2.480   4.433   3.498  2.8362  0.5193  0.5023
 4980TIP3   OH236354   4.590   2.902   2.911 -0.0302  0.2243  0.2834
 4980TIP3    H136355   4.660   2.935   2.967 -0.0175 -1.4027  1.2901
 4980TIP3    H236356   4.513   2.899   2.968 -0.1806 -0.8090  0.0431
 4981TIP3   OH236357   6.781   2.366   1.804 -0.6501 -0.1555  0.1436
 4981TIP3    H136358   6.760   2.272   1.802  2.3485 -0.9539  0.9919
 4981TIP3    H236359   6.874   2.370   1.781 -0.5916  2.6020  0.5284
 4982TIP3   OH236360   4.320   3.373   4.743  0.0796 -0.4907 -0.6968
 4982TIP3    H136361   4.230   3.374   4.710 -0.0526  1.9030 -0.4392
 4982TIP3    H236362   4.313   3.332   4.829 -0.8264 -0.1367 -0.5859
 4983TIP3   OH236363   3.524   4.736   5.554 -0.0338  0.1547  0.0724
 4983TIP3    H136364   3.617   4.753   5.568 -0.0933  1.3171 -0.7694
 4983TIP3    H236365   3.490   4.819   5.520 -0.8965 -0.9675 -1.9392
 4984TIP3   OH236366   2.758   5.408   1.232 -0.2079 -0.2092 -0.0331
 4984TIP3    H136367   2.734   5.399   1.324 -1.8765 -2.0366 -0.5731
 4984TIP3    H236368   2.819   5.337   1.216  0.9830  0.8015 -0.1014
 4985TIP3   OH236369   5.741   1.440   2.311  0.3091  0.5201 -0.0986
 4985TIP3    H136370   5.668   1.419   2.253  0.7024  0.0271 -0.4175
 4985TIP3    H236371   5.797   1.362   2.309  0.8601  0.9043  0.1227
 4986TIP3   OH236372   5.048   2.928  11.458 -0.2903 -0.2613 -0.4393
 4986TIP3    H136373   5.113   2.897  11.521 -0.9768  1.4386  1.2119
 4986TIP3    H236374   4.982   2.972  11.512 -0.9308  1.2566 -2.3468
 4987TIP3   OH236375   5.980   4.020   3.969 -0.4186 -0.2423  0.0447
 4987TIP3    H136376   6.003   4.027   3.876 -1.3121 -0.0938 -0.1749
 4987TIP3    H236377   5.889   3.990   3.969 -0.9746  1.3290  0.8328
 4988TIP3   OH236378   5.890   6.353  13.127  0.1609  0.1372  0.4786
 4988TIP3    H136379   5.983   6.361  13.103 -0.2560  2.8862 -0.6586
 4988TIP3    H236380   5.880   6.410  13.203 -0.7379  0.6664 -0.0149
 4989TIP3   OH236381   1.336   1.888  14.050 -0.0155  0.5152  0.8276
 4989TIP3    H136382   1.246   1.865  14.028  0.1279 -1.5337  2.1175
 4989TIP3    H236383   1.383   1.884  13.966 -0.8160 -0.0100  0.3925
 4990TIP3   OH236384   4.990   2.088  11.244 -0.1674  0.2516 -0.1495
 4990TIP3    H136385   4.986   2.118  11.153 -2.5107  0.9616  0.1107
 4990TIP3    H236386   4.931   2.013  11.246  0.6194 -0.3646  0.6032
 4991TIP3   OH236387   0.812   3.418  11.294  0.2239 -0.0078  0.1079
 4991TIP3    H136388   0.889   3.397  11.241  2.1781 -0.1474  2.8036
 4991TIP3    H236389   0.790   3.335  11.338 -1.8292 -0.0948 -0.9508
 4992TIP3   OH236390   4.251   0.340  14.726 -0.1812  0.5054  0.1021
 4992TIP3    H136391   4.163   0.370  14.746 -1.2444 -2.0822 -0.2195
 4992TIP3    H236392   4.283   0.303  14.809 -0.5467 -1.0311 -0.4026
 4993TIP3   OH236393   4.623   6.550  11.689 -0.4322  0.0262 -0.5573
 4993TIP3    H136394   4.643   6.457  11.699  0.6684  0.3818  1.1166
 4993TIP3    H236395   4.687   6.594  11.745 -1.6009  1.7313 -0.4778
 4994TIP3   OH236396   0.978   5.670  15.875 -0.6524  0.4659 -0.3546
 4994TIP3    H136397   1.072   5.654  15.869 -0.6240  0.3867  0.2116
 4994TIP3    H236398   0.943   5.640  15.792 -0.2847 -0.3090 -0.2367
 4995TIP3   OH236399   2.869   4.527   3.473 -0.2221 -0.4383  0.6312
 4995TIP3    H136400   2.921   4.606   3.490  1.8119 -1.4693 -0.4227
 4995TIP3    H236401   2.842   4.498   3.560 -1.7592  1.8080  1.0112
 4996TIP3   OH236402   2.148   3.676  11.590 -0.1840 -0.1570 -0.0568
 4996TIP3    H136403   2.106   3.756  11.559 -3.3898 -1.3523  0.7933
 4996TIP3    H236404   2.163   3.691  11.684  3.9527  1.2141 -0.7671
 4997TIP3   OH236405   2.138   5.412  16.136 -0.8904  0.1779 -0.2758
 4997TIP3    H136406   2.050   5.408  16.097 -1.2598 -0.6064  0.6038
 4997TIP3    H236407   2.131   5.359  16.215  0.6467 -0.7067 -0.7095
 4998TIP3   OH236408   4.881   1.647  14.588 -0.0488 -0.4743 -0.1629
 4998TIP3    H136409   4.837   1.592  14.523 -0.7432 -2.2839  1.6894
 4998TIP3    H236410   4.846   1.616  14.672  0.5271  1.9873  1.0800
 4999TIP3   OH236411   4.077   4.803  16.912  0.0236 -1.3023  0.3274
 4999TIP3    H136412   4.172   4.812  16.915 -0.0590 -0.4315  1.5969
 4999TIP3    H236413   4.056   4.794  16.819  1.1183  1.6457 -0.3180
 5000TIP3   OH236414   6.170   4.899   2.454  0.2049 -0.2196  0.1252
 5000TIP3    H136415   6.206   4.935   2.535  0.0139  2.6394 -0.9414
 5000TIP3    H236416   6.082   4.868   2.478  0.7923 -1.0130  1.3291
 5001TIP3   OH236417   1.586   3.047   2.838 -0.2550 -0.7449  0.6957
 5001TIP3    H136418   1.568   2.996   2.918  0.3789  0.0827  1.3879
 5001TIP3    H236419   1.670   3.012   2.807  0.4085  0.1586  1.4262
 5002TIP3   OH236420   4.297   5.208   0.491  0.2401  0.1152 -0.2728
 5002TIP3    H136421   4.294   5.124   0.537  0.9079  0.7697  1.0472
 5002TIP3    H236422   4.316   5.185   0.400 -0.9496 -1.2229 -0.2136
 5003TIP3   OH236423   5.660   4.041   2.594 -0.4095  0.2842 -0.2408
 5003TIP3    H136424   5.611   4.039   2.676 -0.4323 -4.0082 -0.1702
 5003TIP3    H236425   5.751   4.026   2.621 -0.4692 -1.5536 -0.9264
 5004TIP3   OH236426   0.038   0.814   1.401 -0.3385 -0.0923  0.0962
 5004TIP3    H136427  -0.005   0.879   1.345 -0.3086  0.2740  0.4890
 5004TIP3    H236428   0.017   0.842   1.490  0.5585 -0.0213  0.2870
 5005TIP3   OH236429   0.682   6.610  11.724  0.5870 -0.1294  0.8399
 5005TIP3    H136430   0.724   6.664  11.657 -3.7365 -0.9690 -3.1438
 5005TIP3    H236431   0.720   6.523  11.712  0.9649  0.0695  0.5710
 5006TIP3   OH236432   4.049   2.426   1.917  0.4275  0.3764 -0.6185
 5006TIP3    H136433   4.004   2.447   1.835 -0.0310  0.8163 -0.2621
 5006TIP3    H236434   4.142   2.440   1.899  0.3397  0.3501 -1.0951
 5007TIP3   OH236435   3.961   2.670  13.090 -0.2327 -0.0391  0.1409
 5007TIP3    H136436   3.869   2.671  13.116 -0.3411 -1.0806 -0.1541
 5007TIP3    H236437   3.977   2.580  13.062  0.7287  0.2705 -0.3476
 5008TIP3   OH236438   0.917   6.746  16.846  0.0810  0.3932 -0.8770
 5008TIP3    H136439   0.843   6.685  16.848 -0.3566  0.8570 -2.0749
 5008TIP3    H236440   0.893   6.814  16.910  0.8278 -0.9152  0.8834
 5009TIP3   OH236441   3.742   1.332   0.605 -0.2315 -0.4253 -0.2875
 5009TIP3    H136442   3.701   1.354   0.689  1.1993 -0.4768  0.4649
 5009TIP3    H236443   3.669   1.326   0.543 -1.1386  1.7280  0.4724
 5010TIP3   OH236444   3.322   4.007  14.998 -0.2877 -0.1737 -0.3865
 5010TIP3    H136445   3.232   4.010  14.965  0.1716 -0.5000 -1.7534
 5010TIP3    H236446   3.316   4.035  15.089 -1.8187 -0.5256 -0.3590
 5011TIP3   OH236447   5.596   2.731  13.379 -0.5341  0.3069  0.0574
 5011TIP3    H136448   5.556   2.817  13.371  0.4375  0.7963  0.3651
 5011TIP3    H236449   5.677   2.746  13.427 -0.7774 -0.9130  0.8844
 5012TIP3   OH236450   2.514   5.225   0.621  0.1308 -0.0100  0.0925
 5012TIP3    H136451   2.500   5.143   0.574  0.7322  0.2893 -0.6422
 5012TIP3    H236452   2.473   5.212   0.706  0.2245 -1.0663 -0.0146
 5013TIP3   OH236453   1.638   4.544  15.459 -0.4487 -0.0725  0.4620
 5013TIP3    H136454   1.589   4.465  15.436 -0.6133  0.1972 -0.1397
 5013TIP3    H236455   1.662   4.532  15.551 -0.3665 -0.8722  0.3367
 5014TIP3   OH236456   3.100   1.197   5.726  0.1179 -0.4665 -0.6741
 5014TIP3    H136457   3.120   1.285   5.695 -2.0313  1.5953  3.1603
 5014TIP3    H236458   3.013   1.177   5.690 -0.1239 -0.3016 -0.1820
 5015TIP3   OH236459   5.260   4.590  14.964  0.2067 -0.0486 -0.7419
 5015TIP3    H136460   5.328   4.588  15.031 -0.2270 -0.2106 -0.3034
 5015TIP3    H236461   5.274   4.673  14.918 -0.0045  0.4616  0.0935
 5016TIP3   OH236462   1.819   5.116   3.980  0.5852  0.3976 -0.2435
 5016TIP3    H136463   1.884   5.186   3.968  1.5274 -0.7694 -2.5727
 5016TIP3    H236464   1.790   5.095   3.891 -0.7963 -1.1376  0.5277
 5017TIP3   OH236465   0.240   1.730  14.539  0.3640 -0.3574  0.0984
 5017TIP3    H136466   0.266   1.690  14.457 -1.1742 -1.3937  0.0600
 5017TIP3    H236467   0.154   1.769  14.521 -0.0466 -0.6835  1.2125
 5018TIP3   OH236468   1.011   1.283   0.443 -0.0823  0.1846 -0.3710
 5018TIP3    H136469   1.100   1.249   0.444 -0.6131 -1.2780  0.3360
 5018TIP3    H236470   0.976   1.260   0.529 -0.1359  3.6354  0.6949
 5019TIP3   OH236471   6.304   6.494  16.845 -0.1411 -0.9101 -0.5708
 5019TIP3    H136472   6.371   6.515  16.780 -0.6804  1.4904 -0.4206
 5019TIP3    H236473   6.267   6.578  16.871 -1.3025 -1.9489  1.4328
 5020TIP3   OH236474   2.361   2.095  10.666 -0.6465  0.4348 -0.5998
 5020TIP3    H136475   2.323   2.076  10.752  0.4746  0.7094 -0.0160
 5020TIP3    H236476   2.332   2.023  10.610 -1.4112  0.2635 -0.0003
 5021TIP3   OH236477   4.268   1.054   1.471 -0.0847 -0.6828 -0.0154
 5021TIP3    H136478   4.337   0.988   1.465 -0.6798 -1.2440 -1.0488
 5021TIP3    H236479   4.230   1.041   1.557  0.1327 -1.3709 -0.0159
 5022TIP3   OH236480   1.779   4.944  15.954 -0.3848  0.0810 -0.2205
 5022TIP3    H136481   1.840   5.009  15.919 -0.0497 -0.6320 -1.0126
 5022TIP3    H236482   1.829   4.901  16.024 -0.0734 -0.2898 -0.6602
 5023TIP3   OH236483   4.233   4.304  14.798 -0.5096 -0.8625 -0.2840
 5023TIP3    H136484   4.160   4.335  14.745  0.4155  0.5298 -0.7742
 5023TIP3    H236485   4.311   4.322  14.746  0.3173 -0.7969  0.9232
 5024TIP3   OH236486   1.604   2.951   6.609  0.1292 -0.6711  0.0061
 5024TIP3    H136487   1.647   2.877   6.566  0.3278 -0.8727  0.5478
 5024TIP3    H236488   1.572   2.916   6.692  0.0918 -0.1882  0.1986
 5025TIP3   OH236489   2.330   0.435  16.075  0.1384 -0.0003 -0.4686
 5025TIP3    H136490   2.238   0.414  16.056  0.8480 -1.4769 -2.6601
 5025TIP3    H236491   2.333   0.442  16.170 -2.2450  0.0858 -0.3243
 5026TIP3   OH236492   3.142   5.716   3.563 -0.0455 -0.3759  0.1256
 5026TIP3    H136493   3.099   5.800   3.580  2.2991  0.9814 -0.3316
 5026TIP3    H236494   3.133   5.668   3.645 -3.1031 -0.5527 -0.1880
 5027TIP3   OH236495   0.735   6.317   5.124  0.2031 -0.0961 -0.2580
 5027TIP3    H136496   0.708   6.409   5.117 -0.1637 -0.1418  0.4917
 5027TIP3    H236497   0.830   6.320   5.136  0.3969  0.1187 -1.6779
 5028TIP3   OH236498   0.277   5.242  12.971 -0.6778  0.1578 -0.1734
 5028TIP3    H136499   0.254   5.183  13.044  0.2641 -0.3653 -0.2833
 5028TIP3    H236500   0.291   5.183  12.897  0.3307  0.5212 -0.2765
 5029TIP3   OH236501   1.237   5.337  17.081 -0.7458 -0.5817 -0.2073
 5029TIP3    H136502   1.276   5.395  17.015 -0.1768  0.1124  0.7160
 5029TIP3    H236503   1.274   5.367  17.164 -1.1147 -1.7226  0.3860
 5030TIP3   OH236504   3.838   2.355  15.751 -0.1053 -0.2647  0.8480
 5030TIP3    H136505   3.802   2.437  15.784  0.5030  0.8563 -1.0804
 5030TIP3    H236506   3.933   2.364  15.761  0.0854  0.0288 -0.8838
 5031TIP3   OH236507   3.939   1.111   2.521 -0.4880  0.2124 -0.1946
 5031TIP3    H136508   3.844   1.103   2.531 -0.4276  0.2674  0.4795
 5031TIP3    H236509   3.953   1.199   2.486 -0.5302  1.4364  2.5917
 5032TIP3   OH236510   2.950   2.087  12.293  0.2010  0.0668  0.4286
 5032TIP3    H136511   2.933   2.000  12.326  1.0045 -0.6821 -1.0037
 5032TIP3    H236512   2.867   2.116  12.257 -0.0918 -0.0617  0.9954
 5033TIP3   OH236513   5.419   3.979   2.434  0.1457  0.1760 -0.1956
 5033TIP3    H136514   5.436   3.986   2.340  1.9040  0.8128  0.1304
 5033TIP3    H236515   5.428   4.068   2.467 -4.4233  0.7508  0.0687
 5034TIP3   OH236516   0.428   1.616  10.901  0.5661  0.0215  0.3260
 5034TIP3    H136517   0.473   1.549  10.849 -0.0279  0.6202 -1.0094
 5034TIP3    H236518   0.462   1.605  10.989  1.7658 -0.9070 -0.2256
 5035TIP3   OH236519   5.407   1.997  13.031  1.0821  0.2774  0.3452
 5035TIP3    H136520   5.317   2.024  13.054 -0.0725 -2.9856  0.1621
 5035TIP3    H236521   5.462   2.043  13.095 -0.8598  1.0530  1.5854
 5036TIP3   OH236522   4.952   3.442   0.353  0.2241 -0.4991  0.3897
 5036TIP3    H136523   5.018   3.497   0.309 -2.3098  0.0230 -3.1317
 5036TIP3    H236524   4.899   3.505   0.403  0.5218 -0.5159  0.7344
 5037TIP3   OH236525   5.780   1.284  15.817  0.3316  0.3176  0.8634
 5037TIP3    H136526   5.866   1.272  15.857  0.1163 -1.6640  0.8206
 5037TIP3    H236527   5.747   1.195  15.801 -0.7771  1.0093 -1.1811
 5038TIP3   OH236528   1.755   2.822  15.236  0.0627 -0.2827 -0.0206
 5038TIP3    H136529   1.836   2.848  15.192 -0.3877  2.2303  0.5330
 5038TIP3    H236530   1.745   2.884  15.308 -1.0727 -2.1070  1.4938
 5039TIP3   OH236531   0.673   1.661  14.818  0.2387  0.2132 -0.3550
 5039TIP3    H136532   0.696   1.569  14.805  0.7500  0.1628  0.8112
 5039TIP3    H236533   0.605   1.660  14.885  1.2626  0.7498  0.7324
 5040TIP3   OH236534   6.080   6.316   1.565 -0.1246  0.5714  0.4947
 5040TIP3    H136535   5.992   6.346   1.546  0.6363  2.1487 -0.7280
 5040TIP3    H236536   6.118   6.383   1.621  0.8277  0.7680 -0.3473
 5041TIP3   OH236537   0.062   4.639  13.882  0.4993 -0.5365  0.5747
 5041TIP3    H136538   0.149   4.614  13.852 -0.6190 -2.5311 -1.2822
 5041TIP3    H236539   0.022   4.557  13.909 -0.8717  0.3362  1.3039
 5042TIP3   OH236540   6.009   3.274  13.042 -0.2730 -0.2968  0.2082
 5042TIP3    H136541   5.930   3.229  13.071 -0.4064 -1.8366 -2.2666
 5042TIP3    H236542   6.081   3.223  13.080 -0.4288  0.3969  1.4753
 5043TIP3   OH236543   6.159   3.852   6.279 -0.0711  0.0178 -0.3903
 5043TIP3    H136544   6.149   3.942   6.249  0.1224  0.2420  0.1993
 5043TIP3    H236545   6.254   3.840   6.286 -0.1235  0.3660  1.2641
 5044TIP3   OH236546   0.344   6.034   2.543  0.0781 -0.1951  0.2233
 5044TIP3    H136547   0.409   6.029   2.614 -0.4836  0.7366  0.8232
 5044TIP3    H236548   0.329   6.127   2.531 -1.5898 -0.3943  0.5183
 5045TIP3   OH236549   4.905   5.261   1.429 -0.6474 -0.3302 -0.6946
 5045TIP3    H136550   4.814   5.292   1.422 -0.4651  0.2444 -0.5765
 5045TIP3    H236551   4.939   5.268   1.340 -0.2114  1.0800 -0.4430
 5046TIP3   OH236552   0.667   3.812  14.668  1.1268  0.2438  0.0853
 5046TIP3    H136553   0.685   3.823  14.761  2.4212 -0.6890 -0.0229
 5046TIP3    H236554   0.728   3.871  14.624 -1.0476  2.4457 -0.1711
 5047TIP3   OH236555   1.692   2.530   3.141  0.8614  0.1068 -0.3804
 5047TIP3    H136556   1.597   2.536   3.128  1.1658  1.7670 -2.2139
 5047TIP3    H236557   1.704   2.549   3.234 -0.6114 -0.2292 -0.0983
 5048TIP3   OH236558   1.230   2.555   0.326 -0.1497  0.1982 -0.1669
 5048TIP3    H136559   1.216   2.471   0.282  0.2333  0.5140 -0.8993
 5048TIP3    H236560   1.234   2.619   0.256 -0.7751  0.8912  0.4090
 5049TIP3   OH236561   3.158   5.175  10.845 -0.1355  0.3776 -0.4985
 5049TIP3    H136562   3.164   5.084  10.873  1.1604  0.2354 -1.1472
 5049TIP3    H236563   3.134   5.224  10.924  0.3954 -0.3738  0.1415
 5050TIP3   OH236564   1.089   1.536  11.084  0.2010 -0.5186  0.6248
 5050TIP3    H136565   1.168   1.516  11.134  1.0497 -0.7802 -0.7493
 5050TIP3    H236566   1.080   1.631  11.091  1.6379 -0.2445 -0.5432
 5051TIP3   OH236567   4.848   5.893  14.055  0.4345 -0.0506  0.5321
 5051TIP3    H136568   4.928   5.880  14.004 -0.6069 -1.7464 -0.7673
 5051TIP3    H236569   4.796   5.814  14.039 -0.4168 -0.1623  3.4197
 5052TIP3   OH236570   6.098   0.506   1.531  0.8257 -0.3519  0.1008
 5052TIP3    H136571   6.189   0.510   1.561  0.8692  0.9254 -0.1230
 5052TIP3    H236572   6.051   0.463   1.602  1.2778  0.7902  1.1352
 5053TIP3   OH236573   3.350   6.471  12.385 -0.1258 -0.4060 -0.5555
 5053TIP3    H136574   3.260   6.441  12.389 -0.9008  1.8305  2.0615
 5053TIP3    H236575   3.347   6.548  12.327 -0.2233  0.4099  0.4924
 5054TIP3   OH236576   2.302   2.006   4.510 -0.2124  0.5585 -0.2173
 5054TIP3    H136577   2.332   1.951   4.583 -0.1356  1.4199  0.4187
 5054TIP3    H236578   2.280   1.944   4.441 -2.1147 -0.4340  1.1883
 5055TIP3   OH236579   6.086   5.156  10.742 -0.1021 -0.0129  0.5515
 5055TIP3    H136580   6.088   5.243  10.702  0.1398 -0.1906  0.1823
 5055TIP3    H236581   6.017   5.162  10.808 -1.1917 -0.0278 -0.5686
 5056TIP3   OH236582   1.522   4.055   1.634 -0.0611  0.3730 -0.0259
 5056TIP3    H136583   1.569   4.075   1.715 -0.0974 -2.4901  0.8189
 5056TIP3    H236584   1.590   4.057   1.566  0.5449  0.0424  0.5563
 5057TIP3   OH236585   4.892   6.481   4.385  0.4006 -0.5560  0.3708
 5057TIP3    H136586   4.913   6.433   4.306 -1.0332 -2.1915  0.9399
 5057TIP3    H236587   4.843   6.558   4.355 -0.0680 -1.1259 -0.3439
 5058TIP3   OH236588   5.030   3.999  11.877 -0.4186  0.4731  0.6103
 5058TIP3    H136589   5.016   4.069  11.941  4.1535  3.6035 -1.2691
 5058TIP3    H236590   4.994   4.034  11.795 -0.7349 -0.7600  0.2001
 5059TIP3   OH236591   3.266   0.918  13.057 -0.2425 -0.0811 -0.0714
 5059TIP3    H136592   3.304   0.980  13.120  0.4188  0.6023 -1.1099
 5059TIP3    H236593   3.341   0.864  13.030 -0.6630 -0.8383  0.2363
 5060TIP3   OH236594   3.583   0.946   4.440  0.7735  0.1778  0.0935
 5060TIP3    H136595   3.665   0.987   4.411  1.3656 -0.5035  0.7863
 5060TIP3    H236596   3.596   0.853   4.424  0.0358  0.0864 -0.0008
 5061TIP3   OH236597   4.403   5.706  16.167  0.1738 -0.6484 -0.3973
 5061TIP3    H136598   4.308   5.715  16.166 -0.1024 -2.9241 -0.6735
 5061TIP3    H236599   4.419   5.628  16.221  1.5481 -2.7571 -3.5834
 5062TIP3   OH236600   5.866   6.121  16.823  0.2289  0.1935  0.3620
 5062TIP3    H136601   5.915   6.040  16.834  0.6869  0.4270  0.0908
 5062TIP3    H236602   5.926   6.189  16.855  1.2168  0.7984 -2.4887
 5063TIP3   OH236603   3.508   4.125  12.233 -0.2165  0.3116 -0.5674
 5063TIP3    H136604   3.564   4.153  12.306  0.1421  1.4268 -1.2400
 5063TIP3    H236605   3.509   4.199  12.173  1.6319 -1.5005 -2.9903
 5064TIP3   OH236606   1.600   3.769  15.760 -0.1010 -1.1702 -0.1066
 5064TIP3    H136607   1.616   3.815  15.677  0.1514 -0.3169  0.4044
 5064TIP3    H236608   1.513   3.730  15.749 -1.4686  1.5134  0.3235
 5065TIP3   OH236609   0.944   1.332  15.956  0.8899  0.5651  0.4470
 5065TIP3    H136610   0.915   1.271  15.888 -0.9137  1.3466  0.4606
 5065TIP3    H236611   0.885   1.314  16.030 -1.0653  3.5599 -0.2087
 5066TIP3   OH236612   3.710   0.150   3.502  0.0951  0.5139 -0.1231
 5066TIP3    H136613   3.631   0.175   3.550 -1.5717 -0.7783 -1.9972
 5066TIP3    H236614   3.688   0.164   3.410  1.3709 -1.5532 -0.8245
 5067TIP3   OH236615   0.418   2.461  14.513 -0.0050 -0.1364 -0.0109
 5067TIP3    H136616   0.500   2.459  14.463  0.9663  0.4575  1.4720
 5067TIP3    H236617   0.430   2.392  14.579 -0.7359 -0.0791  0.1820
 5068TIP3   OH236618   0.898   6.596  16.502 -0.5536  1.1162  0.0469
 5068TIP3    H136619   0.914   6.551  16.418 -1.6333 -0.2838  0.5480
 5068TIP3    H236620   0.887   6.688  16.478 -0.8651  0.7374 -1.3672
 5069TIP3   OH236621   4.370   1.164   5.923  0.3268 -0.2009 -0.2893
 5069TIP3    H136622   4.372   1.228   5.851  1.4841 -0.0588 -0.1470
 5069TIP3    H236623   4.453   1.116   5.915  0.0394 -0.8266  0.3834
 5070TIP3   OH236624   2.274   2.697   3.957 -0.0151  0.3566 -0.1027
 5070TIP3    H136625   2.324   2.778   3.964  2.0281 -0.7212 -0.9889
 5070TIP3    H236626   2.339   2.632   3.929 -1.7277 -1.4148 -0.1947
 5071TIP3   OH236627   4.934   2.198  16.875 -0.1431  0.2133  0.1904
 5071TIP3    H136628   4.888   2.202  16.959  0.4826 -0.1208  0.5631
 5071TIP3    H236629   4.866   2.206  16.809 -0.8887 -1.4630  0.7056
 5072TIP3   OH236630   1.229   5.606  14.371  0.2379 -0.4347  0.2449
 5072TIP3    H136631   1.265   5.660  14.441  1.0360 -0.1272 -0.3756
 5072TIP3    H236632   1.189   5.531  14.415 -1.1771  0.8030  1.1466
 5073TIP3   OH236633   0.337   0.987  15.675  0.1202 -0.4448  0.1516
 5073TIP3    H136634   0.380   1.064  15.637 -0.1763 -0.7249 -0.7652
 5073TIP3    H236635   0.325   1.010  15.767 -0.0254  0.6452 -0.1215
 5074TIP3   OH236636   6.314   4.924   1.438  0.2580 -0.1165 -0.1128
 5074TIP3    H136637   6.231   4.946   1.396  1.1345 -0.3990 -2.0935
 5074TIP3    H236638   6.344   4.844   1.394  2.2711  0.7927 -0.5369
 5075TIP3   OH236639   0.599   3.755   3.718  0.2695 -0.7926 -0.2201
 5075TIP3    H136640   0.584   3.664   3.743 -0.8426 -0.4505  0.4272
 5075TIP3    H236641   0.531   3.804   3.764  1.8683  0.5707  0.7911
 5076TIP3   OH236642   3.885   2.398  13.418  0.6220  0.6202  0.8611
 5076TIP3    H136643   3.886   2.431  13.508  2.0284  0.0044  1.1012
 5076TIP3    H236644   3.970   2.424  13.382 -0.0036  1.0369 -0.3659
 5077TIP3   OH236645   1.475   4.199  16.490  0.0441  0.3398 -0.1948
 5077TIP3    H136646   1.537   4.178  16.560  0.5753  0.4495 -0.6190
 5077TIP3    H236647   1.497   4.288  16.464 -2.5589  1.7384  1.9616
 5078TIP3   OH236648   5.507   2.749   4.399  0.0748  0.0049 -0.2938
 5078TIP3    H136649   5.564   2.701   4.339  1.7992 -0.1131  1.3716
 5078TIP3    H236650   5.459   2.681   4.446  1.5751 -0.1154  1.1502
 5079TIP3   OH236651   1.494   1.074  15.473 -0.2609 -0.5757 -0.1887
 5079TIP3    H136652   1.588   1.082  15.486 -0.4750  1.0761  0.5760
 5079TIP3    H236653   1.469   0.996  15.523  0.4421 -0.0017  1.1047
 5080TIP3   OH236654   0.190   6.721  16.481 -0.2566 -0.6770 -0.1167
 5080TIP3    H136655   0.151   6.767  16.555 -0.5433  1.0083 -1.2575
 5080TIP3    H236656   0.134   6.645  16.468 -0.3123 -0.9015  1.2436
 5081TIP3   OH236657   4.444   1.209  12.976  0.2291 -0.2408 -0.6590
 5081TIP3    H136658   4.501   1.133  12.961  0.2055 -0.0620 -1.6812
 5081TIP3    H236659   4.430   1.246  12.889 -1.5419 -0.3413 -0.4464
 5082TIP3   OH236660   3.974   6.107  13.506  0.3799  0.5801 -0.0634
 5082TIP3    H136661   3.892   6.149  13.531  1.6146  2.8391  0.3799
 5082TIP3    H236662   4.033   6.179  13.484  2.1082 -1.0033 -0.8870
 5083TIP3   OH236663   3.664   6.469  14.953  0.2327 -0.2080  0.2044
 5083TIP3    H136664   3.641   6.377  14.960 -1.7976  0.2659  0.1902
 5083TIP3    H236665   3.655   6.489  14.860  0.1076  0.1419  0.2912
 5084TIP3   OH236666   3.788   5.369   1.294 -0.6612 -0.6047  0.2889
 5084TIP3    H136667   3.729   5.296   1.277 -0.8838 -0.8140  1.7994
 5084TIP3    H236668   3.731   5.445   1.307 -0.4781 -0.3583 -0.2845
 5085TIP3   OH236669   5.402   0.368   3.033 -0.3952  0.7575  0.3863
 5085TIP3    H136670   5.320   0.353   2.986  0.6525 -1.4136 -0.9271
 5085TIP3    H236671   5.463   0.400   2.967  0.1632  1.1064  1.0504
 5086TIP3   OH236672   6.034   2.535  11.162  0.3672  0.4662 -0.0234
 5086TIP3    H136673   6.068   2.623  11.145  0.2798  0.3579 -0.7935
 5086TIP3    H236674   5.943   2.538  11.132  0.0219  0.4321  0.9872
 5087TIP3   OH236675   0.247   3.820   0.422  0.0795  0.5708  0.4655
 5087TIP3    H136676   0.192   3.759   0.472  0.4166 -1.1628 -1.1712
 5087TIP3    H236677   0.185   3.875   0.374 -0.2319  0.5023  0.7887
 5088TIP3   OH236678   2.490   4.805  13.103 -0.4376  0.4460 -0.6875
 5088TIP3    H136679   2.561   4.821  13.166 -1.5923  0.1756  0.7447
 5088TIP3    H236680   2.529   4.746  13.038  0.3691 -0.5716  0.6531
 5089TIP3   OH236681   6.734   3.504   1.103  0.0293  1.3728  0.0690
 5089TIP3    H136682   6.763   3.561   1.031  1.2422 -0.7887 -1.2926
 5089TIP3    H236683   6.643   3.483   1.082  0.5545  0.2614 -1.2680
 5090TIP3   OH236684   1.533   5.423  11.737 -0.1725 -0.3958  0.3836
 5090TIP3    H136685   1.534   5.409  11.832  0.2175 -0.0316  0.4375
 5090TIP3    H236686   1.519   5.517  11.728  1.2330 -0.1806  0.1178
 5091TIP3   OH236687   3.691   6.517  14.657 -0.2427 -0.0207  0.3718
 5091TIP3    H136688   3.752   6.578  14.616 -0.9876 -0.0589 -0.8154
 5091TIP3    H236689   3.683   6.445  14.595  0.4544 -1.2506  1.6591
 5092TIP3   OH236690   2.267   5.113   3.187 -0.8543 -0.0740  0.3953
 5092TIP3    H136691   2.313   5.196   3.178  2.9428 -1.5187  3.4001
 5092TIP3    H236692   2.200   5.129   3.253 -0.3182  0.6728  0.7630
 5093TIP3   OH236693   2.967   4.248   4.421 -0.0447 -0.0604 -0.4509
 5093TIP3    H136694   3.011   4.219   4.501  0.0675  2.4267  0.4976
 5093TIP3    H236695   2.894   4.301   4.452  0.3488  1.4555 -1.9586
 5094TIP3   OH236696   1.451   4.739   3.799 -0.0851  0.4297  0.4807
 5094TIP3    H136697   1.524   4.782   3.843 -2.6858  2.5245  3.1757
 5094TIP3    H236698   1.397   4.812   3.767 -0.7841 -1.0336 -1.9593
 5095TIP3   OH236699   0.811   6.353   1.369  0.0401 -0.7470  0.0597
 5095TIP3    H136700   0.806   6.259   1.390 -0.3410 -0.2886  2.2312
 5095TIP3    H236701   0.782   6.397   1.448 -1.6725  1.2269 -1.5531
 5096TIP3   OH236702   2.155   5.642  14.477 -0.1307  0.0006 -0.2929
 5096TIP3    H136703   2.208   5.697  14.534  1.0350 -0.1730 -1.1570
 5096TIP3    H236704   2.211   5.625  14.401 -1.6905  0.4109 -1.6045
 5097TIP3   OH236705   6.585   5.285  12.872  0.2946  0.1990 -0.1332
 5097TIP3    H136706   6.608   5.331  12.953 -1.3114  0.3456  0.2733
 5097TIP3    H236707   6.531   5.347  12.824 -0.7482 -0.7504 -0.2196
 5098TIP3   OH236708   2.944   1.013   1.536 -0.8260  0.1695  0.3430
 5098TIP3    H136709   2.857   0.974   1.537  0.0443 -1.9632 -0.5765
 5098TIP3    H236710   2.991   0.970   1.607 -0.7171  1.8963  1.3656
 5099TIP3   OH236711   1.664   1.475   0.212  0.5430 -0.1459  0.6034
 5099TIP3    H136712   1.706   1.543   0.158 -0.2908  0.8722  1.2080
 5099TIP3    H236713   1.647   1.518   0.296  0.6959 -1.3434  1.2753
 5100TIP3   OH236714   6.436   3.217   0.788 -0.0283  0.3344 -0.0148
 5100TIP3    H136715   6.403   3.237   0.876  0.7312  0.7800  0.1747
 5100TIP3    H236716   6.388   3.276   0.730 -0.5815 -0.0070  0.0817
 5101TIP3   OH236717   6.639   1.460  16.755  0.2601  0.7752  0.4985
 5101TIP3    H136718   6.617   1.390  16.817 -0.7804  0.9132  0.2903
 5101TIP3    H236719   6.579   1.531  16.776 -0.3654  0.6833 -0.9049
 5102TIP3   OH236720   4.234   0.255  14.317  0.5601  0.4133  0.0001
 5102TIP3    H136721   4.263   0.341  14.287 -0.8104  1.0861  0.4956
 5102TIP3    H236722   4.143   0.269  14.345 -0.1531 -1.4685 -1.1426
 5103TIP3   OH236723   2.964   1.991  14.540 -0.4149  0.4334  0.1043
 5103TIP3    H136724   2.996   2.059  14.481 -0.8729  0.3327 -0.2611
 5103TIP3    H236725   3.024   1.995  14.615  0.6884  0.0023 -0.7300
 5104TIP3   OH236726   1.701   0.680   3.747  0.2526 -0.2825 -0.4218
 5104TIP3    H136727   1.651   0.759   3.724  0.4595  0.0494  0.2553
 5104TIP3    H236728   1.635   0.616   3.771  0.1455  0.2035  0.6235
 5105TIP3   OH236729   5.657   6.689   5.695 -0.1793 -0.1691 -0.6529
 5105TIP3    H136730   5.644   6.773   5.739 -1.3209 -0.2915 -0.7384
 5105TIP3    H236731   5.674   6.627   5.766 -0.5058 -0.0827 -0.4986
 5106TIP3   OH236732   6.398   0.167   2.707  0.0706  0.4683 -0.6811
 5106TIP3    H136733   6.390   0.106   2.781 -1.0730  2.0857  0.5965
 5106TIP3    H236734   6.310   0.171   2.670  0.6409 -0.3524 -2.2048
 5107TIP3   OH236735   0.260   2.761   5.173 -0.5659 -0.8725  0.4114
 5107TIP3    H136736   0.300   2.715   5.099 -1.6220  0.1053 -0.8198
 5107TIP3    H236737   0.330   2.814   5.210 -0.7107  1.1422 -1.9526
 5108TIP3   OH236738   2.826   5.593   0.338  0.5028  0.0180 -0.1119
 5108TIP3    H136739   2.770   5.664   0.368  1.3899  0.5013  0.4128
 5108TIP3    H236740   2.779   5.513   0.364  0.8634  0.4151  1.8585
 5109TIP3   OH236741   1.345   6.312  11.590 -0.4955  0.2270  0.7190
 5109TIP3    H136742   1.325   6.243  11.654 -1.7534 -0.9226 -0.8338
 5109TIP3    H236743   1.340   6.269  11.505  0.7553  1.7972 -0.2239
 5110TIP3   OH236744   1.616   3.463  14.788  0.2752 -0.0633  0.3730
 5110TIP3    H136745   1.671   3.395  14.749 -1.3871 -0.6033 -1.1488
 5110TIP3    H236746   1.527   3.433  14.774 -0.4842  1.8118  0.8719
 5111TIP3   OH236747   6.388   0.606   1.916 -0.0464 -0.2875  0.8177
 5111TIP3    H136748   6.372   0.675   1.852 -1.9448 -1.3329  0.0697
 5111TIP3    H236749   6.478   0.578   1.900  0.3452  1.1928  0.3400
 5112TIP3   OH236750   2.082   6.085   4.999  0.1983 -0.1476 -0.3566
 5112TIP3    H136751   2.153   6.063   5.059  0.4203  0.5128 -0.3610
 5112TIP3    H236752   2.049   6.169   5.031 -1.1747 -0.8490  0.1713
 5113TIP3   OH236753   3.749   3.354  13.786 -0.1427 -0.0182 -0.1195
 5113TIP3    H136754   3.712   3.292  13.724 -1.0540 -0.4897  0.8678
 5113TIP3    H236755   3.687   3.427  13.788  0.5149  0.5732 -0.6698
 5114TIP3   OH236756   4.452   1.186   2.821  0.0098 -0.2686 -0.0879
 5114TIP3    H136757   4.388   1.122   2.852 -1.0443 -0.1744 -1.9007
 5114TIP3    H236758   4.402   1.246   2.766  1.2211  1.3615  0.5103
 5115TIP3   OH236759   2.878   5.157  16.893  0.2365  0.8068  0.4585
 5115TIP3    H136760   2.834   5.074  16.874  1.1795  0.3749  0.0911
 5115TIP3    H236761   2.938   5.136  16.964 -0.3711  1.4693  1.1867
 5116TIP3   OH236762   2.494   2.182   5.557 -0.2471  0.5055 -0.3467
 5116TIP3    H136763   2.558   2.123   5.595  0.8442  2.2219  0.5975
 5116TIP3    H236764   2.435   2.125   5.507 -1.6859 -1.9054  3.6854
 5117TIP3   OH236765   4.603   1.706  11.341  0.7321  0.4548 -0.3127
 5117TIP3    H136766   4.598   1.628  11.286  0.6606 -0.4569  0.9397
 5117TIP3    H236767   4.522   1.705  11.392  0.4172  1.7276 -0.7343
 5118TIP3   OH236768   1.988   3.519   0.524 -0.0643  0.3668 -0.3992
 5118TIP3    H136769   1.978   3.434   0.568  0.7359 -0.5064 -1.8280
 5118TIP3    H236770   2.047   3.568   0.581  3.9293 -2.0226 -2.0186
 5119TIP3   OH236771   0.198   3.195  17.080 -0.2527  0.8169 -0.3446
 5119TIP3    H136772   0.117   3.241  17.104 -0.6932  0.0598 -0.3419
 5119TIP3    H236773   0.173   3.103  17.075 -0.1042  0.8170 -3.1753
 5120TIP3   OH236774   3.066   2.581  15.420  0.1585  0.5001 -0.2980
 5120TIP3    H136775   3.104   2.511  15.472 -1.2225 -0.9676 -1.1599
 5120TIP3    H236776   3.140   2.637  15.396  1.4651 -1.1820 -0.3466
 5121TIP3   OH236777   0.174   0.620   2.052 -0.1934 -0.1040 -0.2256
 5121TIP3    H136778   0.122   0.622   1.972 -0.9494  0.3873  0.2646
 5121TIP3    H236779   0.112   0.642   2.122  0.4497 -0.5145  0.4976
 5122TIP3   OH236780   4.427   5.151   3.529 -0.4851 -0.5568  0.3932
 5122TIP3    H136781   4.470   5.222   3.482 -0.3105 -1.0572 -0.2139
 5122TIP3    H236782   4.358   5.194   3.579 -1.0611 -0.0781 -0.7804
 5123TIP3   OH236783   4.311   4.592  16.276  0.3034 -0.2511  0.4489
 5123TIP3    H136784   4.312   4.581  16.181 -0.3643 -0.2790  0.4391
 5123TIP3    H236785   4.399   4.622  16.298  1.4368 -3.0079  0.1488
 5124TIP3   OH236786   4.582   5.169  12.312 -0.1877 -0.2471 -0.0797
 5124TIP3    H136787   4.530   5.091  12.328  0.5027 -0.6735  0.1022
 5124TIP3    H236788   4.655   5.139  12.258  0.5008  0.1149  0.6272
 5125TIP3   OH236789   0.041   0.455  16.988 -0.1065  0.4193 -0.1946
 5125TIP3    H136790   0.110   0.497  17.038 -0.5329 -0.3206  1.0549
 5125TIP3    H236791   0.071   0.364  16.978 -0.5975  0.2579 -0.2102
 5126TIP3   OH236792   2.328   1.003   0.220 -0.0362 -0.3713 -0.2008
 5126TIP3    H136793   2.256   1.021   0.281  1.4043  1.2699  1.1306
 5126TIP3    H236794   2.320   0.909   0.201 -1.6359 -0.5429  1.0892
 5127TIP3   OH236795   2.637   3.388   5.513 -0.1876  0.0379 -0.1230
 5127TIP3    H136796   2.654   3.321   5.447  0.5186  0.4696 -0.3964
 5127TIP3    H236797   2.612   3.466   5.463  1.9947  0.8711 -0.0372
 5128TIP3   OH236798   0.028   2.629  16.029  0.0106 -0.0047 -0.6130
 5128TIP3    H136799   0.020   2.708  16.083  0.9049  0.1618 -0.7100
 5128TIP3    H236800   0.108   2.641  15.980 -0.6111 -0.3147 -1.7460
 5129TIP3   OH236801   5.774   3.222  15.443 -0.3831  0.1568  0.1322
 5129TIP3    H136802   5.811   3.152  15.390  0.3643  0.3506  0.3868
 5129TIP3    H236803   5.725   3.177  15.511 -1.4182 -0.0925 -0.7538
 5130TIP3   OH236804   4.401   0.023   2.255  0.1747 -0.5816 -0.3842
 5130TIP3    H136805   4.363   0.047   2.170 -0.6137 -0.6995 -0.0719
 5130TIP3    H236806   4.495   0.016   2.238  0.4202  2.1062 -0.6684
 5131TIP3   OH236807   5.731   1.774   4.877  0.1416 -0.0231 -0.2663
 5131TIP3    H136808   5.818   1.813   4.868  0.6238 -1.2142 -1.0345
 5131TIP3    H236809   5.747   1.680   4.873 -0.9564 -0.3439  1.6964
 5132TIP3   OH236810   2.870   5.749  10.835  0.1371  0.2976  0.2955
 5132TIP3    H136811   2.821   5.778  10.758  1.5980 -2.6920 -1.9773
 5132TIP3    H236812   2.821   5.673  10.867  2.1350 -1.6299 -0.9332
 5133TIP3   OH236813   0.837   6.685   1.389  0.0059 -0.6170 -0.0287
 5133TIP3    H136814   0.801   6.617   1.445 -0.3942 -0.6770 -0.3603
 5133TIP3    H236815   0.776   6.758   1.397 -1.1955 -1.3326 -1.9656
 5134TIP3   OH236816   4.212   5.176  14.912  0.1606 -0.3840  0.4534
 5134TIP3    H136817   4.116   5.186  14.917  0.0225 -0.8397 -0.8026
 5134TIP3    H236818   4.229   5.091  14.951 -0.2657 -1.4595 -1.5481
 5135TIP3   OH236819   1.154   6.526  14.283 -0.7817 -0.0006 -0.1736
 5135TIP3    H136820   1.130   6.579  14.208 -1.2608 -0.5418 -0.4123
 5135TIP3    H236821   1.071   6.510  14.328 -0.3941  1.0608  0.9793
 5136TIP3   OH236822   1.590   6.063  12.020  0.0999  0.1851 -0.1448
 5136TIP3    H136823   1.603   5.977  11.980 -0.7033  0.4219 -0.9593
 5136TIP3    H236824   1.527   6.107  11.962 -1.0694  0.5686  1.3337
 5137TIP3   OH236825   3.866   6.415   4.104  0.7257  0.2250  0.0648
 5137TIP3    H136826   3.857   6.458   4.020 -0.5141 -1.0328 -0.4755
 5137TIP3    H236827   3.827   6.329   4.092  1.5122 -0.4006  1.6163
 5138TIP3   OH236828   0.311   1.292   1.667  0.5015  0.5644 -0.6325
 5138TIP3    H136829   0.401   1.325   1.674  1.0013 -0.7520 -0.5833
 5138TIP3    H236830   0.300   1.273   1.574 -0.2877  2.1835 -0.8981
 5139TIP3   OH236831   2.418   6.164   3.499  0.1422  0.7203 -1.1767
 5139TIP3    H136832   2.433   6.125   3.412 -0.4723  1.5932 -1.7004
 5139TIP3    H236833   2.500   6.208   3.520  0.5848 -0.2161 -0.9218
 5140TIP3   OH236834   6.100   0.191  12.026 -0.3466 -0.5781 -0.0828
 5140TIP3    H136835   6.106   0.253  11.953  0.3717 -0.3392  0.1764
 5140TIP3    H236836   6.190   0.163  12.041 -0.7373 -2.3201 -0.7293
 5141TIP3   OH236837   3.875   3.432   2.004 -0.0480 -0.3750  0.3654
 5141TIP3    H136838   3.960   3.471   1.984  0.4277 -0.4131  2.1655
 5141TIP3    H236839   3.833   3.420   1.918  2.5372 -2.1712 -0.7701
 5142TIP3   OH236840   4.412   1.365  13.505  0.2387  0.1417 -0.0909
 5142TIP3    H136841   4.340   1.404  13.554  0.2229 -0.8625  0.7215
 5142TIP3    H236842   4.369   1.306  13.443  0.3130  0.5662 -0.5563
 5143TIP3   OH236843   0.372   4.842   2.233 -0.3939  0.4865  0.1950
 5143TIP3    H136844   0.370   4.855   2.328  1.3744 -0.0125  0.3448
 5143TIP3    H236845   0.384   4.930   2.197 -0.8849  0.6558  0.4415
 5144TIP3   OH236846   4.439   5.537   3.261  0.0126  0.7524  0.1149
 5144TIP3    H136847   4.406   5.461   3.213  0.8350 -1.8418  3.1936
 5144TIP3    H236848   4.478   5.593   3.195 -0.6065 -1.5500 -2.3845
 5145TIP3   OH236849   5.835   5.641   1.936 -0.2591  0.2630 -0.2269
 5145TIP3    H136850   5.826   5.582   1.861 -0.9820 -0.2002  0.2056
 5145TIP3    H236851   5.745   5.651   1.969 -0.2048  1.8509 -0.4669
 5146TIP3   OH236852   1.827   5.204  14.863 -0.4323 -0.6386 -0.3622
 5146TIP3    H136853   1.746   5.249  14.841  0.8878  1.9007 -0.4914
 5146TIP3    H236854   1.836   5.216  14.958  0.6019  0.7369 -0.5883
 5147TIP3   OH236855   5.184   0.622   6.208 -0.0510 -0.5028 -0.2627
 5147TIP3    H136856   5.137   0.638   6.289 -1.0465  1.4226 -1.1441
 5147TIP3    H236857   5.273   0.652   6.226 -0.1171 -0.6284  0.2855
 5148TIP3   OH236858   0.898   4.956  14.075 -0.7506 -0.6511  0.7152
 5148TIP3    H136859   0.808   4.972  14.104 -1.4843 -1.5421 -0.9629
 5148TIP3    H236860   0.898   4.981  13.983  0.5627 -1.2553  0.5377
 5149TIP3   OH236861   4.593   3.842   1.892  0.4347 -0.1165 -0.6391
 5149TIP3    H136862   4.506   3.811   1.868  0.7423  0.0528 -2.0624
 5149TIP3    H236863   4.650   3.766   1.878  0.5218 -0.2431  0.3433
 5150TIP3   OH236864   4.838   5.800  10.648  1.0804 -0.1708  0.9284
 5150TIP3    H136865   4.932   5.807  10.666  1.0769  2.3886  0.3941
 5150TIP3    H236866   4.796   5.819  10.733  1.0670  0.4807  0.7819
 5151TIP3   OH236867   2.569   3.523   2.581  0.0784 -0.6298 -0.5609
 5151TIP3    H136868   2.634   3.577   2.536 -0.7549  0.1830 -0.8237
 5151TIP3    H236869   2.618   3.480   2.651  0.7917  0.4205 -0.3823
 5152TIP3   OH236870   0.087   5.434   5.881 -0.0505  1.3893 -0.0042
 5152TIP3    H136871   0.182   5.426   5.881 -0.0127  1.4852  1.6152
 5152TIP3    H236872   0.065   5.462   5.792  1.5792  2.8095 -0.0171
 5153TIP3   OH236873   1.057   5.614  17.027  0.3878 -0.4371 -0.0150
 5153TIP3    H136874   1.036   5.521  17.035  0.9795 -0.5774 -0.0743
 5153TIP3    H236875   1.144   5.617  16.989  0.5755  0.1321  0.4279
 5154TIP3   OH236876   4.044   6.229   0.878  0.1996  0.4726 -0.2933
 5154TIP3    H136877   4.010   6.279   0.952 -0.5905 -1.7155  0.9147
 5154TIP3    H236878   3.967   6.189   0.838  0.8659 -0.4298 -0.7143
 5155TIP3   OH236879   2.759   0.738  13.614 -0.0800 -0.5127 -0.5253
 5155TIP3    H136880   2.746   0.643  13.614 -1.1978 -0.4030  1.1150
 5155TIP3    H236881   2.852   0.750  13.632 -0.1617 -1.3115  0.5384
 5156TIP3   OH236882   1.821   1.878   5.849  0.0192  0.2291  0.1146
 5156TIP3    H136883   1.751   1.939   5.826 -1.3427 -0.9408  0.9265
 5156TIP3    H236884   1.788   1.832   5.927  1.5906 -0.5463  0.3659
 5157TIP3   OH236885   1.623   4.436  12.980 -0.2261  0.1649 -0.3112
 5157TIP3    H136886   1.588   4.393  12.902 -1.4558  0.2432  0.1702
 5157TIP3    H236887   1.565   4.408  13.051 -0.9454  2.3618  0.0667
 5158TIP3   OH236888   3.417   3.116   1.880 -0.3054  0.2238  0.4036
 5158TIP3    H136889   3.323   3.111   1.895 -0.5079 -2.6372 -1.0367
 5158TIP3    H236890   3.454   3.042   1.929  1.4752  2.1885  2.2142
 5159TIP3   OH236891   4.880   6.510   6.000 -0.0799  0.1050  0.4616
 5159TIP3    H136892   4.947   6.560   6.048  0.4415 -1.3179  1.2637
 5159TIP3    H236893   4.905   6.419   6.012  0.1985 -0.3576 -2.7176
 5160TIP3   OH236894   2.777   1.391   1.164 -0.1155 -0.4910  0.3510
 5160TIP3    H136895   2.817   1.425   1.245 -0.7521  0.3179  0.3330
 5160TIP3    H236896   2.834   1.318   1.139  0.2730 -0.5558  1.3586
 5161TIP3   OH236897   1.342   3.314   3.917 -0.5725  0.0542 -0.1243
 5161TIP3    H136898   1.356   3.263   3.997 -2.6836 -0.5127 -0.0596
 5161TIP3    H236899   1.357   3.405   3.944 -1.7023 -0.0760  1.0724
 5162TIP3   OH236900   2.926   5.894   6.065 -0.5870 -0.6337  0.1126
 5162TIP3    H136901   2.838   5.922   6.090 -0.4738 -1.2825  1.3232
 5162TIP3    H236902   2.982   5.922   6.138  0.3958  0.5957 -1.0490
 5163TIP3   OH236903   0.550   4.441  15.160 -0.6341  0.1414 -0.0002
 5163TIP3    H136904   0.623   4.503  15.153  0.8190 -1.2924  1.5141
 5163TIP3    H236905   0.541   4.425  15.254 -2.1675 -0.5870 -0.2362
 5164TIP3   OH236906   4.503   5.637  10.984  0.3111  0.2752 -0.2799
 5164TIP3    H136907   4.422   5.616  10.938  0.4310 -0.1936 -0.2889
 5164TIP3    H236908   4.487   5.612  11.075  0.9341 -1.2455 -0.5560
 5165TIP3   OH236909   4.085   1.191  14.104 -0.0347  0.4142  0.5424
 5165TIP3    H136910   4.147   1.234  14.163  0.6671  0.5022 -0.2407
 5165TIP3    H236911   4.089   1.098  14.129  0.2504  0.4523  0.6383
 5166TIP3   OH236912   6.127   5.556  16.068 -0.0634 -0.3191 -0.0554
 5166TIP3    H136913   6.173   5.563  15.984  0.6927 -1.4013  0.2370
 5166TIP3    H236914   6.157   5.472  16.104 -0.6352 -0.0294  1.1410
 5167TIP3   OH236915   4.558   0.436   0.508 -0.2336 -0.2467 -0.1175
 5167TIP3    H136916   4.473   0.403   0.537 -0.9588 -0.0031 -1.8301
 5167TIP3    H236917   4.610   0.357   0.493  0.5410 -0.3755  2.6917
 5168TIP3   OH236918   5.114   3.818   2.967 -0.0722  0.5278 -0.6132
 5168TIP3    H136919   5.131   3.749   3.032  2.0023 -0.1807 -1.8181
 5168TIP3    H236920   5.200   3.851   2.944 -0.9321  2.4931 -1.2203
 5169TIP3   OH236921   3.126   1.288  12.330 -1.0968 -0.0047  0.2963
 5169TIP3    H136922   3.080   1.254  12.253 -2.0315 -0.2538  0.9502
 5169TIP3    H236923   3.058   1.296  12.396 -0.7445  2.2426  0.4631
 5170TIP3   OH236924   5.375   1.499  16.583  0.0905  0.1696  0.0367
 5170TIP3    H136925   5.348   1.581  16.623 -0.1231 -0.4351  1.1750
 5170TIP3    H236926   5.381   1.518  16.489  1.0424  1.7400  0.3816
 5171TIP3   OH236927   3.406   4.142  12.779  0.2839 -0.8646 -0.7041
 5171TIP3    H136928   3.328   4.091  12.756 -0.8407  0.2496  0.5315
 5171TIP3    H236929   3.451   4.156  12.695 -1.2111 -0.9087 -1.5393
 5172TIP3   OH236930   2.342   3.094  11.092 -0.1009 -0.1498  0.3664
 5172TIP3    H136931   2.411   3.098  11.026 -0.6958 -1.7962 -0.3802
 5172TIP3    H236932   2.300   3.180  11.088  1.0027  0.3790 -0.1350
 5173TIP3   OH236933   1.425   4.617   2.644 -0.0880 -0.2816 -0.5225
 5173TIP3    H136934   1.362   4.678   2.607  0.8097  0.4333 -0.9161
 5173TIP3    H236935   1.375   4.538   2.662 -1.4295  0.7864  0.6205
 5174TIP3   OH236936   3.104   5.229  12.886  0.3733 -0.1044 -0.7019
 5174TIP3    H136937   3.151   5.312  12.894  1.5225 -0.6400 -1.6411
 5174TIP3    H236938   3.103   5.194  12.975 -0.2836  0.9825 -0.2553
 5175TIP3   OH236939   5.431   2.483  12.468  0.5959 -0.2946  0.0600
 5175TIP3    H136940   5.374   2.530  12.530 -0.7596 -0.0477 -1.3279
 5175TIP3    H236941   5.395   2.394  12.466 -1.7355  0.5578 -3.0011
 5176TIP3   OH236942   1.442   1.126  14.595  0.2719 -0.4247 -0.1162
 5176TIP3    H136943   1.405   1.056  14.648 -0.1788 -1.5154 -1.8101
 5176TIP3    H236944   1.474   1.082  14.516  1.1641  1.1065 -0.6485
 5177TIP3   OH236945   2.762   0.239  15.978 -0.3974  0.2943 -0.1308
 5177TIP3    H136946   2.838   0.269  16.028 -0.9985  0.1184  0.9280
 5177TIP3    H236947   2.782   0.262  15.887  0.3683  1.3828  0.2859
 5178TIP3   OH236948   0.769   1.135   1.942  0.6063  0.1082  0.1652
 5178TIP3    H136949   0.735   1.131   1.852 -1.3958 -1.1386  0.9352
 5178TIP3    H236950   0.705   1.187   1.990  0.7958 -0.6136  1.2257
 5179TIP3   OH236951   0.870   5.365   6.817  0.1131 -0.0642  0.6373
 5179TIP3    H136952   0.839   5.423   6.748  0.8860  1.1700  1.2886
 5179TIP3    H236953   0.790   5.327   6.853 -0.3812  0.2106 -0.1328
 5180TIP3   OH236954   1.542   4.457   0.690 -0.6453 -0.4410 -0.3888
 5180TIP3    H136955   1.603   4.522   0.655 -0.7384 -0.3659 -0.4094
 5180TIP3    H236956   1.456   4.494   0.674 -0.6814 -0.2204  0.2822
 5181TIP3   OH236957   2.697   4.459  12.739  0.1840 -0.4399  0.1692
 5181TIP3    H136958   2.785   4.446  12.774 -0.3320 -1.8214  1.0444
 5181TIP3    H236959   2.711   4.487  12.648  1.5617 -2.7843 -0.4304
 5182TIP3   OH236960   5.904   3.795  11.579  0.1034  0.4617  0.4485
 5182TIP3    H136961   5.949   3.826  11.658 -0.7450 -1.2051  1.6507
 5182TIP3    H236962   5.920   3.701  11.579 -0.0073  0.4250 -1.3486
 5183TIP3   OH236963   4.443   3.881  15.776  0.1829 -0.2200  0.2488
 5183TIP3    H136964   4.391   3.820  15.829 -0.3665 -0.7187 -0.8284
 5183TIP3    H236965   4.409   3.967  15.798 -1.0051 -0.5279 -0.3083
 5184TIP3   OH236966   6.606   6.059   0.432  0.5153 -0.2546  0.0292
 5184TIP3    H136967   6.561   6.103   0.360  0.9555 -1.0187 -0.7125
 5184TIP3    H236968   6.676   6.009   0.391  1.3499  0.0182  1.0689
 5185TIP3   OH236969   1.260   4.408  16.023  0.2763  0.2802 -0.1883
 5185TIP3    H136970   1.283   4.316  16.006  0.3815  0.3524 -0.4466
 5185TIP3    H236971   1.184   4.424  15.967 -0.5246 -0.0103  0.8028
 5186TIP3   OH236972   0.679   0.510   1.474 -0.0025 -0.1871 -0.1129
 5186TIP3    H136973   0.744   0.449   1.509 -1.1000 -1.4736 -0.2188
 5186TIP3    H236974   0.629   0.457   1.411 -2.3756  0.1829  1.3423
 5187TIP3   OH236975   6.565   4.094  14.360  0.5869  0.1372 -0.5090
 5187TIP3    H136976   6.529   4.046  14.286  0.2540  2.0224 -1.6405
 5187TIP3    H236977   6.609   4.028  14.413 -0.4779 -1.4949 -1.5807
 5188TIP3   OH236978   2.386   4.510   4.446  0.3481  0.1162 -0.2341
 5188TIP3    H136979   2.432   4.463   4.376  0.7562  0.6077 -0.3024
 5188TIP3    H236980   2.348   4.440   4.500  0.5785 -0.2844 -0.5793
 5189TIP3   OH236981   0.251   3.685  13.270  0.1583  0.7035  0.7803
 5189TIP3    H136982   0.266   3.698  13.176  2.0166  0.2660  0.9802
 5189TIP3    H236983   0.168   3.638  13.275  0.2652  0.3202 -0.6776
 5190TIP3   OH236984   4.327   5.330  14.094 -0.1145  0.4084 -0.0704
 5190TIP3    H136985   4.307   5.392  14.164  0.2685 -1.2870  1.6214
 5190TIP3    H236986   4.276   5.252  14.116 -0.0187 -0.1595 -1.7313
 5191TIP3   OH236987   0.104   0.470   4.807  0.0921  0.5935  0.7068
 5191TIP3    H136988   0.165   0.468   4.733  0.1338  0.4277  0.7464
 5191TIP3    H236989   0.025   0.427   4.774  0.8033 -1.2951  1.3828
 5192TIP3   OH236990   3.484   2.181   5.247  0.1412  0.4057 -0.0090
 5192TIP3    H136991   3.442   2.138   5.321  0.2922  0.0517 -0.1283
 5192TIP3    H236992   3.543   2.245   5.286  1.1186 -0.6078  0.2087
 5193TIP3   OH236993   3.218   4.351   2.833  0.1518  0.3891 -0.5974
 5193TIP3    H136994   3.216   4.275   2.775  0.9642  0.0174 -0.1540
 5193TIP3    H236995   3.272   4.323   2.907  0.3909  1.3691 -0.3919
 5194TIP3   OH236996   2.878   1.803   1.066  0.0918 -0.0555  0.2489
 5194TIP3    H136997   2.799   1.821   1.117  0.1799  0.7167  0.1190
 5194TIP3    H236998   2.906   1.717   1.096  0.1926  0.4265  1.5836
 5195TIP3   OH236999   5.019   4.017  16.017  0.0284 -0.1811  0.1073
 5195TIP3    H137000   4.943   3.958  16.024 -0.3696  0.2570 -0.3814
 5195TIP3    H237001   5.017   4.067  16.099  0.2216 -0.6742  0.4166
 5196TIP3   OH237002   0.725   1.372  11.616  0.6469  0.0187  0.5861
 5196TIP3    H137003   0.743   1.440  11.681  0.4148  0.6636 -0.0102
 5196TIP3    H237004   0.796   1.309  11.626  0.2804 -0.2240  1.8872
 5197TIP3   OH237005   3.164   0.107   3.150  0.3706 -0.4495 -0.1401
 5197TIP3    H137006   3.235   0.057   3.110 -0.5352 -0.7544 -1.4474
 5197TIP3    H237007   3.167   0.084   3.242  1.2098 -1.3854 -0.3872
 5198TIP3   OH237008   3.497   5.648   6.185  0.1436  0.0079  0.5505
 5198TIP3    H137009   3.523   5.718   6.244 -1.5833 -0.3639  1.8173
 5198TIP3    H237010   3.401   5.647   6.189  0.0917 -1.8599 -0.0804
 5199TIP3   OH237011   1.824   2.236  13.463 -0.0568  0.3056 -0.3043
 5199TIP3    H137012   1.796   2.192  13.543 -0.2787 -1.0238 -1.0731
 5199TIP3    H237013   1.743   2.267  13.423 -0.0551  0.0302 -0.5277
 5200TIP3   OH237014   6.085   1.776   6.184  0.0952 -0.1423  0.1199
 5200TIP3    H137015   6.058   1.823   6.263 -0.4017 -0.1101 -0.0657
 5200TIP3    H237016   6.143   1.706   6.216 -0.0530 -0.0911  0.5037
 5201TIP3   OH237017   5.971   0.897   0.020 -0.2463 -0.0176  0.5645
 5201TIP3    H137018   5.886   0.880   0.060 -0.9512 -1.7500 -1.4635
 5201TIP3    H237019   6.034   0.852   0.076 -1.1702 -2.1503  0.0212
 5202TIP3   OH237020   5.329   3.750   4.419 -0.2811  0.3742 -0.7826
 5202TIP3    H137021   5.280   3.773   4.497 -2.7769 -1.5066 -1.6563
 5202TIP3    H237022   5.305   3.659   4.401  1.7285  0.1174 -2.6663
 5203TIP3   OH237023   4.059   1.960   1.528 -0.0930 -0.0914 -0.0547
 5203TIP3    H137024   4.081   1.992   1.441  0.0030 -1.4945 -0.5744
 5203TIP3    H237025   4.101   2.022   1.588  2.0027 -0.5087 -1.0107
 5204TIP3   OH237026   1.498   0.746  16.207  0.2642  0.6181 -0.3244
 5204TIP3    H137027   1.505   0.671  16.148  0.4169  1.6053 -1.6041
 5204TIP3    H237028   1.404   0.760  16.218  0.2354  0.2522 -0.0832
 5205TIP3   OH237029   6.030   2.813   0.728  0.2546 -0.3039 -0.5298
 5205TIP3    H137030   6.074   2.780   0.649  2.2904  1.1631 -0.1069
 5205TIP3    H237031   6.081   2.777   0.800 -2.0169 -2.2074  0.2292
 5206TIP3   OH237032   4.182   5.448   5.417  0.8744  0.0411 -0.2333
 5206TIP3    H137033   4.105   5.503   5.403 -0.8123 -1.3923  2.5077
 5206TIP3    H237034   4.231   5.494   5.486  0.9990 -0.4524  0.0066
 5207TIP3   OH237035   3.612   5.388  13.100  0.1072  0.4228 -0.0543
 5207TIP3    H137036   3.677   5.323  13.072  0.1471  0.1738  0.5991
 5207TIP3    H237037   3.533   5.338  13.118  0.4823  0.3781  1.5944
 5208TIP3   OH237038   6.634   2.418   3.747  0.9476 -0.3109  0.5126
 5208TIP3    H137039   6.613   2.484   3.813  0.8390 -0.2059  0.3731
 5208TIP3    H237040   6.571   2.348   3.763  0.3066  0.1173 -0.0735
 5209TIP3   OH237041   6.703   6.685   0.168  0.1259 -0.1221 -0.3252
 5209TIP3    H137042   6.703   6.590   0.182 -0.7039 -0.3962 -1.9407
 5209TIP3    H237043   6.615   6.705   0.135 -0.4320  1.5658  1.8965
 5210TIP3   OH237044   4.459   6.575  10.600 -0.6531 -0.2506  0.2505
 5210TIP3    H137045   4.413   6.528  10.531  0.5906 -0.1271 -0.6910
 5210TIP3    H237046   4.508   6.643  10.554  0.2029 -0.1610  1.2593
 5211TIP3   OH237047   5.962   5.579  15.264 -0.3529 -0.4699 -0.0325
 5211TIP3    H137048   6.056   5.563  15.269 -0.1791  0.1121 -1.0593
 5211TIP3    H237049   5.923   5.493  15.250 -0.0378 -0.7874  0.9775
 5212TIP3   OH237050   1.712   0.908   5.773 -1.0176 -0.3425  0.4395
 5212TIP3    H137051   1.704   0.896   5.867 -0.6907  3.6519  1.1441
 5212TIP3    H237052   1.638   0.963   5.749  0.4478  1.1175 -1.0401
 5213TIP3   OH237053   2.140   0.805  16.412 -0.1177 -0.3093  0.2160
 5213TIP3    H137054   2.055   0.846  16.425  0.4788  0.9350  0.3924
 5213TIP3    H237055   2.132   0.757  16.330 -1.3274 -1.1833  0.8088
 5214TIP3   OH237056   4.537   5.652   4.076 -0.7338  0.1218 -0.3505
 5214TIP3    H137057   4.453   5.605   4.079 -2.4683  2.9203 -0.8880
 5214TIP3    H237058   4.565   5.658   4.167 -1.6349 -0.0533 -0.0525
 5215TIP3   OH237059   3.876   3.157   2.739  0.1768  0.5699 -0.0549
 5215TIP3    H137060   3.937   3.164   2.666 -1.3079  0.7648 -1.3298
 5215TIP3    H237061   3.922   3.106   2.805  0.7642 -1.5724 -2.0137
 5216TIP3   OH237062   0.763   0.002  14.662  0.2110  0.3410  0.2052
 5216TIP3    H137063   0.819   0.076  14.639  1.7513 -0.9824 -0.5664
 5216TIP3    H237064   0.825  -0.067  14.688 -1.2116 -0.2652  2.2590
 5217TIP3   OH237065   0.278   4.795   0.125  0.2997  0.3789  0.2267
 5217TIP3    H137066   0.190   4.827   0.144 -0.2312 -0.7253 -0.2639
 5217TIP3    H237067   0.281   4.708   0.165  1.4471  0.7092  0.9000
 5218TIP3   OH237068   4.506   5.374   2.097  0.4726  0.0226 -0.5387
 5218TIP3    H137069   4.589   5.407   2.064  0.4209  0.4815 -0.2149
 5218TIP3    H237070   4.527   5.287   2.133  1.7402  1.7724  3.4781
 5219TIP3   OH237071   2.400   3.632   1.271 -0.1564  0.2618  0.2494
 5219TIP3    H137072   2.441   3.559   1.224  2.6254  0.1033  2.6192
 5219TIP3    H237073   2.439   3.710   1.233  0.3620  0.2442  0.7284
 5220TIP3   OH237074   1.750   2.106  11.145 -0.4270 -0.3330 -0.4604
 5220TIP3    H137075   1.711   2.086  11.060 -2.0637 -2.9367  0.7604
 5220TIP3    H237076   1.800   2.027  11.168 -0.2666  0.1779  1.0828
 5221TIP3   OH237077   4.331   2.545   1.535  0.1653  0.1904 -0.1318
 5221TIP3    H137078   4.361   2.631   1.506 -1.7835  0.4879 -1.4252
 5221TIP3    H237079   4.375   2.483   1.478  0.1097  0.4611 -0.4697
 5222TIP3   OH237080   3.143   1.656  16.278  0.2096  0.3143  0.0767
 5222TIP3    H137081   3.212   1.606  16.234 -0.2718  0.8988 -1.4163
 5222TIP3    H237082   3.131   1.612  16.362  1.7340 -0.3690 -0.0224
 5223TIP3   OH237083   0.178   3.540  16.435 -0.4918  0.1486 -0.5670
 5223TIP3    H137084   0.111   3.549  16.368 -1.4082 -0.6642  0.2112
 5223TIP3    H237085   0.253   3.590  16.402 -1.2308  0.4770 -1.7732
 5224TIP3   OH237086   2.863   1.102   5.593  0.5440  0.1651 -0.2295
 5224TIP3    H137087   2.771   1.127   5.590  0.8167  1.1714 -1.0001
 5224TIP3    H237088   2.864   1.017   5.636 -0.7159  0.2653  0.0254
 5225TIP3   OH237089   2.597   0.827   5.637  0.1514  0.6933 -0.4147
 5225TIP3    H137090   2.515   0.780   5.653  1.2197 -1.2913 -0.4118
 5225TIP3    H237091   2.636   0.783   5.562  2.0591  0.3322  0.7050
 5226TIP3   OH237092   6.669   0.563   2.194 -0.5120  0.0860 -0.0955
 5226TIP3    H137093   6.705   0.515   2.268  0.7298 -0.4608 -1.0231
 5226TIP3    H237094   6.704   0.651   2.203 -2.2062  0.6899  1.1986
 5227TIP3   OH237095   6.703   0.069   3.093  0.3298  0.7681 -0.6604
 5227TIP3    H137096   6.686   0.049   3.185  0.8404  0.3258 -0.6573
 5227TIP3    H237097   6.798   0.062   3.084  0.1938 -0.2912 -1.4609
 5228TIP3   OH237098   2.243   5.333  11.467  0.1321 -0.2152 -0.1951
 5228TIP3    H137099   2.169   5.308  11.522  1.1589 -0.0679  1.3403
 5228TIP3    H237100   2.236   5.428  11.458  0.1795 -0.1907  0.0229
 5229TIP3   OH237101   4.740   2.351  15.215  0.3550  0.0775  0.0563
 5229TIP3    H137102   4.728   2.390  15.129  1.4714  0.2160 -0.0558
 5229TIP3    H237103   4.835   2.345  15.226  0.3060  1.5024  1.8917
 5230TIP3   OH237104   2.388   5.119  12.253  0.3886 -0.0421 -0.3652
 5230TIP3    H137105   2.313   5.062  12.272 -1.1088  1.5525 -1.2494
 5230TIP3    H237106   2.393   5.122  12.158  2.4697 -1.1752 -0.3511
 5231TIP3   OH237107   2.312   2.851   3.220  0.1847  0.0982 -0.5424
 5231TIP3    H137108   2.303   2.946   3.232  0.6776  0.2857 -1.4844
 5231TIP3    H237109   2.405   2.834   3.238 -0.0712 -0.3364  0.3818
 5232TIP3   OH237110   2.962   1.774  15.022  0.4233  0.3231 -0.0863
 5232TIP3    H137111   2.919   1.692  14.999 -0.4516  1.0049 -0.9715
 5232TIP3    H237112   3.055   1.751  15.031  0.3484 -0.5718 -1.3447
 5233TIP3   OH237113   3.771   0.814  14.836  0.0797 -0.4919  0.2613
 5233TIP3    H137114   3.743   0.759  14.910 -0.7217  0.3236  0.5804
 5233TIP3    H237115   3.865   0.798  14.829 -0.1110 -1.7936  0.4361
 5234TIP3   OH237116   3.038   3.257  13.927 -0.4415  0.1883 -0.0997
 5234TIP3    H137117   3.065   3.213  14.008 -0.0338  0.9512  0.1910
 5234TIP3    H237118   3.001   3.188  13.873 -0.6776 -0.3423  0.7258
 5235TIP3   OH237119   3.813   0.861  16.725  0.1476 -0.4651  0.6308
 5235TIP3    H137120   3.774   0.810  16.654 -0.1121  0.4720  0.0860
 5235TIP3    H237121   3.890   0.902  16.686 -0.5128  0.7977  0.6129
 5236TIP3   OH237122   5.649   2.821  11.546 -0.1115  0.2072 -0.4044
 5236TIP3    H137123   5.598   2.834  11.466 -0.5928  1.5256  0.0897
 5236TIP3    H237124   5.668   2.727  11.547  0.9038  0.3295 -2.6518
 5237TIP3   OH237125   2.655   2.826  12.520  0.1808  0.2397 -0.1978
 5237TIP3    H137126   2.665   2.752  12.579  0.2350 -0.6894 -1.3461
 5237TIP3    H237127   2.728   2.819  12.459  0.8206  1.8799  0.3173
 5238TIP3   OH237128   0.152   0.889  10.812  0.4146  0.1532  0.1871
 5238TIP3    H137129   0.196   0.889  10.727 -0.8953  1.5672 -0.5273
 5238TIP3    H237130   0.061   0.868  10.793  0.3600 -0.9329  1.4362
 5239TIP3   OH237131   0.370   2.882  14.317 -0.1477  0.3466  0.0022
 5239TIP3    H137132   0.302   2.946  14.295 -2.4102 -1.5142  1.1324
 5239TIP3    H237133   0.336   2.837  14.394  2.2349 -0.9621  0.3865
 5240TIP3   OH237134   1.868   4.265   0.685  0.0878 -0.9077  0.7283
 5240TIP3    H137135   1.958   4.286   0.708 -0.0081  1.4066 -0.6697
 5240TIP3    H237136   1.874   4.220   0.601 -0.0653  0.7281 -0.2110
 5241TIP3   OH237137   4.883   2.875   1.481 -0.0712 -0.6360  1.0022
 5241TIP3    H137138   4.955   2.843   1.535 -0.1136  0.4597  1.7411
 5241TIP3    H237139   4.896   2.833   1.396  0.2908 -2.0017  1.6985
 5242TIP3   OH237140   5.008   4.080  11.457 -0.6092 -0.5288 -0.4856
 5242TIP3    H137141   5.017   4.101  11.550  0.3681  0.0823 -0.7051
 5242TIP3    H237142   4.921   4.112  11.433 -0.5153  0.1155  0.0135
 5243TIP3   OH237143   0.979   3.399   1.226  0.2615  0.3154 -0.6110
 5243TIP3    H137144   1.032   3.422   1.303 -0.4127 -0.3062  0.0559
 5243TIP3    H237145   0.976   3.480   1.175 -0.5233  1.2116  0.7745
 5244TIP3   OH237146   3.648   4.522   1.448  0.1812  0.4525 -0.0440
 5244TIP3    H137147   3.720   4.585   1.459  1.5869 -0.6042 -2.4905
 5244TIP3    H237148   3.669   4.451   1.509  0.4776  0.7373  0.1944
 5245TIP3   OH237149   1.410   5.547  13.042  0.0592 -0.0334  0.2792
 5245TIP3    H137150   1.322   5.544  13.003 -0.0326 -1.2208  0.5325
 5245TIP3    H237151   1.468   5.568  12.968 -0.2274 -1.2722 -0.3408
 5246TIP3   OH237152   5.330   6.284  13.878 -0.5615 -0.6766  0.0612
 5246TIP3    H137153   5.340   6.205  13.826 -3.3509 -0.8924 -0.2455
 5246TIP3    H237154   5.420   6.310  13.899  0.4618 -3.1299 -0.9701
 5247TIP3   OH237155   3.587   5.194  16.964  0.1823 -0.2142  0.3488
 5247TIP3    H137156   3.682   5.199  16.955  0.1966 -0.9869  0.0132
 5247TIP3    H237157   3.571   5.212  17.057  0.5646  0.9433  0.2141
 5248TIP3   OH237158   1.390   2.396   2.401 -0.0254 -0.0152 -0.2883
 5248TIP3    H137159   1.439   2.455   2.458  0.3861  0.4528 -1.1103
 5248TIP3    H237160   1.447   2.319   2.392  0.0332  0.0273 -0.2846
 5249TIP3   OH237161   5.404   3.047   2.529  0.0575  0.3107 -0.0770
 5249TIP3    H137162   5.389   3.129   2.575  0.8483  0.8138 -0.6963
 5249TIP3    H237163   5.344   2.985   2.571 -1.2885  1.4218 -0.2730
 5250TIP3   OH237164   5.412   3.420  13.893 -0.6458 -0.0874 -0.2413
 5250TIP3    H137165   5.502   3.439  13.919 -0.9226  1.2910 -0.1903
 5250TIP3    H237166   5.374   3.374  13.968 -1.4033  3.6915  1.9585
 5251TIP3   OH237167   2.662   0.960   1.458 -0.0052 -0.1204 -0.2365
 5251TIP3    H137168   2.612   1.029   1.414  1.2354  0.9068 -0.1137
 5251TIP3    H237169   2.613   0.944   1.539  0.0913  1.2006  0.1097
 5252TIP3   OH237170   0.745   1.062  17.048  0.0872 -0.7542  0.5074
 5252TIP3    H137171   0.721   1.030  16.961 -0.2937 -0.2006  0.4049
 5252TIP3    H237172   0.776   1.151  17.034 -2.3342  0.2832  1.2042
 5253TIP3   OH237173   0.858   1.572  13.404 -0.8124  0.7782  0.0703
 5253TIP3    H137174   0.789   1.578  13.338 -0.0703  0.2626 -0.7812
 5253TIP3    H237175   0.935   1.542  13.355 -0.3797 -0.1466  1.2651
 5254TIP3   OH237176   4.538   6.050  11.554 -0.7531 -0.1927  0.0993
 5254TIP3    H137177   4.501   5.971  11.515 -0.2753  0.4412 -1.6994
 5254TIP3    H237178   4.597   6.017  11.622 -1.3604 -1.3332  0.0995
 5255TIP3   OH237179   4.499   5.873   6.464  0.2488  0.0124  0.4863
 5255TIP3    H137180   4.530   5.787   6.437 -0.7682  0.1226 -1.1708
 5255TIP3    H237181   4.578   5.919   6.492  0.9895 -1.0196  0.1670
 5256TIP3   OH237182   5.737   4.995  11.107  0.0246  0.4667 -0.4307
 5256TIP3    H137183   5.721   4.959  11.019 -0.0501 -1.5516  0.3671
 5256TIP3    H237184   5.650   5.014  11.141 -0.0237  0.1039 -0.3450
 5257TIP3   OH237185   5.078   4.324   5.859  0.2203  0.3050  0.1344
 5257TIP3    H137186   5.147   4.276   5.906  0.3256  0.4190  0.0982
 5257TIP3    H237187   5.079   4.411   5.899  1.9045  1.1571 -1.6213
 5258TIP3   OH237188   6.053   2.668   5.536 -0.0208 -0.3415 -0.3794
 5258TIP3    H137189   6.026   2.747   5.582 -1.4261 -0.7069 -0.5349
 5258TIP3    H237190   6.135   2.643   5.578 -0.2075  0.4919  0.5175
 5259TIP3   OH237191   0.794   0.749   2.034  0.3505 -0.3504 -0.2330
 5259TIP3    H137192   0.852   0.816   2.071  0.7347  0.0308 -1.4818
 5259TIP3    H237193   0.836   0.666   2.056  0.8137 -0.1173 -0.2351
 5260TIP3   OH237194   0.049   1.077   5.227 -0.1269  0.5176 -0.1455
 5260TIP3    H137195  -0.007   1.006   5.195 -1.1175  0.6013  1.3501
 5260TIP3    H237196  -0.011   1.142   5.261  0.8439  1.2929  0.1183
 5261TIP3   OH237197   0.689   5.293   5.524 -0.4596  0.2132 -0.6886
 5261TIP3    H137198   0.644   5.345   5.590 -1.7190 -1.7786  0.1180
 5261TIP3    H237199   0.688   5.348   5.445 -0.6953  1.8247  0.3910
 5262TIP3   OH237200   5.180   2.022   0.396 -0.0465  0.0063  0.1677
 5262TIP3    H137201   5.165   2.093   0.333 -1.8698 -0.0487  0.4890
 5262TIP3    H237202   5.174   2.064   0.481  1.0092 -0.1807  0.3512
 5263TIP3   OH237203   4.154   4.815  11.847  0.3553 -0.1904 -0.2019
 5263TIP3    H137204   4.207   4.846  11.920  1.2004  0.5941 -1.1219
 5263TIP3    H237205   4.211   4.824  11.771 -1.2263  1.0961 -1.2994
 5264TIP3   OH237206   3.737   2.850  12.913  0.2210 -0.1509 -0.2098
 5264TIP3    H137207   3.680   2.772  12.907 -0.4428  0.3811 -1.2056
 5264TIP3    H237208   3.741   2.870  13.006  0.1831 -1.2255  0.0365
 5265TIP3   OH237209   1.064   0.523   2.957  0.3529  0.2040  0.1000
 5265TIP3    H137210   0.978   0.560   2.976  0.2052 -0.7463  1.3982
 5265TIP3    H237211   1.125   0.578   3.006  0.3502  0.0531  0.2728
 5266TIP3   OH237212   0.167   2.026  11.819 -0.1302 -0.2110  0.0770
 5266TIP3    H137213   0.135   1.976  11.744  1.1838 -1.5872  0.3972
 5266TIP3    H237214   0.087   2.052  11.865 -0.8791 -1.5682 -0.3943
 5267TIP3   OH237215   5.883   4.075  10.180 -0.0115  0.7406  0.0889
 5267TIP3    H137216   5.935   4.080  10.261  2.5615 -1.9406 -1.2146
 5267TIP3    H237217   5.828   3.998  10.192 -2.0715  2.1917  0.4735
 5268TIP3   OH237218   4.353   5.012   5.067  0.3473 -0.1381 -0.1345
 5268TIP3    H137219   4.277   4.959   5.091 -1.5523  3.2950  2.3216
 5268TIP3    H237220   4.428   4.966   5.104 -0.8017 -2.2878 -0.3349
 5269TIP3   OH237221   6.669   1.450   6.070  0.3303 -0.2083 -0.1146
 5269TIP3    H137222   6.728   1.517   6.037  1.0366 -1.4674 -1.5496
 5269TIP3    H237223   6.581   1.486   6.057  0.6442 -0.0824 -2.1613
 5270TIP3   OH237224   6.756   1.143  14.497 -0.3985 -0.4186  0.2633
 5270TIP3    H137225   6.826   1.159  14.560 -1.6575 -0.4215  1.7267
 5270TIP3    H237226   6.780   1.196  14.421  0.6494  0.4059  1.1314
 5271TIP3   OH237227   6.600   0.785  11.733  0.5216  0.6763  0.2914
 5271TIP3    H137228   6.656   0.845  11.684  0.0923  0.2345 -0.7616
 5271TIP3    H237229   6.649   0.703  11.737  0.5202  0.6866  0.5368
 5272TIP3   OH237230   1.781   2.783  14.250 -0.0900 -0.3813 -0.1765
 5272TIP3    H137231   1.840   2.749  14.317 -0.4868  1.5233  1.2141
 5272TIP3    H237232   1.804   2.734  14.171  2.0478 -1.0124  0.7692
 5273TIP3   OH237233   5.292   6.474  16.298  0.2437  0.4908  0.1636
 5273TIP3    H137234   5.278   6.380  16.305  1.9398  0.2128  0.2112
 5273TIP3    H237235   5.266   6.496  16.208  1.7659 -0.4234 -0.5361
 5274TIP3   OH237236   1.172   0.271   1.575  0.2266 -0.7591  0.2948
 5274TIP3    H137237   1.228   0.301   1.503  1.1010 -1.1809  0.7729
 5274TIP3    H237238   1.172   0.175   1.567  0.6991 -0.8395  1.1009
 5275TIP3   OH237239   0.420   3.934   4.718 -0.2499 -0.5530 -0.4797
 5275TIP3    H137240   0.478   3.930   4.794  0.7932  0.3276 -1.2018
 5275TIP3    H237241   0.360   4.007   4.737 -0.3525 -0.6904 -0.2667
 5276TIP3   OH237242   3.296   3.494   4.557 -0.0920  0.0528 -0.0540
 5276TIP3    H137243   3.278   3.503   4.651  1.3387  1.5055  0.1386
 5276TIP3    H237244   3.356   3.420   4.552  0.2407  0.2893  0.2724
 5277TIP3   OH237245   0.915   0.883  13.492 -0.5063 -0.0437 -0.4583
 5277TIP3    H137246   0.954   0.796  13.504  1.8156  1.0536  0.5588
 5277TIP3    H237247   0.952   0.915  13.410 -1.7712 -0.1797 -1.1069
 5278TIP3   OH237248   2.344   1.282   0.678 -0.1538 -0.0689 -0.1975
 5278TIP3    H137249   2.301   1.263   0.761 -0.3529  0.0559 -0.2704
 5278TIP3    H237250   2.402   1.208   0.663  0.5769  0.3436  0.5066
 5279TIP3   OH237251   5.799   0.489   4.897 -0.6881 -0.7066 -0.6542
 5279TIP3    H137252   5.780   0.420   4.961  0.3392 -0.3742  0.0427
 5279TIP3    H237253   5.724   0.548   4.902 -0.1511 -0.1127  1.0530
 5280TIP3   OH237254   5.737   3.279   3.371  0.9189 -0.2055  0.4041
 5280TIP3    H137255   5.710   3.194   3.406 -0.8762  0.1935  0.0697
 5280TIP3    H237256   5.765   3.329   3.448 -0.6511 -0.1722  0.9775
 5281TIP3   OH237257   2.883   2.710   4.019 -0.1406 -0.2795 -0.3222
 5281TIP3    H137258   2.819   2.660   4.069 -0.0754 -0.7067 -0.6570
 5281TIP3    H237259   2.946   2.644   3.988 -0.6288 -0.1494 -1.6647
 5282TIP3   OH237260   5.583   5.852   1.142  0.3380  0.2812 -0.0173
 5282TIP3    H137261   5.603   5.764   1.109 -1.0462 -0.0983  0.0535
 5282TIP3    H237262   5.552   5.899   1.064 -1.1907 -0.0520  0.3545
 5283TIP3   OH237263   0.308   0.424   4.195  0.3476  0.6856  0.3472
 5283TIP3    H137264   0.340   0.512   4.217 -1.9790  1.7649 -0.3073
 5283TIP3    H237265   0.361   0.397   4.120  1.7714  1.0454  1.1681
 5284TIP3   OH237266   6.366   1.216  11.725  0.3135  0.2440 -0.0642
 5284TIP3    H137267   6.286   1.224  11.672 -0.6964 -0.8516  1.2236
 5284TIP3    H237268   6.357   1.131  11.769  1.4506  0.7956  1.2940
 5285TIP3   OH237269   5.834   4.688   3.086  0.2154 -0.3780 -1.0064
 5285TIP3    H137270   5.872   4.647   3.009  1.2048 -0.5165 -0.4619
 5285TIP3    H237271   5.889   4.764   3.103  2.4647 -2.3674  1.7292
 5286TIP3   OH237272   5.535   2.957   1.514  0.1502  0.5338 -0.0809
 5286TIP3    H137273   5.470   3.015   1.475  0.0876 -0.8215 -2.1068
 5286TIP3    H237274   5.489   2.875   1.528  0.5477  0.5652  1.7075
 5287TIP3   OH237275   5.969   3.536   2.394 -0.3622 -0.1980 -0.0124
 5287TIP3    H137276   5.925   3.604   2.446 -1.5601  0.4904 -1.8405
 5287TIP3    H237277   5.909   3.462   2.396 -0.3643 -0.2041 -0.3353
 5288TIP3   OH237278   4.839   2.811   2.769  0.2264  0.1404  0.5529
 5288TIP3    H137279   4.767   2.747   2.766  0.6968 -0.3668 -0.1929
 5288TIP3    H237280   4.914   2.761   2.800  0.9914 -0.0829 -1.5121
 5289TIP3   OH237281   0.167   0.341   0.435  0.1012 -0.8224  0.1408
 5289TIP3    H137282   0.073   0.356   0.420  0.4394  0.3489 -0.9619
 5289TIP3    H237283   0.209   0.422   0.406  1.3004 -0.3761  2.8404
 5290TIP3   OH237284   5.699   4.853  17.007 -0.5295 -0.7344 -0.8346
 5290TIP3    H137285   5.610   4.843  16.973 -0.6915 -2.0561 -0.1009
 5290TIP3    H237286   5.701   4.941  17.044 -0.7791  0.2132 -2.9018
 5291TIP3   OH237287   1.302   3.167   2.571 -0.0147  0.2918  0.0960
 5291TIP3    H137288   1.316   3.129   2.657  0.4682  0.5516  0.1303
 5291TIP3    H237289   1.378   3.140   2.519  0.6824  1.7598  0.3095
 5292TIP3   OH237290   6.430   3.802   6.310  0.1926  0.4107  0.2098
 5292TIP3    H137291   6.439   3.878   6.252  0.7606  0.4403  0.3244
 5292TIP3    H237292   6.466   3.832   6.394  0.8705 -0.1309  0.1186
 5293TIP3   OH237293   1.130   2.847  16.874 -0.4208 -0.1979 -0.7169
 5293TIP3    H137294   1.038   2.856  16.850 -0.3201 -1.0207 -1.4497
 5293TIP3    H237295   1.171   2.806  16.798  0.4412 -0.3629 -0.1797
 5294TIP3   OH237296   0.825   6.294   0.296 -0.4740 -0.0054 -0.0382
 5294TIP3    H137297   0.741   6.334   0.319 -0.7934 -1.0199  0.5922
 5294TIP3    H237298   0.802   6.211   0.254  0.1972  0.1120 -0.6588
 5295TIP3   OH237299   4.720   1.549  11.573  0.1419  0.6131 -0.2752
 5295TIP3    H137300   4.644   1.502  11.606 -0.5553  0.9406 -1.3667
 5295TIP3    H237301   4.704   1.641  11.596 -0.0835  0.7653 -1.0262
 5296TIP3   OH237302   5.795   2.796  11.983  0.1413  0.5125  0.1465
 5296TIP3    H137303   5.775   2.705  12.004  0.7850  0.2440 -0.3845
 5296TIP3    H237304   5.724   2.822  11.923  0.7992 -0.1297 -0.9390
 5297TIP3   OH237305   3.382   5.127   2.391 -0.3116 -0.0842  0.1087
 5297TIP3    H137306   3.468   5.168   2.390 -0.0686 -0.5856  0.1483
 5297TIP3    H237307   3.345   5.146   2.304  0.6168 -1.4722 -0.6266
 5298TIP3   OH237308   6.480   5.489  14.467 -0.0235 -0.1315 -0.1334
 5298TIP3    H137309   6.401   5.522  14.425 -0.2960 -0.9851 -0.3125
 5298TIP3    H237310   6.552   5.526  14.416 -0.3170  0.2251 -0.2920
 5299TIP3   OH237311   2.199   4.260   4.365 -0.5210  0.0272 -0.1074
 5299TIP3    H137312   2.146   4.231   4.291  0.3502  1.4420 -1.3317
 5299TIP3    H237313   2.288   4.267   4.330  0.1100 -0.2700  1.3531
 5300TIP3   OH237314   2.290   1.670   1.186 -0.4610  0.1360 -0.1683
 5300TIP3    H137315   2.319   1.739   1.127 -1.8652  0.3478 -0.6523
 5300TIP3    H237316   2.201   1.650   1.158 -0.8778 -0.3218  1.3815
 5301TIP3   OH237317   2.953   0.286  15.004 -0.3207 -0.0803 -0.1333
 5301TIP3    H137318   3.045   0.270  15.022 -0.3976  0.5565  0.9771
 5301TIP3    H237319   2.952   0.350  14.933  0.0724 -0.6352 -0.6421
 5302TIP3   OH237320   1.239   5.291  15.730  0.2207  0.1228  0.0049
 5302TIP3    H137321   1.174   5.233  15.771  0.0320  0.0574 -0.3794
 5302TIP3    H237322   1.241   5.263  15.638  0.1568  0.6964 -0.1768
 5303TIP3   OH237323   4.774   2.461   5.376  0.3886 -0.3681  0.1739
 5303TIP3    H137324   4.732   2.485   5.459  1.1012 -1.5022  0.8869
 5303TIP3    H237325   4.707   2.413   5.328  0.6995 -1.8612  1.1567
 5304TIP3   OH237326   0.750   4.000  13.386 -0.3190  0.1123  0.1969
 5304TIP3    H137327   0.710   3.978  13.470  2.5767 -0.5620  1.5468
 5304TIP3    H237328   0.711   3.939  13.324 -1.5717 -0.2833  1.3226
 5305TIP3   OH237329   5.221   0.678  15.141 -0.2046 -0.1645 -0.4497
 5305TIP3    H137330   5.288   0.747  15.146 -1.4440  1.0622 -0.3269
 5305TIP3    H237331   5.248   0.614  15.207 -1.1608  2.1567  2.4144
 5306TIP3   OH237332   2.089   2.836  13.611  0.6472 -0.1694 -0.2182
 5306TIP3    H137333   2.014   2.799  13.658  0.7735 -1.7968 -1.2276
 5306TIP3    H237334   2.053   2.907  13.558 -0.1631 -0.8408 -0.5728
 5307TIP3   OH237335   6.775   6.555   3.622  0.8925 -0.3495  0.1487
 5307TIP3    H137336   6.853   6.498   3.626  0.4224 -1.1775 -1.5093
 5307TIP3    H237337   6.746   6.549   3.531  0.5091  2.1828  0.0545
 5308TIP3   OH237338   3.505   6.240  15.455  0.5316 -0.1922  0.5076
 5308TIP3    H137339   3.501   6.231  15.550 -0.4986 -0.5567  0.4408
 5308TIP3    H237340   3.598   6.253  15.436  0.7126  0.1889  1.5883
 5309TIP3   OH237341   1.367   2.758  15.279 -0.0438 -0.3825 -0.3846
 5309TIP3    H137342   1.372   2.843  15.323 -0.4231 -0.6049  0.0894
 5309TIP3    H237343   1.334   2.698  15.346 -0.8158 -0.6849 -1.0175
 5310TIP3   OH237344   1.035   5.150  16.635 -0.3434  0.0274  0.0961
 5310TIP3    H137345   1.082   5.077  16.676 -1.7282 -0.8231  0.2090
 5310TIP3    H237346   0.947   5.146  16.673 -0.3768  1.9195  0.2877
 5311TIP3   OH237347   6.093   1.558  12.385 -0.4080 -0.1116 -0.4969
 5311TIP3    H137348   6.156   1.620  12.348  0.0217  0.1167  0.5791
 5311TIP3    H237349   6.084   1.490  12.318  2.0491 -0.8897 -0.1541
 5312TIP3   OH237350   5.904   2.925   3.854  0.5276  0.4254  0.5528
 5312TIP3    H137351   5.997   2.944   3.868  0.9950 -1.1478 -0.1562
 5312TIP3    H237352   5.864   3.010   3.839  1.8184  1.1519  1.1110
 5313TIP3   OH237353   4.489   3.217   5.844  0.4502  0.2891  0.1494
 5313TIP3    H137354   4.408   3.262   5.823  0.3906  0.3386  0.4724
 5313TIP3    H237355   4.483   3.199   5.938  1.4331  1.5695  0.4835
 5314TIP3   OH237356   4.640   4.818  17.199 -0.1616  0.4436 -0.3382
 5314TIP3    H137357   4.658   4.738  17.249 -1.4619  0.2366 -0.1670
 5314TIP3    H237358   4.702   4.814  17.126 -0.4030 -0.8922 -0.5017
 5315TIP3   OH237359   2.784   0.318  15.713  0.1979  0.1029 -0.3989
 5315TIP3    H137360   2.858   0.378  15.713  0.7457 -0.5247 -1.7982
 5315TIP3    H237361   2.715   0.365  15.665  0.2531  0.0479 -0.5325
 5316TIP3   OH237362   4.791   0.014  16.750  0.0740 -0.0812 -0.1830
 5316TIP3    H137363   4.736  -0.005  16.674 -2.6218  0.5081  1.4510
 5316TIP3    H237364   4.811   0.107  16.743 -0.5851  0.0834  0.0376
 5317TIP3   OH237365   3.526   4.415   0.434 -0.3008  0.1268 -0.0207
 5317TIP3    H137366   3.576   4.341   0.400 -1.6392  0.0684 -2.0992
 5317TIP3    H237367   3.448   4.375   0.474 -1.9516  0.3357 -2.7589
 5318TIP3   OH237368   6.108   0.147   3.427 -0.2897  0.0103 -0.2021
 5318TIP3    H137369   6.181   0.134   3.367 -2.2410 -0.0561 -2.7149
 5318TIP3    H237370   6.148   0.145   3.514  2.3453 -2.3872 -1.3197
 5319TIP3   OH237371   4.438   5.723  16.599  0.4196  0.3448 -0.9059
 5319TIP3    H137372   4.352   5.716  16.556  0.4636  0.4352 -1.0087
 5319TIP3    H237373   4.491   5.773  16.538 -0.5957  3.8772  0.8738
 5320TIP3   OH237374   6.095   0.607   2.582  0.0603 -0.4574  0.1730
 5320TIP3    H137375   6.154   0.557   2.526 -1.0780 -1.9517  0.2490
 5320TIP3    H237376   6.013   0.611   2.533  0.1894  1.5912  0.0684
 5321TIP3   OH237377   1.493   3.112   1.519  0.7159  0.1673  0.5204
 5321TIP3    H137378   1.533   3.170   1.453  2.6499  0.8795  2.2290
 5321TIP3    H237379   1.444   3.048   1.467  0.4791  1.8994 -1.5269
 5322TIP3   OH237380   3.761   5.786  12.707  0.4732 -0.1221  0.3627
 5322TIP3    H137381   3.717   5.872  12.711 -0.4841 -0.5590 -0.2623
 5322TIP3    H237382   3.852   5.804  12.730  0.3476  1.1134 -0.0447
 5323TIP3   OH237383   1.699   0.790   1.459  0.2090 -0.0306 -0.0296
 5323TIP3    H137384   1.682   0.745   1.542  0.3667 -1.4065 -0.7052
 5323TIP3    H237385   1.791   0.817   1.466 -0.1214  0.9488  0.7151
 5324TIP3   OH237386   4.932   0.226  10.611 -0.4410 -0.1141 -0.0620
 5324TIP3    H137387   4.875   0.293  10.571  0.5706  1.0656  0.4166
 5324TIP3    H237388   4.878   0.147  10.613 -0.8865  0.0190 -2.8434
 5325TIP3   OH237389   1.874   2.187   0.227  0.0647 -0.3482  0.1369
 5325TIP3    H137390   1.957   2.139   0.227  1.2237  1.5639  1.1320
 5325TIP3    H237391   1.886   2.255   0.160 -1.1238 -0.6783 -0.4459
 5326TIP3   OH237392   1.683   2.027  14.364 -0.3402  0.3050  0.5307
 5326TIP3    H137393   1.642   2.036  14.278  0.5253  1.4620  0.2190
 5326TIP3    H237394   1.631   2.083  14.421  0.3595  1.2033  0.2934
 5327TIP3   OH237395   0.187   2.797   0.657  0.5460 -0.5192 -0.3880
 5327TIP3    H137396   0.160   2.883   0.689  0.7852 -1.0717  1.4799
 5327TIP3    H237397   0.200   2.808   0.563 -0.9623  1.0705 -0.4476
 5328TIP3   OH237398   6.080   2.735  16.658  0.4311  0.2517  0.0618
 5328TIP3    H137399   6.075   2.820  16.700 -1.1079  0.9395 -1.3865
 5328TIP3    H237400   6.160   2.696  16.692 -0.1602  1.1633  2.7497
 5329TIP3   OH237401   5.366   5.876  15.541 -0.4340 -0.8262  0.0114
 5329TIP3    H137402   5.383   5.804  15.480 -0.5976 -2.0506  1.3426
 5329TIP3    H237403   5.428   5.944  15.516  0.9651 -2.1180 -0.1939
 5330TIP3   OH237404   4.360   4.943  15.436  0.9340  0.0147  0.0273
 5330TIP3    H137405   4.298   4.870  15.423  0.7599 -0.1464  1.5856
 5330TIP3    H237406   4.375   4.945  15.530  2.6844  0.5920 -0.2288
 5331TIP3   OH237407   3.037   3.397   5.499  0.4636 -0.2614  0.4532
 5331TIP3    H137408   2.975   3.380   5.570  0.6640  0.7312  0.8802
 5331TIP3    H237409   3.024   3.489   5.478  1.0138 -0.3325 -0.2217
 5332TIP3   OH237410   0.021   0.176   5.161  0.3878  0.4455 -0.2766
 5332TIP3    H137411   0.047   0.092   5.199 -0.4101  0.5455  0.5045
 5332TIP3    H237412   0.025   0.238   5.234  0.2706  0.9493 -0.6888
 5333TIP3   OH237413   0.641   6.731   1.680  0.4032 -0.1391 -0.0174
 5333TIP3    H137414   0.701   6.804   1.663 -1.4100  1.6239  0.6837
 5333TIP3    H237415   0.553   6.768   1.665 -0.5374 -2.8629 -1.9544
 5334TIP3   OH237416   5.431   1.590  12.770  0.0566 -0.0987 -0.3473
 5334TIP3    H137417   5.509   1.627  12.729  0.1081  0.9485  0.6682
 5334TIP3    H237418   5.431   1.498  12.743  1.9224 -0.2511  0.0781
 5335TIP3   OH237419   5.802   4.099   3.416 -0.3792 -0.4715  0.5138
 5335TIP3    H137420   5.897   4.084   3.417 -0.2385  0.3498  0.3827
 5335TIP3    H237421   5.793   4.193   3.431 -1.1011 -0.2670 -1.0675
 5336TIP3   OH237422   1.870   5.295   5.853 -0.7165 -0.0596  0.4253
 5336TIP3    H137423   1.897   5.382   5.884  0.0844 -0.7450  1.7537
 5336TIP3    H237424   1.852   5.307   5.760 -0.1523  1.4266  0.4787
 5337TIP3   OH237425   1.960   3.071   4.584 -1.0138  0.5076  0.3453
 5337TIP3    H137426   1.873   3.040   4.609 -0.4090 -0.6880  1.0508
 5337TIP3    H237427   1.943   3.148   4.530 -2.6481 -1.3582 -2.0340
 5338TIP3   OH237428   0.342   2.499  17.117 -0.0486 -0.2240  0.6186
 5338TIP3    H137429   0.284   2.487  17.042 -1.6765  0.2136  1.7697
 5338TIP3    H237430   0.311   2.436  17.182  0.9389 -0.1620  1.1738
 5339TIP3   OH237431   2.029   3.974   6.281  0.6490 -0.6999  0.3485
 5339TIP3    H137432   2.118   4.010   6.276  0.7926 -1.0783  0.1701
 5339TIP3    H237433   1.979   4.042   6.326  0.8867 -0.2099 -0.1092
 5340TIP3   OH237434   4.891   1.265   2.059 -0.8602  0.1722 -0.5853
 5340TIP3    H137435   4.837   1.294   1.986  0.8761  0.4208 -1.8517
 5340TIP3    H237436   4.956   1.335   2.069 -0.8388 -0.0405  0.9571
 5341TIP3   OH237437   4.637   1.539   0.462  0.0601 -0.0715 -0.4071
 5341TIP3    H137438   4.617   1.554   0.370  2.3111  0.3360 -0.8648
 5341TIP3    H237439   4.707   1.474   0.462  0.1355 -0.0231  1.0092
 5342TIP3   OH237440   1.290   4.038  15.301 -0.2155 -0.0911 -0.7339
 5342TIP3    H137441   1.211   3.986  15.315  0.4419 -0.6396  1.2105
 5342TIP3    H237442   1.282   4.111  15.362  0.3252  0.4218 -1.2556
 5343TIP3   OH237443   0.965   5.251   4.167  0.2964  1.0173 -0.1191
 5343TIP3    H137444   0.983   5.213   4.081  0.8141  0.3101  0.2966
 5343TIP3    H237445   0.915   5.184   4.213  1.5426  0.6471  0.7587
 5344TIP3   OH237446   1.053   2.057   1.548  0.2442 -0.6474 -0.3134
 5344TIP3    H137447   0.958   2.045   1.552  0.3109 -2.7021 -2.3321
 5344TIP3    H237448   1.066   2.151   1.541 -1.7278 -0.3756 -0.9477
 5345TIP3   OH237449   3.039   6.471   4.871  0.3757 -0.0069  0.3070
 5345TIP3    H137450   3.105   6.413   4.909  0.7841  0.0791 -0.2572
 5345TIP3    H237451   2.977   6.487   4.943 -0.1755 -1.7530  0.2900
 5346TIP3   OH237452   6.715   3.217  12.281  0.0200  0.5571 -0.2446
 5346TIP3    H137453   6.720   3.284  12.349 -1.8739  1.1310 -0.6122
 5346TIP3    H237454   6.799   3.223  12.236  1.1453  0.4472  1.7481
 5347TIP3   OH237455   0.118   3.626  16.744  0.2196 -0.7751  0.0595
 5347TIP3    H137456   0.110   3.536  16.775  0.0093 -0.2167  1.7677
 5347TIP3    H237457   0.119   3.620  16.649  0.9159 -2.6328  0.1537
 5348TIP3   OH237458   5.483   0.624   1.299 -0.5726 -0.1161  0.7290
 5348TIP3    H137459   5.392   0.598   1.291 -0.3942 -1.5086  2.4353
 5348TIP3    H237460   5.487   0.671   1.383 -0.1557  2.2205 -0.5215
 5349TIP3   OH237461   2.398   4.124  11.996 -0.1118  0.2450  0.1806
 5349TIP3    H137462   2.394   4.211  11.957 -0.8531 -0.0565 -0.4453
 5349TIP3    H237463   2.338   4.128  12.071  0.9125  0.6697  0.9962
 5350TIP3   OH237464   5.898   1.841   3.090  0.3579  0.6821  0.2156
 5350TIP3    H137465   5.823   1.887   3.127 -0.0097 -0.4906  1.0039
 5350TIP3    H237466   5.870   1.819   3.001  0.2289  1.2618  0.1073
 5351TIP3   OH237467   1.886   0.221  15.404 -0.0532 -0.0013 -0.3754
 5351TIP3    H137468   1.851   0.138  15.436 -0.9476  0.7005  0.5936
 5351TIP3    H237469   1.829   0.287  15.444  1.1397  1.1148 -0.4390
 5352TIP3   OH237470   4.715   4.387  14.128  0.0789  0.1656  0.6302
 5352TIP3    H137471   4.776   4.450  14.091  1.0559 -1.4767 -0.6788
 5352TIP3    H237472   4.768   4.333  14.187 -0.2124 -0.8648 -0.0220
 5353TIP3   OH237473   4.687   5.163  13.751 -0.4886  0.0351 -0.1069
 5353TIP3    H137474   4.708   5.239  13.697 -2.9969  0.2838 -0.8881
 5353TIP3    H237475   4.756   5.160  13.817  0.3125  2.3128 -0.7561
 5354TIP3   OH237476   3.162   1.885  16.909 -0.0476 -0.9783  0.0048
 5354TIP3    H137477   3.198   1.927  16.831 -2.2238  3.2867  1.0412
 5354TIP3    H237478   3.126   1.802  16.877  2.3311 -1.1421 -2.6830
 5355TIP3   OH237479   2.551   1.413  11.772 -0.5012 -0.2950  0.0159
 5355TIP3    H137480   2.513   1.364  11.845  0.9552 -1.4372  0.0530
 5355TIP3    H237481   2.585   1.346  11.713 -0.4908  0.6445 -1.0819
 5356TIP3   OH237482   0.097   1.087  15.049 -0.3216  1.0778 -0.2314
 5356TIP3    H137483   0.180   1.100  15.004  0.5220  0.9587  1.2045
 5356TIP3    H237484   0.108   1.132  15.133 -0.8440 -0.7807  0.9076
 5357TIP3   OH237485   3.866   5.252  15.477 -0.1705  0.4017 -0.1759
 5357TIP3    H137486   3.810   5.262  15.554 -2.2835 -0.5255 -1.4922
 5357TIP3    H237487   3.882   5.341  15.447  0.1934  0.7415  0.9818
 5358TIP3   OH237488   6.234   3.715   5.860  0.5195  0.7924 -0.2951
 5358TIP3    H137489   6.143   3.688   5.867  0.8056 -0.1392 -0.0027
 5358TIP3    H237490   6.284   3.638   5.885  1.3804  1.7489  1.0940
 5359TIP3   OH237491   1.771   3.750  11.398 -0.2330 -0.1290 -0.0728
 5359TIP3    H137492   1.733   3.826  11.353  0.5735 -0.6593 -1.7178
 5359TIP3    H237493   1.706   3.681  11.388  0.3816 -0.5528 -1.4280
 5360TIP3   OH237494   2.378   2.505  11.518  0.0398  0.0656 -1.0104
 5360TIP3    H137495   2.390   2.579  11.459  0.7489  0.3584 -0.5205
 5360TIP3    H237496   2.467   2.485  11.549 -0.1816 -0.8074 -0.9206
 5361TIP3   OH237497   3.697   3.427  11.839 -0.7922  0.1957  0.0126
 5361TIP3    H137498   3.697   3.510  11.886  0.3710  0.8874 -1.1240
 5361TIP3    H237499   3.772   3.379  11.874 -1.5204 -0.4306  0.7358
 5362TIP3   OH237500   0.117   2.862  14.667  0.6047 -0.4248  0.5620
 5362TIP3    H137501   0.175   2.845  14.593 -0.4130 -1.2596 -0.0618
 5362TIP3    H237502   0.048   2.796  14.660 -0.3442  0.4388  1.3802
 5363TIP3   OH237503   5.090   3.170   2.572  0.2228 -0.0671  0.2111
 5363TIP3    H137504   5.086   3.146   2.480 -0.7468 -1.0602  0.4866
 5363TIP3    H237505   5.008   3.137   2.609 -0.0881  1.5998  1.1388
 5364TIP3   OH237506   5.292   4.736  12.897  0.0652  0.4749 -0.4448
 5364TIP3    H137507   5.251   4.680  12.963 -0.4495 -0.6752 -1.6717
 5364TIP3    H237508   5.221   4.790  12.863  0.3533  1.1552  0.0264
 5365TIP3   OH237509   2.146   0.891   5.591 -0.0025 -0.3127 -0.1952
 5365TIP3    H137510   2.175   0.923   5.506 -0.5013 -0.4210 -0.4052
 5365TIP3    H237511   2.067   0.841   5.573  1.1572 -2.2973  0.0384
 5366TIP3   OH237512   1.796   1.537  16.877 -0.7111  0.6691  0.4271
 5366TIP3    H137513   1.867   1.582  16.921 -0.4395  0.3485  0.3169
 5366TIP3    H237514   1.733   1.606  16.856  1.0446  1.5197 -2.4483
 5367TIP3   OH237515   1.001   6.527   4.246 -0.0999 -0.0237  0.1339
 5367TIP3    H137516   1.076   6.580   4.219 -0.6200 -0.9438 -3.7481
 5367TIP3    H237517   0.932   6.591   4.266 -0.0029  0.9008 -2.1708
 5368TIP3   OH237518   1.706   4.584   6.599 -0.0108  0.2417 -1.1523
 5368TIP3    H137519   1.693   4.652   6.532 -0.8664  0.0509 -1.1883
 5368TIP3    H237520   1.734   4.507   6.549  2.1582  0.8773 -0.9947
 5369TIP3   OH237521   6.363   1.932  12.568 -0.5075 -0.1247 -0.0628
 5369TIP3    H137522   6.271   1.907  12.582 -0.3041  0.2364  2.3215
 5369TIP3    H237523   6.373   2.014  12.615  1.1321 -0.3433  0.0120
 5370TIP3   OH237524   6.038   5.243  13.069 -1.0184  0.5830  1.1959
 5370TIP3    H137525   6.005   5.274  13.154 -0.7999 -0.3808  1.6474
 5370TIP3    H237526   6.132   5.235  13.081 -0.9102  1.0209  0.6641
 5371TIP3   OH237527   5.324   5.875   2.665 -0.3725  0.0858 -0.0276
 5371TIP3    H137528   5.399   5.917   2.622  0.1862  0.2464  1.0689
 5371TIP3    H237529   5.268   5.847   2.592  0.3209  0.7387 -0.8473
 5372TIP3   OH237530   0.092   2.866  12.644 -0.3826 -0.3008  0.3220
 5372TIP3    H137531   0.026   2.927  12.676 -0.4867 -0.6776  0.8301
 5372TIP3    H237532   0.098   2.884  12.550 -0.1196  0.7735  0.5284
 5373TIP3   OH237533   5.632   4.535  14.455 -0.5878 -0.1403 -0.5418
 5373TIP3    H137534   5.594   4.584  14.527 -0.8849 -1.5291  0.2881
 5373TIP3    H237535   5.624   4.443  14.481  2.9337 -0.5852 -0.4606
 5374TIP3   OH237536   1.761   0.755   6.069  0.0114  0.3379  0.4173
 5374TIP3    H137537   1.855   0.764   6.053 -0.2971  0.0908 -2.0416
 5374TIP3    H237538   1.725   0.842   6.050 -0.3282  0.2189  0.5002
 5375TIP3   OH237539   4.099   0.087  15.466  0.2462  0.6752  0.5233
 5375TIP3    H137540   4.185   0.104  15.427 -0.5321  2.3564 -0.5489
 5375TIP3    H237541   4.097  -0.008  15.478  2.1320  0.5731  0.3011
 5376TIP3   OH237542   3.140   2.465  12.908 -0.3385 -0.3330  0.1428
 5376TIP3    H137543   3.139   2.376  12.872  0.3654 -0.7215  1.0414
 5376TIP3    H237544   3.210   2.463  12.972  0.7625  1.3282 -0.9460
 5377TIP3   OH237545   3.849   1.857   4.621 -0.0784 -0.2734  0.2018
 5377TIP3    H137546   3.896   1.884   4.542  0.1233  1.8632  0.9899
 5377TIP3    H237547   3.893   1.904   4.692 -0.6479 -1.6776  1.5175
 5378TIP3   OH237548   5.771   3.249   0.202  0.1776  0.4611  0.4079
 5378TIP3    H137549   5.789   3.177   0.263 -0.4187  0.6605  0.8278
 5378TIP3    H237550   5.683   3.230   0.169 -0.4961  1.6538  1.4606
 5379TIP3   OH237551   4.523   5.585  10.485  0.1395 -0.5091  0.4694
 5379TIP3    H137552   4.617   5.581  10.472  0.0661 -0.4124 -0.1528
 5379TIP3    H237553   4.497   5.670  10.450  0.1366  0.5573  2.8698
 5380TIP3   OH237554   3.331   0.906   2.896 -0.7869  0.1881  0.0094
 5380TIP3    H137555   3.392   0.833   2.887 -0.0607  0.9040 -1.1225
 5380TIP3    H237556   3.359   0.970   2.830 -0.4983  2.1450  1.9217
 5381TIP3   OH237557   6.700   4.433  11.097 -0.0503 -0.0575 -0.1200
 5381TIP3    H137558   6.632   4.400  11.156 -0.4162  2.0706  0.7469
 5381TIP3    H237559   6.675   4.524  11.079  2.7732  0.9952  0.6430
 5382TIP3   OH237560   4.913   4.635   3.295  0.3001 -0.2827 -0.5293
 5382TIP3    H137561   4.973   4.584   3.349  0.6430 -0.7753 -1.3586
 5382TIP3    H237562   4.967   4.668   3.224 -0.0993  0.5494 -0.4650
 5383TIP3   OH237563   3.902   4.523   4.012 -0.4565 -0.1849 -0.5954
 5383TIP3    H137564   3.836   4.488   3.953 -0.5862 -0.6218 -0.1945
 5383TIP3    H237565   3.944   4.594   3.962 -0.1162 -0.9720 -1.4479
 5384TIP3   OH237566   0.285   6.648  15.905  0.4847  0.3056  0.5802
 5384TIP3    H137567   0.299   6.675  15.814  1.5730  1.2897  1.0140
 5384TIP3    H237568   0.217   6.707  15.937 -1.6263 -1.5637 -0.2301
 5385TIP3   OH237569   3.355   0.485  11.915  0.1580  0.0141  0.2424
 5385TIP3    H137570   3.331   0.394  11.930 -1.9673  0.2314 -1.2927
 5385TIP3    H237571   3.408   0.509  11.991 -1.1118 -1.8390  1.8065
 5386TIP3   OH237572   6.207   1.809   2.959 -0.3749  0.5662 -0.0115
 5386TIP3    H137573   6.223   1.847   2.873  1.4391  1.2877  0.5972
 5386TIP3    H237574   6.236   1.876   3.021 -0.4343 -0.4402  1.1404
 5387TIP3   OH237575   1.368   3.834   2.641  0.0990 -0.2571 -0.1607
 5387TIP3    H137576   1.436   3.865   2.582  1.5308 -2.4643  0.2402
 5387TIP3    H237577   1.316   3.774   2.588  0.3733 -0.9708  0.3764
 5388TIP3   OH237578   0.221   4.833  17.068 -0.1644  0.2472 -0.3080
 5388TIP3    H137579   0.166   4.756  17.053  2.7791 -1.6079 -2.5343
 5388TIP3    H237580   0.249   4.825  17.159 -1.2633 -0.3326 -0.0015
 5389TIP3   OH237581   3.133   1.942   6.429 -0.7549 -0.1860 -0.1150
 5389TIP3    H137582   3.039   1.946   6.413 -0.6214 -0.6990 -1.0928
 5389TIP3    H237583   3.155   1.849   6.424 -0.3866 -0.2087  1.3638
 5390TIP3   OH237584   5.505   4.653  10.651 -0.0285 -0.9299 -0.6928
 5390TIP3    H137585   5.572   4.719  10.672  0.0376 -1.2135  0.0358
 5390TIP3    H237586   5.481   4.671  10.560 -0.6900  0.6912 -0.2286
 5391TIP3   OH237587   5.794   5.706  11.504 -0.1214 -0.2387  0.0382
 5391TIP3    H137588   5.765   5.664  11.585 -2.1834 -0.0163 -0.5134
 5391TIP3    H237589   5.777   5.799  11.518 -0.0801 -0.1490 -0.4772
 5392TIP3   OH237590   4.215   5.201   6.874 -0.1189  0.3134 -0.1507
 5392TIP3    H137591   4.206   5.294   6.897  0.6839 -0.1841  2.6097
 5392TIP3    H237592   4.304   5.193   6.840 -0.2030  0.5509 -0.4311
 5393TIP3   OH237593   0.170   1.576   6.045 -0.0275 -0.0778 -0.7141
 5393TIP3    H137594   0.197   1.637   6.114 -4.6475  0.8545  0.5718
 5393TIP3    H237595   0.211   1.611   5.965  2.4507  0.9872  0.9066
 5394TIP3   OH237596   0.395   4.413   0.330 -0.0996  0.1603  0.1430
 5394TIP3    H137597   0.314   4.362   0.326 -0.5182  0.8208  0.1390
 5394TIP3    H237598   0.421   4.422   0.238 -0.7909  1.1505  0.0270
 5395TIP3   OH237599   1.498   6.491   2.210 -0.5981  0.0170 -0.5830
 5395TIP3    H137600   1.455   6.496   2.296  1.1379  0.9591  0.2881
 5395TIP3    H237601   1.467   6.569   2.164  1.4167  1.7266  0.7292
 5396TIP3   OH237602   1.701   1.522  12.244 -0.2128  0.0698  0.4780
 5396TIP3    H137603   1.703   1.479  12.329  1.8524 -0.5778  0.1620
 5396TIP3    H237604   1.664   1.609  12.261  1.0432  0.3079  2.2302
 5397TIP3   OH237605   0.788   2.157   0.337 -0.1276  0.1083 -0.4314
 5397TIP3    H137606   0.706   2.143   0.385 -0.0688  3.3150  0.8393
 5397TIP3    H237607   0.763   2.210   0.261  0.6319  0.1959 -0.6253
 5398TIP3   OH237608   5.832   3.989   4.902  0.0761  0.1789 -0.5090
 5398TIP3    H137609   5.881   3.969   4.982 -0.8681  0.3933  0.1527
 5398TIP3    H237610   5.744   3.954   4.919 -0.3224  0.8241 -1.1816
 5399TIP3   OH237611   4.391   2.035   1.322  0.1477  1.0624 -0.0005
 5399TIP3    H137612   4.413   1.960   1.378  0.3156  1.9947  1.2235
 5399TIP3    H237613   4.433   2.016   1.238  1.2300  0.3731  0.6837
 5400TIP3   OH237614   0.020   5.252   3.620 -0.1592  0.0383  0.1641
 5400TIP3    H137615  -0.041   5.201   3.568  1.2049 -1.0344 -0.4611
 5400TIP3    H237616   0.067   5.186   3.672  0.8941  0.7512  0.1387
 5401TIP3   OH237617   3.460   4.025  13.041 -0.0384 -0.4683  0.1351
 5401TIP3    H137618   3.410   3.944  13.055 -1.1966 -0.4394 -3.1439
 5401TIP3    H237619   3.422   4.087  13.103 -1.3501 -1.5364  0.4558
 5402TIP3   OH237620   0.937   1.471  12.501 -0.3697 -0.4168 -0.0525
 5402TIP3    H137621   0.913   1.560  12.472  2.7535  0.3027 -0.7365
 5402TIP3    H237622   0.952   1.480  12.595  1.2970  0.1786 -0.3425
 5403TIP3   OH237623   4.714   4.263   2.875  0.0742  0.2743  0.2145
 5403TIP3    H137624   4.733   4.276   2.782 -0.3625 -0.0594  0.0784
 5403TIP3    H237625   4.709   4.352   2.910  1.8765  0.3963  0.2635
 5404TIP3   OH237626   6.016   2.359   4.007 -0.0349 -0.3453  0.5568
 5404TIP3    H137627   5.938   2.304   4.002  1.1382 -1.9711 -2.5870
 5404TIP3    H237628   6.024   2.399   3.920  1.2053  1.9466  1.6153
 5405TIP3   OH237629   1.359   4.485  12.068 -0.5749  0.2092  0.3477
 5405TIP3    H137630   1.390   4.470  12.157 -2.2836  1.2327  1.1676
 5405TIP3    H237631   1.361   4.399  12.026 -3.5738 -1.1754  2.6750
 5406TIP3   OH237632   5.205   1.984  14.363 -0.1211  0.3593  0.3276
 5406TIP3    H137633   5.249   1.933  14.296 -0.1870  0.9031 -0.1412
 5406TIP3    H237634   5.125   1.935  14.382 -0.3308  0.4346 -0.3349
 5407TIP3   OH237635   5.946   3.694   3.627  0.4516  0.0688  0.1073
 5407TIP3    H137636   5.992   3.754   3.685  1.5451 -0.3723 -0.2635
 5407TIP3    H237637   5.886   3.749   3.577  1.2360  0.8040 -0.0344
 5408TIP3   OH237638   4.083   3.668   4.056  0.7170  0.1174  0.5790
 5408TIP3    H137639   4.090   3.718   3.974 -0.3121  0.8347  0.9016
 5408TIP3    H237640   3.996   3.628   4.052  0.0273  1.3919  1.9708
 5409TIP3   OH237641   3.969   0.443   1.465  0.0124  0.3811 -0.2849
 5409TIP3    H137642   3.898   0.443   1.401 -0.6578  0.3845  0.4413
 5409TIP3    H237643   3.985   0.350   1.483 -1.5063  0.3833  1.3578
 5410TIP3   OH237644   0.313   2.899   2.586  0.5281  0.5274 -0.1946
 5410TIP3    H137645   0.271   2.827   2.539  0.3120  1.0389 -0.7993
 5410TIP3    H237646   0.240   2.944   2.630  0.6099  0.6250 -0.1589
 5411TIP3   OH237647   4.732   3.067  15.282 -0.2877  0.0405 -0.7840
 5411TIP3    H137648   4.734   3.162  15.268  1.0443 -0.0515 -1.3460
 5411TIP3    H237649   4.790   3.031  15.215 -0.3793 -1.1345 -0.2644
 5412TIP3   OH237650   3.511   0.076  15.153 -0.1202  0.3312 -0.2087
 5412TIP3    H137651   3.517  -0.019  15.140 -1.7447  0.3254 -1.1263
 5412TIP3    H237652   3.499   0.086  15.248 -0.0499 -0.3778 -0.1170
 5413TIP3   OH237653   3.736   0.966   1.264 -0.0765 -0.2499 -0.0567
 5413TIP3    H137654   3.726   0.973   1.359  1.0786  0.0600  0.0606
 5413TIP3    H237655   3.811   0.908   1.253 -0.1781 -0.2442 -0.7841
 5414TIP3   OH237656   0.438   3.708  14.170  0.2637  0.2703  0.7449
 5414TIP3    H137657   0.515   3.755  14.137 -1.4208  1.1342 -2.2833
 5414TIP3    H237658   0.468   3.617  14.176  0.9078  0.0331 -3.2046
 5415TIP3   OH237659   3.366   0.886  17.201 -0.9123 -0.3413  0.2673
 5415TIP3    H137660   3.361   0.951  17.270 -1.7268 -0.7348  0.5948
 5415TIP3    H237661   3.414   0.813  17.241 -0.8144 -0.3142  0.2011
 5416TIP3   OH237662   3.432   0.210  16.390  0.5620  0.2910  0.0166
 5416TIP3    H137663   3.407   0.125  16.427 -3.0848  0.5900 -1.3278
 5416TIP3    H237664   3.387   0.274  16.445 -0.3160  1.0298 -1.4787
 5417TIP3   OH237665   3.898   3.502   2.638  0.4020  0.5583 -0.7734
 5417TIP3    H137666   3.843   3.478   2.712  0.9620  3.1727  0.6286
 5417TIP3    H237667   3.924   3.419   2.599  1.5314 -1.1013  3.0341
 5418TIP3   OH237668   2.345   2.365  12.020 -0.4033  0.1492  0.5322
 5418TIP3    H137669   2.314   2.435  12.078 -2.8490 -1.5250  1.4105
 5418TIP3    H237670   2.269   2.345  11.965  1.0010 -0.2438 -1.3565
 5419TIP3   OH237671   6.170   1.960   1.944 -0.2463  0.0554  0.0907
 5419TIP3    H137672   6.122   2.036   1.977  1.2069  0.7518  0.7061
 5419TIP3    H237673   6.117   1.885   1.969 -2.1228  0.8692 -1.2214
 5420TIP3   OH237674   4.492   3.975  15.423 -0.7672  0.4143  0.0050
 5420TIP3    H137675   4.559   3.908  15.434  0.8385  2.1717  1.9554
 5420TIP3    H237676   4.414   3.938  15.465 -0.0691 -0.4270  0.5985
 5421TIP3   OH237677   0.582   1.447   1.800  0.7224  0.1789 -0.2470
 5421TIP3    H137678   0.545   1.535   1.784  4.0975  1.8629  0.3970
 5421TIP3    H237679   0.542   1.419   1.882 -1.5629  0.3448 -1.2141
 5422TIP3   OH237680   2.234   4.588   2.914 -0.1105 -0.0562 -0.1572
 5422TIP3    H137681   2.212   4.681   2.918  1.3767  0.4701 -2.3914
 5422TIP3    H237682   2.168   4.545   2.969  0.1507  2.4278  2.2919
 5423TIP3   OH237683   0.126   2.867   2.096  0.1195 -0.4747 -0.0202
 5423TIP3    H137684   0.214   2.905   2.103 -0.3392  0.9369 -1.2756
 5423TIP3    H237685   0.140   2.778   2.066  1.1201 -0.1319 -0.6180
 5424TIP3   OH237686   3.334   6.043  14.929 -0.0080 -0.1548  0.2025
 5424TIP3    H137687   3.314   6.087  14.846  1.5966  2.0621  0.8941
 5424TIP3    H237688   3.259   6.063  14.986  0.1429  0.6749  0.1193
 5425TIP3   OH237689   1.041   6.214  14.420  1.1736 -0.0638 -0.2781
 5425TIP3    H137690   1.103   6.256  14.480 -0.2535 -0.7138  1.7379
 5425TIP3    H237691   0.962   6.267  14.426  0.1275 -1.6540  0.5135
 5426TIP3   OH237692   2.178   4.433  16.568 -0.3097 -0.6578  0.3217
 5426TIP3    H137693   2.184   4.343  16.535  0.5112 -0.6385  0.3972
 5426TIP3    H237694   2.269   4.464  16.569 -0.4178 -0.3195  1.6478
 5427TIP3   OH237695   5.793   2.177  11.367  0.5110 -0.7555  0.2785
 5427TIP3    H137696   5.713   2.184  11.420 -0.4642 -0.4593 -1.1835
 5427TIP3    H237697   5.846   2.111  11.412  0.5952  0.8250  2.6893
 5428TIP3   OH237698   4.197   6.246  11.990 -0.3429  0.0705 -0.1489
 5428TIP3    H137699   4.103   6.233  12.008 -0.3348 -1.6744 -1.0871
 5428TIP3    H237700   4.199   6.289  11.905 -0.3271 -1.4942 -0.9831
 5429TIP3   OH237701   1.567   0.681   4.111  0.2191 -0.3805 -0.1131
 5429TIP3    H137702   1.531   0.738   4.043 -0.6977  1.3124  1.7033
 5429TIP3    H237703   1.660   0.677   4.092 -0.0787 -0.3911 -1.7423
 5430TIP3   OH237704   0.170   5.534  10.327 -0.6648  0.0609 -0.5716
 5430TIP3    H137705   0.091   5.530  10.272 -0.4257 -2.1177 -0.8738
 5430TIP3    H237706   0.157   5.464  10.391  0.4588  0.5231  0.1870
 5431TIP3   OH237707   4.787   6.570  10.569 -0.4483 -0.0628 -0.3833
 5431TIP3    H137708   4.743   6.500  10.521 -0.2575 -0.0453 -0.5879
 5431TIP3    H237709   4.743   6.650  10.541 -1.8485 -0.2350  1.1665
 5432TIP3   OH237710   0.767   1.647   2.450  0.1505 -0.1759  0.4868
 5432TIP3    H137711   0.780   1.555   2.429  1.8726  0.3599 -0.9824
 5432TIP3    H237712   0.780   1.652   2.545 -1.0167 -1.5705  0.7578
 5433TIP3   OH237713   1.994   3.478  14.854  0.5102 -0.5344 -0.3086
 5433TIP3    H137714   2.064   3.542  14.866  0.7203 -0.8282  0.0452
 5433TIP3    H237715   1.951   3.473  14.940  0.7465 -1.1617 -0.2239
 5434TIP3   OH237716   6.505   1.402   2.990  0.1677  0.6309  0.0998
 5434TIP3    H137717   6.526   1.351   3.068 -0.9011 -0.2435 -0.1705
 5434TIP3    H237718   6.568   1.372   2.925 -0.7040 -0.6861 -0.1805
 5435TIP3   OH237719   2.947   4.620  15.239  0.4552  0.0725 -0.8195
 5435TIP3    H137720   2.961   4.665  15.323 -1.1241  1.2610 -1.1527
 5435TIP3    H237721   2.885   4.551  15.258  0.2775  0.1915 -0.9669
 5436TIP3   OH237722   1.381   1.167  12.716 -0.0369  0.4051  0.5813
 5436TIP3    H137723   1.355   1.097  12.775 -0.2586  0.2156  0.2606
 5436TIP3    H237724   1.465   1.197  12.751 -0.0319  0.1090  0.8314
 5437TIP3   OH237725   6.303   0.775   3.032  0.1856  0.1375  0.0176
 5437TIP3    H137726   6.308   0.818   3.118  0.1642  0.0114  0.0824
 5437TIP3    H237727   6.221   0.726   3.034  0.3939 -0.2187  0.0930
 5438TIP3   OH237728   6.305   6.572   2.490 -0.0245 -0.3416 -0.3925
 5438TIP3    H137729   6.318   6.597   2.582  0.1802 -0.9695 -0.2377
 5438TIP3    H237730   6.387   6.528   2.466 -0.0704 -0.1658 -0.8843
 5439TIP3   OH237731   4.047   3.699   5.575 -0.0992 -0.1888  0.3591
 5439TIP3    H137732   3.981   3.630   5.582 -1.0762  0.5443 -1.0581
 5439TIP3    H237733   4.066   3.724   5.665 -1.0678 -1.0534  0.8267
 5440TIP3   OH237734   0.720   0.366  16.293  0.2168  0.3682 -0.1991
 5440TIP3    H137735   0.741   0.437  16.354  2.1534 -0.6648  0.4194
 5440TIP3    H237736   0.777   0.383  16.217  1.4165 -1.0184  0.3597
 5441TIP3   OH237737   6.603   1.595  12.218 -0.5862 -0.0490 -0.8667
 5441TIP3    H137738   6.671   1.572  12.156 -0.3102 -0.0526 -0.5637
 5441TIP3    H237739   6.556   1.667  12.176 -0.1312  0.2356 -0.8963
 5442TIP3   OH237740   0.239   1.261  14.522 -0.0664  0.2103 -0.6492
 5442TIP3    H137741   0.317   1.211  14.497  0.1308  0.1377  0.0709
 5442TIP3    H237742   0.256   1.287  14.613 -0.7803  0.3941 -0.5615
 5443TIP3   OH237743   1.604   3.920  12.090  1.2606  0.0396 -0.1119
 5443TIP3    H137744   1.680   3.946  12.039  0.1996  1.4151 -1.0489
 5443TIP3    H237745   1.590   3.991  12.152  1.0354 -0.4449  0.4071
 5444TIP3   OH237746   1.564   6.040  15.452 -0.1371 -0.0197 -0.0520
 5444TIP3    H137747   1.658   6.059  15.462  0.1570 -1.2194 -0.3763
 5444TIP3    H237748   1.550   5.960  15.503 -0.6098 -0.8031 -1.3409
 5445TIP3   OH237749   2.330   0.194  13.686 -0.0010  0.0480 -0.2826
 5445TIP3    H137750   2.388   0.118  13.690 -0.1839 -0.0743  0.0768
 5445TIP3    H237751   2.266   0.173  13.618  0.7289  0.4379 -1.1174
 5446TIP3   OH237752   0.081   2.934   4.968  0.2369  0.2417 -0.0111
 5446TIP3    H137753   0.116   2.923   5.056  2.0782  1.6585 -0.5020
 5446TIP3    H237754   0.061   2.845   4.939 -0.6205 -0.2342  1.8869
 5447TIP3   OH237755   2.278   1.371  11.028  0.6489  0.2934 -0.5094
 5447TIP3    H137756   2.184   1.353  11.029  0.6107  0.2561 -2.0085
 5447TIP3    H237757   2.315   1.299  10.978  1.6336 -0.2406  0.9397
 5448TIP3   OH237758   1.783   3.900   1.484  0.4207 -0.1660  0.2850
 5448TIP3    H137759   1.871   3.861   1.487 -0.1729 -1.5623  3.6624
 5448TIP3    H237760   1.725   3.833   1.520 -1.6744  1.5943  0.4079
 5449TIP3   OH237761   4.311   2.515  16.751 -0.4366  0.1389  0.1971
 5449TIP3    H137762   4.319   2.584  16.685 -0.9132  0.7950  0.8051
 5449TIP3    H237763   4.253   2.450  16.712 -1.4098  0.9275  0.2798
 5450TIP3   OH237764   3.339   1.821   1.511  0.3221 -0.0443  0.1357
 5450TIP3    H137765   3.264   1.881   1.508 -0.4595 -0.9955 -2.0814
 5450TIP3    H237766   3.415   1.876   1.494 -0.3037  0.4796 -1.1170
 5451TIP3   OH237767   4.246   0.043  14.116 -0.2731  0.2530 -0.5595
 5451TIP3    H137768   4.156   0.066  14.096 -0.5903  0.2404  0.7918
 5451TIP3    H237769   4.276   0.111  14.175  0.5216  0.1032 -0.7712
 5452TIP3   OH237770   3.894   3.015   0.565 -0.0325  0.0582 -0.1540
 5452TIP3    H137771   3.849   3.099   0.568  0.5395  0.3372  1.4117
 5452TIP3    H237772   3.830   2.955   0.526 -0.7163  1.0486 -0.5836
 5453TIP3   OH237773   2.944   5.719  16.983 -0.2688 -0.2143  0.1159
 5453TIP3    H137774   2.903   5.740  17.067  1.4404 -0.3834  1.0248
 5453TIP3    H237775   2.977   5.631  16.994  1.2508  0.2950 -0.2091
 5454TIP3   OH237776   3.987   6.141  14.057 -1.1506 -0.1329 -0.3398
 5454TIP3    H137777   4.046   6.134  13.982 -1.9977 -0.0347 -1.0437
 5454TIP3    H237778   4.043   6.133  14.134 -0.0318  1.2803 -0.9569
 5455TIP3   OH237779   5.881   3.548   5.639  0.1977  0.1058  0.2087
 5455TIP3    H137780   5.947   3.486   5.607 -1.2690 -1.4196 -0.0079
 5455TIP3    H237781   5.873   3.613   5.570  0.8372 -0.1997 -0.1609
 5456TIP3   OH237782   6.450   1.633  11.546  0.0226 -0.4518  0.1594
 5456TIP3    H137783   6.472   1.541  11.529 -0.4883 -0.5616  0.0759
 5456TIP3    H237784   6.462   1.644  11.640 -1.2708 -0.9876  0.4134
 5457TIP3   OH237785   3.951   5.553  12.146 -0.2804 -0.0714 -0.3109
 5457TIP3    H137786   4.004   5.559  12.067 -1.6106 -1.0892 -1.3264
 5457TIP3    H237787   3.892   5.628  12.141 -0.1180  0.0720 -0.0896
 5458TIP3   OH237788   2.104   5.691   5.275  0.1126  0.5199 -0.2643
 5458TIP3    H137789   2.055   5.640   5.339  0.4114  0.1868 -0.2983
 5458TIP3    H237790   2.037   5.728   5.217 -0.3968  2.8178  1.6161
 5459TIP3   OH237791   0.242   4.958  13.680  0.2457 -0.0149 -0.0497
 5459TIP3    H137792   0.199   5.030  13.726 -1.3883 -0.0886 -1.3964
 5459TIP3    H237793   0.273   4.901  13.750  3.9483  3.1391  1.2534
 5460TIP3   OH237794   6.557   3.459  14.725  0.3137  0.4066  0.3343
 5460TIP3    H137795   6.524   3.547  14.708 -2.8963 -0.9413 -1.1617
 5460TIP3    H237796   6.579   3.425  14.638 -0.3580 -0.9063  0.6524
 5461TIP3   OH237797   2.114   0.493  13.806  0.4176  0.1927 -0.8728
 5461TIP3    H137798   2.105   0.506  13.712  1.4486 -1.4895 -1.2506
 5461TIP3    H237799   2.152   0.574  13.839 -0.5464  1.0350 -1.7880
 5462TIP3   OH237800   6.285   2.647  13.647 -0.5595 -0.0447  0.3002
 5462TIP3    H137801   6.377   2.625  13.662 -0.8583 -1.3099  0.3105
 5462TIP3    H237802   6.236   2.573  13.682 -1.5557  0.2167 -0.4991
 5463TIP3   OH237803   5.102   6.742   5.039  0.0801 -0.2085 -0.1963
 5463TIP3    H137804   5.058   6.779   4.963 -0.5144  0.1520  0.3203
 5463TIP3    H237805   5.176   6.801   5.056  0.4763 -0.5362 -0.7579
 5464TIP3   OH237806   1.408   4.510   4.189 -0.1570  0.1047  0.4645
 5464TIP3    H137807   1.447   4.423   4.183 -0.4624 -0.3069  3.2821
 5464TIP3    H237808   1.332   4.499   4.246 -1.0667  1.9646 -0.3096
 5465TIP3   OH237809   5.014   5.233   2.577 -0.3246 -0.3209  0.9965
 5465TIP3    H137810   4.933   5.185   2.561 -0.3835  0.3796 -1.1934
 5465TIP3    H237811   5.002   5.315   2.529  2.3998 -0.9962 -1.0635
 5466TIP3   OH237812   1.408   3.005  15.407 -0.4580 -0.4418  0.8661
 5466TIP3    H137813   1.352   3.079  15.383 -0.2976 -0.6107 -0.0804
 5466TIP3    H237814   1.488   3.045  15.440 -0.0478 -0.1553 -0.3966
 5467TIP3   OH237815   5.255   1.887   1.051  0.0317  0.2083  0.4250
 5467TIP3    H137816   5.243   1.895   1.145  3.1874 -0.7452  1.0444
 5467TIP3    H237817   5.291   1.971   1.024  0.6728 -0.0611  0.4162
 5468TIP3   OH237818   4.664   4.584  14.798 -0.1190 -0.1589  0.3255
 5468TIP3    H137819   4.737   4.617  14.745 -0.7996 -0.0470 -0.5675
 5468TIP3    H237820   4.694   4.594  14.889  0.4634  1.1051  0.0184
 5469TIP3   OH237821   4.976   4.628  11.612  0.2788 -0.2430 -0.0684
 5469TIP3    H137822   5.046   4.563  11.624 -0.0369 -0.8782 -1.4587
 5469TIP3    H237823   4.940   4.608  11.526 -0.3664  1.2924 -0.1779
 5470TIP3   OH237824   6.553   6.142  15.605 -0.0934  0.2036  0.2039
 5470TIP3    H137825   6.487   6.212  15.608 -0.7274 -0.3782  2.4743
 5470TIP3    H237826   6.508   6.068  15.564 -0.0333  0.5694 -0.5209
 5471TIP3   OH237827   4.114   4.501  12.607  0.7509 -0.2778 -0.1552
 5471TIP3    H137828   4.125   4.439  12.680  1.6298  0.6455  0.5302
 5471TIP3    H237829   4.153   4.456  12.532  1.1701 -0.6598  0.2804
 5472TIP3   OH237830   3.679   5.493   0.702 -0.1828  0.2131 -0.1305
 5472TIP3    H137831   3.768   5.522   0.684  0.4705 -0.8497  1.1882
 5472TIP3    H237832   3.639   5.482   0.616  1.4677 -0.7940 -0.8256
 5473TIP3   OH237833   1.852   5.387   2.755  0.0737 -0.7089  0.3415
 5473TIP3    H137834   1.787   5.317   2.747 -1.0071  0.0481  1.8633
 5473TIP3    H237835   1.834   5.426   2.841  0.6204  1.4571 -0.4657
 5474TIP3   OH237836   0.107   1.401  14.824  0.4172 -0.4121 -0.2759
 5474TIP3    H137837   0.158   1.481  14.810 -0.4093  0.0303 -0.8490
 5474TIP3    H237838   0.039   1.404  14.756 -1.1935 -0.2991  1.2743
 5475TIP3   OH237839   3.191   5.597  16.381 -0.1942 -0.4971 -0.0989
 5475TIP3    H137840   3.145   5.524  16.423  0.6674 -2.0583 -1.7249
 5475TIP3    H237841   3.212   5.657  16.453 -0.5832 -2.0371  1.3684
 5476TIP3   OH237842   6.657   4.384   1.923  0.1713 -0.4659  0.0658
 5476TIP3    H137843   6.641   4.478   1.932 -0.6000 -0.4208 -1.4875
 5476TIP3    H237844   6.735   4.379   1.867 -0.8963 -0.7280 -1.4471
 5477TIP3   OH237845   1.499   0.932   0.545  0.3770  0.1571 -0.6091
 5477TIP3    H137846   1.533   0.869   0.609  0.4391 -0.0809 -0.8752
 5477TIP3    H237847   1.572   0.946   0.484  0.7187  1.2785  0.0319
 5478TIP3   OH237848   4.346   5.559  17.161  0.1367 -0.4543 -0.1436
 5478TIP3    H137849   4.396   5.511  17.095 -0.2806 -0.1452 -0.6934
 5478TIP3    H237850   4.347   5.502  17.238  3.5078  0.6233  0.7578
 5479TIP3   OH237851   3.672   4.191   3.565  0.4782  0.7159  0.4690
 5479TIP3    H137852   3.692   4.280   3.537 -0.4935  1.4781  2.0183
 5479TIP3    H237853   3.616   4.202   3.643 -1.0492 -1.2328 -0.2456
 5480TIP3   OH237854   4.349   2.179   1.675 -0.2268  0.0118 -0.1211
 5480TIP3    H137855   4.263   2.162   1.713  0.0750 -0.4373  0.3886
 5480TIP3    H237856   4.370   2.269   1.701 -0.9492  0.4638 -1.0669
 5481TIP3   OH237857   4.903   4.638   2.897  0.4003  0.5847 -0.0699
 5481TIP3    H137858   4.976   4.592   2.855 -0.5912 -0.6851 -0.4284
 5481TIP3    H237859   4.944   4.683   2.972  1.6076  0.2029 -0.4730
 5482TIP3   OH237860   3.404   4.579  12.563  0.3660  0.3495  0.5306
 5482TIP3    H137861   3.324   4.620  12.530 -1.0635 -1.4847  1.4924
 5482TIP3    H237862   3.473   4.642  12.543 -0.3348 -0.1050 -5.1752
 5483TIP3   OH237863   0.995   1.077   0.993  0.1120  0.3307  0.0594
 5483TIP3    H137864   0.956   1.076   1.081  0.2053  0.2324  0.1002
 5483TIP3    H237865   1.002   0.985   0.969  0.5601  0.3366  0.1600
 5484TIP3   OH237866   3.354   2.536   1.955 -0.0819  0.8250 -0.2231
 5484TIP3    H137867   3.414   2.555   1.884  0.9140  1.7630  0.8386
 5484TIP3    H237868   3.360   2.611   2.014  1.0720 -0.9964  2.1728
 5485TIP3   OH237869   4.781   6.209  16.219 -0.4697 -0.3315  0.2617
 5485TIP3    H137870   4.695   6.184  16.253 -0.7911 -0.1402 -0.4065
 5485TIP3    H237871   4.766   6.228  16.126  0.5723 -1.7484 -0.2270
 5486TIP3   OH237872   3.778   5.827  11.053  0.0271  0.1081 -0.8166
 5486TIP3    H137873   3.712   5.859  11.115  1.0843  2.0183 -0.6196
 5486TIP3    H237874   3.816   5.750  11.097 -0.5045  0.3326  0.0652
 5487TIP3   OH237875   0.703   5.001   0.073 -0.1996  0.3949  0.3679
 5487TIP3    H137876   0.791   4.996   0.109 -0.0413  0.0621 -0.0604
 5487TIP3    H237877   0.660   4.920   0.102  0.8316 -1.3539 -2.5208
 5488TIP3   OH237878   2.443   4.618   5.609 -0.2727 -0.1785  0.2507
 5488TIP3    H137879   2.441   4.705   5.648 -0.1844  1.3714 -2.9467
 5488TIP3    H237880   2.351   4.595   5.597 -0.2815  0.0944 -0.1975
 5489TIP3   OH237881   5.414   3.622  16.334  0.3219  0.0623  0.6740
 5489TIP3    H137882   5.506   3.607  16.352  0.2927 -1.3919 -0.1585
 5489TIP3    H237883   5.368   3.565  16.396 -0.0207  0.8247  1.1235
 5490TIP3   OH237884   5.691   5.998  16.323 -0.5609 -0.1153  0.0691
 5490TIP3    H137885   5.690   5.997  16.227 -1.1292 -2.3288  0.0402
 5490TIP3    H237886   5.639   6.074  16.346 -2.7836 -1.0594 -1.4468
 5491TIP3   OH237887   3.697   1.526   4.362  0.0381  0.5246  0.2319
 5491TIP3    H137888   3.650   1.562   4.437  1.1040  1.3263  0.5423
 5491TIP3    H237889   3.699   1.597   4.298  0.5936  0.4099  0.1182
 5492TIP3   OH237890   0.931   5.006   2.762 -0.0068 -0.4177  1.0473
 5492TIP3    H137891   0.998   4.955   2.808 -1.6521 -1.0066  2.8870
 5492TIP3    H237892   0.869   5.031   2.829 -1.5284  0.3458 -0.5630
 5493TIP3   OH237893   3.004   5.879  13.131 -0.5170 -0.2427  0.6057
 5493TIP3    H137894   3.075   5.863  13.192 -0.1734 -4.3358 -0.5760
 5493TIP3    H237895   2.924   5.869  13.184 -0.2816  1.3838  1.3216
 5494TIP3   OH237896   3.180   5.782   5.188  0.1063  0.5066  0.1379
 5494TIP3    H137897   3.126   5.806   5.113  0.1564  1.1263  0.2916
 5494TIP3    H237898   3.231   5.861   5.207  1.8347 -0.3711 -0.6552
 5495TIP3   OH237899   0.663   4.494  14.851  0.2605 -0.6731 -0.6615
 5495TIP3    H137900   0.578   4.535  14.868  1.5531  1.2961  1.7200
 5495TIP3    H237901   0.676   4.435  14.925  0.9636 -0.9504 -1.0012
 5496TIP3   OH237902   4.066   6.787   5.011  0.4256  0.1639 -0.4415
 5496TIP3    H137903   4.061   6.804   5.105 -1.1678 -2.5061  0.0415
 5496TIP3    H237904   4.135   6.721   5.002  0.3037  0.1223 -1.1259
 5497TIP3   OH237905   2.152   2.253   4.045 -0.2268  0.6826 -0.7400
 5497TIP3    H137906   2.063   2.221   4.027 -0.3209  0.8578 -0.5844
 5497TIP3    H237907   2.198   2.176   4.078 -0.1159  0.4078 -1.5056
 5498TIP3   OH237908   2.295   5.078  16.085 -0.4606 -0.0498  0.6499
 5498TIP3    H137909   2.339   4.993  16.081 -0.5357 -0.1675  1.9022
 5498TIP3    H237910   2.350   5.130  16.143 -0.8301  0.5029  0.5076
 5499TIP3   OH237911   0.432   3.936  12.573  0.0895 -0.1561  0.2003
 5499TIP3    H137912   0.526   3.953  12.576 -0.0152  0.3769  0.4486
 5499TIP3    H237913   0.403   3.978  12.492 -0.2066  1.0854  0.9234
 5500TIP3   OH237914   2.500   5.770  15.683 -0.3183 -0.5974 -1.2827
 5500TIP3    H137915   2.453   5.794  15.762  0.0439  1.2632 -1.5815
 5500TIP3    H237916   2.581   5.821  15.687  0.5897 -1.9192 -1.9413
 5501TIP3   OH237917   0.746   4.969  10.900  0.3231 -0.1897 -0.1333
 5501TIP3    H137918   0.735   4.874  10.887 -1.6880 -0.1972  1.0602
 5501TIP3    H237919   0.698   5.009  10.827  1.0861 -0.0867 -0.5805
 5502TIP3   OH237920   2.822   1.398  14.527 -0.5513 -0.7376 -0.0379
 5502TIP3    H137921   2.833   1.325  14.589 -0.3727 -1.2479 -0.6577
 5502TIP3    H237922   2.817   1.476  14.582 -0.1919 -1.1643  0.6091
 5503TIP3   OH237923   5.250   3.774   6.206  1.2871 -0.1198  0.1218
 5503TIP3    H137924   5.253   3.680   6.185  2.1680 -0.1051  0.1425
 5503TIP3    H237925   5.317   3.786   6.273  0.6577  0.4005  0.6753
 5504TIP3   OH237926   1.872   4.658   0.968 -0.3011 -0.1275  0.0111
 5504TIP3    H137927   1.794   4.671   0.915 -1.3432  1.4531  1.8124
 5504TIP3    H237928   1.844   4.600   1.039 -0.3508  1.7262  1.5795
 5505TIP3   OH237929   4.817   0.629  14.518  0.0147 -0.1610  0.2193
 5505TIP3    H137930   4.734   0.662  14.550  1.3875  3.0591  0.8191
 5505TIP3    H237931   4.798   0.597  14.430 -2.4028 -2.5816  1.4884
 5506TIP3   OH237932   1.166   5.476   1.678  0.6456  0.1784  0.1962
 5506TIP3    H137933   1.226   5.403   1.692  0.8970  0.1872 -0.7273
 5506TIP3    H237934   1.145   5.472   1.585 -0.0692  0.7286  0.3241
 5507TIP3   OH237935   5.419   4.623   2.729 -0.0140 -0.1530 -0.5949
 5507TIP3    H137936   5.404   4.652   2.639  0.1405 -0.8933 -0.8641
 5507TIP3    H237937   5.505   4.580   2.726  1.4391  2.4288  0.5272
 5508TIP3   OH237938   1.540   1.267  12.397 -0.5665 -0.3277 -0.7697
 5508TIP3    H137939   1.468   1.214  12.363 -0.6658  0.6759 -2.2575
 5508TIP3    H237940   1.619   1.226  12.362 -0.5894  0.0023 -1.2173
 5509TIP3   OH237941   0.634   2.019   4.283 -0.1410 -0.2247 -0.3441
 5509TIP3    H137942   0.620   1.929   4.255 -2.0219 -0.5761  1.5095
 5509TIP3    H237943   0.632   2.016   4.378  0.1586  1.7256 -0.2278
 5510TIP3   OH237944   3.076   5.353  13.547  0.2192 -0.0748  0.4050
 5510TIP3    H137945   3.010   5.337  13.615 -1.2953  1.3330 -0.6565
 5510TIP3    H237946   3.153   5.381  13.596 -0.8456  0.9542  1.5919
 5511TIP3   OH237947   2.878   1.350  16.594 -0.1245  0.2561 -0.1427
 5511TIP3    H137948   2.815   1.415  16.626 -0.0294  0.3655 -0.1731
 5511TIP3    H237949   2.829   1.297  16.531 -0.2101  0.2813 -0.0967
 5512TIP3   OH237950   3.561   5.283   2.007 -0.4968 -0.4718 -0.2299
 5512TIP3    H137951   3.484   5.339   2.020  0.3114  0.2606  1.6928
 5512TIP3    H237952   3.532   5.197   2.037 -1.2217 -0.7523 -1.6297
 5513TIP3   OH237953   0.536   6.389  11.972  0.5287 -0.7573  0.4860
 5513TIP3    H137954   0.614   6.339  11.996  0.0662 -0.3879  3.0717
 5513TIP3    H237955   0.468   6.323  11.961  0.2888 -0.8763  2.3432
 5514TIP3   OH237956   1.460   1.810   3.358 -0.2373  0.6291 -0.2391
 5514TIP3    H137957   1.399   1.737   3.370 -0.0610  0.5704  0.3248
 5514TIP3    H237958   1.535   1.771   3.314 -0.8886  0.8467 -1.5995
 5515TIP3   OH237959   4.490   1.945   1.804  0.1300  0.1743 -0.4390
 5515TIP3    H137960   4.445   2.019   1.763 -0.5516  0.1688  0.2724
 5515TIP3    H237961   4.571   1.982   1.838 -1.0594  1.0664  1.5923
 5516TIP3   OH237962   0.643   3.629  13.978  0.0246 -0.5108 -0.8931
 5516TIP3    H137963   0.566   3.618  13.921  0.5932 -0.0476 -1.7849
 5516TIP3    H237964   0.657   3.543  14.017 -0.0035 -1.0160 -1.9603
 5517TIP3   OH237965   5.998   0.721  11.195  0.1958  0.0267  0.1487
 5517TIP3    H137966   5.929   0.686  11.139  0.4406  1.7777 -1.3481
 5517TIP3    H237967   6.054   0.771  11.136  2.8298 -1.3861  1.3048
 5518TIP3   OH237968   5.059   4.216   2.804  0.0391  0.3218 -0.1680
 5518TIP3    H137969   5.001   4.153   2.763 -0.1622  1.0719 -1.0731
 5518TIP3    H237970   5.119   4.244   2.734  1.5979 -0.5269  0.7558
 5519TIP3   OH237971   3.791   4.779  16.769 -0.3438  0.2575  0.0673
 5519TIP3    H137972   3.885   4.790  16.751 -0.4216  1.2177  0.1987
 5519TIP3    H237973   3.760   4.723  16.698  0.0504  1.1414 -0.8286
 5520TIP3   OH237974   5.916   1.302  13.391  0.5324  0.1142  0.3170
 5520TIP3    H137975   5.964   1.325  13.470 -0.3608  1.3252  0.5253
 5520TIP3    H237976   5.931   1.375  13.331 -1.1410  0.5871  0.4381
 5521TIP3   OH237977   0.825   4.870  15.090 -0.0876 -0.0167  0.0135
 5521TIP3    H137978   0.844   4.945  15.034  0.7652  0.3514  0.7580
 5521TIP3    H237979   0.872   4.797  15.050 -0.9882 -0.1933 -0.7604
 5522TIP3   OH237980   6.471   1.148   5.362 -0.2782 -0.1253  0.2278
 5522TIP3    H137981   6.479   1.170   5.269  0.6165  0.0686  0.3452
 5522TIP3    H237982   6.558   1.163   5.398 -0.3881 -1.0666  0.9200
 5523TIP3   OH237983   0.303   0.087   5.467  0.1378 -0.0451  0.3339
 5523TIP3    H137984   0.218   0.064   5.428  0.4335  0.8458 -0.8726
 5523TIP3    H237985   0.301   0.182   5.476  0.7354 -0.0865  0.9566
 5524TIP3   OH237986   3.513   1.632  16.509 -0.4295 -0.3975  0.2520
 5524TIP3    H137987   3.518   1.544  16.547 -0.4050 -0.2808  0.5215
 5524TIP3    H237988   3.479   1.618  16.421 -1.8153 -0.5501  0.7799
 5525TIP3   OH237989   2.392   2.018  12.420  0.1865  0.0405 -0.2571
 5525TIP3    H137990   2.466   2.049  12.472 -0.0347 -0.2129  0.2163
 5525TIP3    H237991   2.399   2.065  12.337  1.0343 -0.1857 -0.3183
 5526TIP3   OH237992   3.946   6.018  11.261 -0.6306  0.1079  0.0702
 5526TIP3    H137993   3.902   5.935  11.279  0.9166 -0.6032  0.6525
 5526TIP3    H237994   4.003   6.000  11.186  0.5945  0.3067  0.9303
 5527TIP3   OH237995   0.077   2.464   3.033 -0.5400  0.1359 -0.7971
 5527TIP3    H137996   0.024   2.514   2.971 -1.2451 -0.5155 -0.7304
 5527TIP3    H237997   0.125   2.402   2.979 -0.4122  0.2282 -0.7886
 5528TIP3   OH237998   3.273   4.216  16.830 -0.0881  0.1474 -0.1663
 5528TIP3    H137999   3.250   4.124  16.818  0.1122  0.1013 -0.1964
 5528TIP3    H238000   3.221   4.244  16.905  1.0546 -0.4259  0.8782
 5529TIP3   OH238001   2.105   1.833  12.959 -0.1672 -0.1280  0.3228
 5529TIP3    H138002   2.044   1.907  12.959 -0.1018 -0.0740  0.8334
 5529TIP3    H238003   2.067   1.771  12.897  0.0342  0.5449 -0.5012
 5530TIP3   OH238004   2.574   3.909  16.425  0.0472  0.1525  0.3492
 5530TIP3    H138005   2.481   3.927  16.415 -0.0223  0.1115  0.8846
 5530TIP3    H238006   2.616   3.995  16.423  0.0476  0.1393 -0.3577
 5531TIP3   OH238007   1.169   4.850  16.533 -0.3004  0.5257 -0.2368
 5531TIP3    H138008   1.160   4.754  16.530 -1.5999  0.6361 -0.4520
 5531TIP3    H238009   1.186   4.869  16.625  1.0552  0.0304 -0.3489
 5532TIP3   OH238010   6.167   3.456  14.970 -0.1711  0.6294  0.1810
 5532TIP3    H138011   6.092   3.455  15.029 -0.0300 -0.4201  0.3582
 5532TIP3    H238012   6.130   3.476  14.884 -0.6783 -0.0220  0.2454
 5533TIP3   OH238013   2.168   2.190  16.555 -0.0508  0.0868 -0.5535
 5533TIP3    H138014   2.081   2.175  16.519 -0.8068  4.6747 -1.3353
 5533TIP3    H238015   2.220   2.221  16.480  1.5505 -0.2350  0.3702
 5534TIP3   OH238016   6.041   5.789   5.120  0.4537  0.6956  0.7965
 5534TIP3    H138017   6.086   5.707   5.143 -1.0727 -0.5249 -0.2908
 5534TIP3    H238018   6.077   5.854   5.179  1.4272 -0.8701  2.0059
 5535TIP3   OH238019   2.956   4.501   5.477  0.0292  0.1004  0.3214
 5535TIP3    H138020   3.051   4.512   5.477  0.2384 -1.3096  1.3896
 5535TIP3    H238021   2.927   4.548   5.555 -0.2753  1.2437 -0.4626
 5536TIP3   OH238022   2.252   1.515   5.719  0.1875 -0.3973 -0.1904
 5536TIP3    H138023   2.266   1.426   5.752 -1.0049  0.0200  1.5901
 5536TIP3    H238024   2.216   1.503   5.631  1.8846 -1.6037 -0.7783
 5537TIP3   OH238025   4.554   4.716   6.035  0.7929  0.6169 -0.3205
 5537TIP3    H138026   4.625   4.653   6.024 -0.6734 -0.9632 -1.3089
 5537TIP3    H238027   4.587   4.779   6.099  3.5335  0.6741 -1.6583
 5538TIP3   OH238028   5.918   4.506  14.441  0.4533  0.0276  0.1128
 5538TIP3    H138029   5.953   4.418  14.426 -1.3799 -0.5364 -1.2441
 5538TIP3    H238030   5.823   4.496  14.431  0.2175  2.1958 -0.2837
 5539TIP3   OH238031   0.776   4.470   0.743  0.3372 -0.7529  0.5768
 5539TIP3    H138032   0.683   4.474   0.724  0.8636  1.3467 -2.2484
 5539TIP3    H238033   0.818   4.458   0.658  2.6565 -3.9511  1.9690
 5540TIP3   OH238034   4.304   0.832  10.822 -0.3797  0.3740 -0.0779
 5540TIP3    H138035   4.259   0.884  10.756 -0.7403 -0.1862 -0.2727
 5540TIP3    H238036   4.366   0.779  10.772  0.3150  0.9437  0.1621
 5541TIP3   OH238037   3.968   3.763  13.338 -0.2738 -0.1638  0.1370
 5541TIP3    H138038   4.046   3.807  13.373 -1.0330  1.4088 -0.0349
 5541TIP3    H238039   4.002   3.695  13.280  0.9919 -1.7521  2.5821
 5542TIP3   OH238040   1.546   2.646  14.841 -0.0704  0.1434  0.4023
 5542TIP3    H138041   1.491   2.682  14.911 -0.3624 -1.4256  1.0077
 5542TIP3    H238042   1.633   2.681  14.859 -0.7562  2.5255 -0.4715
 5543TIP3   OH238043   2.309   6.058   1.031  0.2070 -0.0670 -0.1085
 5543TIP3    H138044   2.386   6.029   0.981  0.3161  3.0286 -1.9723
 5543TIP3    H238045   2.235   6.021   0.983  0.3913  1.5152 -1.7234
 5544TIP3   OH238046   5.239   4.825   5.998 -0.1041  0.1021 -0.2663
 5544TIP3    H138047   5.314   4.823   5.938 -0.7755 -0.3047 -1.1211
 5544TIP3    H238048   5.271   4.782   6.078  0.0652 -1.7511 -1.2626
 5545TIP3   OH238049   4.459   5.033   2.419  0.1048 -0.2935  0.0834
 5545TIP3    H138050   4.477   5.017   2.512  0.1831 -1.7090 -0.1527
 5545TIP3    H238051   4.395   4.967   2.395  2.5607 -2.2276 -1.6617
 5546TIP3   OH238052   3.300   2.263  17.023  0.1298  0.0050 -0.0604
 5546TIP3    H138053   3.299   2.358  17.021 -0.4895  0.0691  1.6544
 5546TIP3    H238054   3.258   2.240  17.106  1.4544 -1.7323  0.1983
 5547TIP3   OH238055   0.182   0.553  11.635 -0.3616 -0.2069  0.2087
 5547TIP3    H138056   0.167   0.581  11.725 -0.0584  0.3446  0.0990
 5547TIP3    H238057   0.229   0.627  11.595 -1.7784  0.1993 -0.8110
 5548TIP3   OH238058   0.321   3.623   0.033 -0.3300  0.4231 -0.1304
 5548TIP3    H138059   0.279   3.576   0.104  2.6024 -0.6699  1.0295
 5548TIP3    H238060   0.381   3.560  -0.005  1.1831  2.2030 -0.8468
 5549TIP3   OH238061   1.020   1.529  14.273  0.1871  0.0311  0.6554
 5549TIP3    H138062   1.017   1.499  14.364 -2.5466  1.0684  0.9998
 5549TIP3    H238063   0.964   1.468  14.225  1.1500 -0.1658 -0.2599
 5550TIP3   OH238064   2.879   5.852   3.022 -0.4309 -0.0956 -0.1715
 5550TIP3    H138065   2.793   5.860   2.981  0.4461 -0.2708 -2.1660
 5550TIP3    H238066   2.917   5.773   2.982 -0.1779 -1.3466  2.3457
 5551TIP3   OH238067   1.877   0.307  13.036  0.1686  0.1755  0.3050
 5551TIP3    H138068   1.842   0.219  13.051 -0.5217  0.5746  1.1514
 5551TIP3    H238069   1.907   0.306  12.945 -2.2159 -0.1546 -0.5506
 5552TIP3   OH238070   2.323   0.695  17.014 -0.1339 -0.4566  0.7872
 5552TIP3    H138071   2.273   0.650  16.946  1.0870 -0.8155  0.0893
 5552TIP3    H238072   2.357   0.773  16.970 -1.7358  0.8825  1.8185
 5553TIP3   OH238073   3.878   4.719  15.390  0.6963 -0.2765  0.1908
 5553TIP3    H138074   3.862   4.652  15.457 -0.5143 -0.3080 -0.0994
 5553TIP3    H238075   3.856   4.801  15.434 -0.8105 -0.3544 -0.3340
 5554TIP3   OH238076   4.359   1.860  10.912  0.0284 -0.2523  0.6524
 5554TIP3    H138077   4.330   1.770  10.924 -1.9499  0.3732  0.9855
 5554TIP3    H238078   4.278   1.912  10.914  1.0408  1.4682 -0.1945
 5555TIP3   OH238079   5.624   4.623  12.763  0.2277 -0.2259  0.3300
 5555TIP3    H138080   5.613   4.682  12.838 -1.1759 -0.2867  0.1984
 5555TIP3    H238081   5.576   4.544  12.788 -1.9062  0.4437 -1.3478
 5556TIP3   OH238082   4.526   4.839   4.898 -0.1688  0.3442 -1.0123
 5556TIP3    H138083   4.462   4.909   4.914  0.5452  0.5119  1.3673
 5556TIP3    H238084   4.472   4.763   4.874 -1.0972  1.0537 -1.2544
 5557TIP3   OH238085   4.123   2.605  13.497 -0.4432  0.2067 -0.6712
 5557TIP3    H138086   4.096   2.689  13.459  0.4263  0.2930 -1.1158
 5557TIP3    H238087   4.116   2.618  13.592  0.7286  1.1458 -0.6951
 5558TIP3   OH238088   0.465   4.411   3.352 -0.2051 -0.0054  0.0438
 5558TIP3    H138089   0.507   4.363   3.423 -3.0133 -1.4629  0.8681
 5558TIP3    H238090   0.420   4.344   3.301 -2.1414  1.4680 -0.3049
 5559TIP3   OH238091   5.931   4.330   3.533 -0.0529 -0.5200 -0.5176
 5559TIP3    H138092   5.897   4.380   3.459  0.5425 -0.3891 -0.7038
 5559TIP3    H238093   5.994   4.270   3.494  1.9098  1.0475  0.1200
 5560TIP3   OH238094   1.736   1.559   6.413 -0.0097 -0.0029 -0.4216
 5560TIP3    H138095   1.678   1.620   6.457  1.1432 -0.8833  2.5918
 5560TIP3    H238096   1.681   1.484   6.392 -0.5830  0.3928 -0.3468
 5561TIP3   OH238097   5.679   5.891   3.695 -0.1101 -0.0866  0.1109
 5561TIP3    H138098   5.644   5.926   3.613  2.0104  2.1547  0.0312
 5561TIP3    H238099   5.609   5.836   3.730 -1.8226  0.4578 -2.2284
 5562TIP3   OH238100   0.041   3.250  13.798 -0.5364 -0.2975 -0.7321
 5562TIP3    H138101   0.030   3.161  13.832 -0.1609 -0.1965 -0.3365
 5562TIP3    H238102   0.112   3.243  13.734  1.5851  0.2299  1.4177
 5563TIP3   OH238103   3.057   4.440  10.976 -0.3919  0.2524 -0.2470
 5563TIP3    H138104   3.029   4.379  11.044 -1.0432  0.9566  0.1262
 5563TIP3    H238105   3.029   4.398  10.894  2.0022 -1.4800 -0.2828
 5564TIP3   OH238106   5.349   2.787   1.333 -0.4200  0.2656 -0.2269
 5564TIP3    H138107   5.292   2.726   1.285 -2.9801  1.1732  1.3864
 5564TIP3    H238108   5.364   2.743   1.417 -0.5632  0.9567  0.1690
 5565TIP3   OH238109   2.174   1.077  11.114 -0.0094 -0.5574  0.1020
 5565TIP3    H138110   2.085   1.099  11.142 -0.0248 -0.3860 -0.0840
 5565TIP3    H238111   2.166   1.051  11.023  0.4138  1.4504 -0.5627
 5566TIP3   OH238112   6.218   0.754   4.711  0.3250 -0.1478 -0.2389
 5566TIP3    H138113   6.157   0.681   4.705 -2.1343  1.7755 -0.1049
 5566TIP3    H238114   6.241   0.759   4.803 -1.4667  0.6919  0.2015
 5567TIP3   OH238115   5.787   6.515   5.337 -0.2908  0.4966 -0.1911
 5567TIP3    H138116   5.817   6.537   5.425 -0.2654 -0.0891 -0.0493
 5567TIP3    H238117   5.863   6.475   5.295 -0.9409 -1.3513  0.2970
 5568TIP3   OH238118   6.506   2.731  12.842  0.2444 -0.0560 -0.1103
 5568TIP3    H138119   6.584   2.684  12.813  0.8494  0.5771  0.4445
 5568TIP3    H238120   6.433   2.683  12.804  0.8969 -0.7837 -0.4647
 5569TIP3   OH238121   3.756   4.457  12.552 -0.6203  0.3964  0.1332
 5569TIP3    H138122   3.801   4.373  12.539 -1.8012 -0.0323 -1.6396
 5569TIP3    H238123   3.813   4.522  12.512 -0.9766  0.0239 -1.0174
 5570TIP3   OH238124   1.210   3.288  15.057  0.0094  0.1332  0.9210
 5570TIP3    H138125   1.226   3.353  14.989 -1.0857 -0.8026 -0.3049
 5570TIP3    H238126   1.197   3.206  15.009 -0.1593 -0.6952  2.3125
 5571TIP3   OH238127   0.681   4.258  13.279 -0.1659  0.6226  0.4110
 5571TIP3    H138128   0.701   4.256  13.185  0.3485  0.3180  0.5234
 5571TIP3    H238129   0.729   4.184  13.315  0.0317  1.0297  0.9895
 5572TIP3   OH238130   4.585   0.026   4.752  0.3973 -0.2234 -0.6612
 5572TIP3    H138131   4.504   0.067   4.720  1.5543  3.2341  0.4204
 5572TIP3    H238132   4.587   0.046   4.845  0.5778 -3.9388  0.2912
 5573TIP3   OH238133   5.004   3.898  13.635 -0.8237  0.1127 -0.8981
 5573TIP3    H138134   5.061   3.951  13.692  0.2888 -1.7229 -0.2194
 5573TIP3    H238135   5.042   3.810  13.638 -1.5218 -0.3384 -3.4795
 5574TIP3   OH238136   6.552   2.981  11.157  0.0212 -0.2564  0.1532
 5574TIP3    H138137   6.601   3.061  11.174  0.2353 -0.4714  0.5822
 5574TIP3    H238138   6.507   2.963  11.240  0.7474 -1.0983  0.3860
 5575TIP3   OH238139   3.138   3.545   1.834  0.6092 -0.2546 -0.6266
 5575TIP3    H138140   3.192   3.509   1.904  0.9258 -0.0405 -0.7574
 5575TIP3    H238141   3.166   3.497   1.756  0.2251 -0.5261 -0.6030
 5576TIP3   OH238142   6.051   2.395  15.054  0.5098 -0.5530  0.1116
 5576TIP3    H138143   6.001   2.315  15.036  0.0246 -0.1293 -0.4710
 5576TIP3    H238144   6.142   2.369  15.050  0.4589 -0.5994 -2.6201
 5577TIP3   OH238145   6.138   4.780  14.398  0.2798 -0.0156  0.0498
 5577TIP3    H138146   6.074   4.851  14.386 -1.0697 -1.4611 -2.0576
 5577TIP3    H238147   6.125   4.752  14.489 -0.2072  1.4368  0.4604
 5578TIP3   OH238148   0.133   6.681  11.695 -0.3015  0.1180  0.0870
 5578TIP3    H138149   0.111   6.648  11.607 -0.6177 -0.3600  0.3389
 5578TIP3    H238150   0.208   6.739  11.680 -0.3589  0.0547 -0.5028
 5579TIP3   OH238151   5.631   0.823  14.150 -0.3859  0.0345 -0.2993
 5579TIP3    H138152   5.670   0.910  14.154  0.4727 -0.2905 -1.0670
 5579TIP3    H238153   5.679   0.779  14.079  0.1757 -1.5316  0.9760
 5580TIP3   OH238154   6.242   6.003   0.982 -0.4050  0.4850 -0.8486
 5580TIP3    H138155   6.313   6.033   1.039 -0.1305  0.9531 -1.4242
 5580TIP3    H238156   6.216   6.081   0.932 -1.5015  0.3825 -0.4733
 5581TIP3   OH238157   1.296   6.435  10.642  0.0116 -0.0130 -0.2926
 5581TIP3    H138158   1.374   6.426  10.587 -0.5765 -0.5691 -1.0553
 5581TIP3    H238159   1.330   6.465  10.726  0.9420  0.7801 -0.9245
 5582TIP3   OH238160   4.614   5.051   1.731  0.6425  0.3780  0.4682
 5582TIP3    H138161   4.675   5.059   1.657  1.0623  0.0757  0.7770
 5582TIP3    H238162   4.531   5.026   1.691  1.3081 -1.6144  0.2475
 5583TIP3   OH238163   3.990   2.421  16.682  0.0905  0.0726  0.2034
 5583TIP3    H138164   3.981   2.382  16.596  0.7583  0.9359 -0.2794
 5583TIP3    H238165   4.004   2.347  16.741  1.1017 -0.4392 -0.6479
 5584TIP3   OH238166   4.193   4.293  15.075  0.2592 -0.2011 -0.1603
 5584TIP3    H138167   4.192   4.302  14.980  0.4132  1.0393 -0.0641
 5584TIP3    H238168   4.262   4.229  15.093 -1.0945 -1.9601 -0.9590
 5585TIP3   OH238169   3.794   2.910   0.298  0.5777  0.5265 -0.0851
 5585TIP3    H138170   3.884   2.890   0.272  0.7049 -1.1067  1.4259
 5585TIP3    H238171   3.741   2.847   0.251 -0.0354  2.4884 -2.2232
 5586TIP3   OH238172   6.291   1.270  13.462 -0.1575 -0.3562  0.4470
 5586TIP3    H138173   6.332   1.203  13.409  0.3382  0.0270  0.3367
 5586TIP3    H238174   6.197   1.259  13.448 -0.0814  2.0584 -3.4950
 5587TIP3   OH238175   6.164   1.313   3.916 -0.5243  0.3880  0.3930
 5587TIP3    H138176   6.201   1.401   3.909 -1.2067  0.6689  0.2445
 5587TIP3    H238177   6.168   1.278   3.827  1.2261 -0.3617  0.7230
 5588TIP3   OH238178   2.699   2.189  12.291  0.3002 -0.1572  0.0828
 5588TIP3    H138179   2.697   2.283  12.309  1.4439  0.3048 -1.9412
 5588TIP3    H238180   2.670   2.148  12.373  0.6936  1.9073  1.3122
 5589TIP3   OH238181   4.628   5.295  16.768 -0.1972  0.6551  0.4698
 5589TIP3    H138182   4.717   5.312  16.799 -0.6642  0.5635  1.9677
 5589TIP3    H238183   4.639   5.249  16.685  1.1324  1.5233  0.1399
 5590TIP3   OH238184   2.938   4.705   5.000 -0.5368  0.1859  0.2451
 5590TIP3    H138185   3.000   4.776   5.019 -1.1275  0.4000  1.4241
 5590TIP3    H238186   2.854   4.749   4.989 -0.2973  0.1052 -3.0204
 5591TIP3   OH238187   0.694   4.742   3.045  0.0177  0.0208 -0.3194
 5591TIP3    H138188   0.782   4.728   3.010  0.5292  0.8337  0.6243
 5591TIP3    H238189   0.702   4.724   3.139 -0.5153  1.3976  0.0055
 5592TIP3   OH238190   5.291   2.893   4.379  0.6458  0.8029  0.6444
 5592TIP3    H138191   5.371   2.842   4.385 -0.2479 -0.7024  0.2758
 5592TIP3    H238192   5.312   2.964   4.318  1.2115 -0.5470 -0.7804
 5593TIP3   OH238193   1.097   3.648   4.060 -0.1387 -0.4206  0.5851
 5593TIP3    H138194   1.091   3.554   4.079 -1.3742 -0.3000  0.8356
 5593TIP3    H238195   1.111   3.689   4.146 -1.3273 -0.2443  0.7097
 5594TIP3   OH238196   0.051   4.621  17.056  0.4816  0.0428 -0.0004
 5594TIP3    H138197   0.010   4.683  17.115  0.3891  0.2302 -0.2574
 5594TIP3    H238198  -0.023   4.580  17.010  0.5750  0.3262 -0.4098
 5595TIP3   OH238199   6.674   4.243  17.193 -0.4996  0.0521  0.8516
 5595TIP3    H138200   6.633   4.157  17.178 -1.4928  0.1692  2.6024
 5595TIP3    H238201   6.757   4.238  17.146 -2.6135 -0.0110 -3.3834
 5596TIP3   OH238202   2.891   2.803  17.041 -0.5160  0.2889  0.2192
 5596TIP3    H138203   2.866   2.759  16.960  0.0289 -0.4516  0.4398
 5596TIP3    H238204   2.951   2.872  17.013  0.6328 -0.7373  0.0866
 5597TIP3   OH238205   0.848   3.809   2.495 -0.4225  0.1862  0.2229
 5597TIP3    H138206   0.771   3.841   2.448 -0.1144  0.4351 -0.1138
 5597TIP3    H238207   0.822   3.810   2.587 -1.5501 -1.6568 -0.0045
 5598TIP3   OH238208   3.846   5.845   5.275  0.4376 -0.2198 -0.2522
 5598TIP3    H138209   3.927   5.884   5.309  0.8321 -0.0119 -1.3754
 5598TIP3    H238210   3.791   5.920   5.253  0.1253 -0.3540  0.0616
 5599TIP3   OH238211   3.550   4.197  12.542  0.2943  0.1028 -0.6094
 5599TIP3    H138212   3.481   4.225  12.482  1.7758  2.4063 -1.3575
 5599TIP3    H238213   3.601   4.133  12.491  0.3377  0.4971 -1.0701
 5600TIP3   OH238214   2.461   1.513   3.289 -0.1948  0.1914  0.1963
 5600TIP3    H138215   2.485   1.474   3.205  1.8470 -0.5281  1.0658
 5600TIP3    H238216   2.380   1.562   3.270 -0.5128 -1.0128 -1.8632
 5601TIP3   OH238217   0.698   2.281   0.096 -0.6547 -0.1234  0.3825
 5601TIP3    H138218   0.665   2.342   0.162 -2.1812 -0.1838 -0.3002
 5601TIP3    H238219   0.641   2.294   0.020 -0.0869 -1.3688 -0.2829
 5602TIP3   OH238220   6.744   2.146   0.296  0.8386  0.1405  0.2082
 5602TIP3    H138221   6.730   2.116   0.386  0.5620 -1.4138 -0.3182
 5602TIP3    H238222   6.693   2.227   0.289 -1.6402 -1.2847  0.5962
 5603TIP3   OH238223   5.058   6.361  15.634  0.1528  0.8428  0.7611
 5603TIP3    H138224   5.094   6.445  15.604  0.1419  0.8148  0.6682
 5603TIP3    H238225   4.964   6.368  15.614  0.1959  0.6998  0.4981
 5604TIP3   OH238226   6.121   3.052  12.767  0.0788  0.7333 -0.0056
 5604TIP3    H138227   6.055   3.001  12.719  0.8253  1.3781 -1.8347
 5604TIP3    H238228   6.080   3.138  12.779 -0.3548  0.3789  1.1336
 5605TIP3   OH238229   0.951   5.842  11.317  0.2261 -0.5152 -0.7652
 5605TIP3    H138230   0.958   5.755  11.357  0.3135 -0.7398 -1.2687
 5605TIP3    H238231   0.879   5.833  11.254  0.3768 -0.2783 -0.9687
 5606TIP3   OH238232   1.397   4.256   0.868 -0.5330  0.8597 -0.3305
 5606TIP3    H138233   1.481   4.259   0.914 -0.4391  2.6625 -0.5529
 5606TIP3    H238234   1.412   4.305   0.787 -2.0595  2.0974  0.0929
 5607TIP3   OH238235   3.468   1.970  11.688  0.1014 -0.3775  0.5197
 5607TIP3    H138236   3.533   2.019  11.738 -1.1250  0.5091  1.3006
 5607TIP3    H238237   3.520   1.921  11.624  1.4300  1.6029 -0.0293
 5608TIP3   OH238238   0.061   3.615   2.806  0.3888 -0.4388  0.1887
 5608TIP3    H138239   0.120   3.539   2.811 -0.5281 -1.1610  0.2199
 5608TIP3    H238240   0.011   3.611   2.887  1.3675  1.0914  0.9179
 5609TIP3   OH238241   0.418   2.195   4.225 -0.1943 -0.1849  0.3100
 5609TIP3    H138242   0.480   2.128   4.256  1.4601  0.7762 -0.7543
 5609TIP3    H238243   0.332   2.154   4.235  0.7681 -2.7599 -0.8563
 5610TIP3   OH238244   3.336   1.211  14.684 -0.5146 -0.3388  0.1737
 5610TIP3    H138245   3.387   1.289  14.705  0.3393 -0.9347  0.3560
 5610TIP3    H238246   3.383   1.170  14.611  0.2597 -1.7899  1.4220
 5611TIP3   OH238247   3.784   4.532  15.579  0.2191  0.1566  0.6846
 5611TIP3    H138248   3.757   4.442  15.596  0.7281 -0.1152  0.1152
 5611TIP3    H238249   3.859   4.546  15.636  1.4674 -0.5101 -0.7008
 5612TIP3   OH238250   6.001   1.650  14.998  0.4157 -0.4186 -0.4152
 5612TIP3    H138251   5.942   1.583  14.964 -1.1623  0.8991 -0.4421
 5612TIP3    H238252   6.074   1.651  14.936 -0.6897 -0.4940 -1.7865
 5613TIP3   OH238253   1.444   1.250  10.429 -0.1288  0.2650 -0.4177
 5613TIP3    H138254   1.458   1.165  10.469  2.4021  0.7112 -0.2106
 5613TIP3    H238255   1.430   1.310  10.502 -0.8077  0.2162 -0.5041
 5614TIP3   OH238256   4.341   1.401   4.946  0.3272  0.1911  0.4790
 5614TIP3    H138257   4.291   1.437   4.872 -0.4232  1.6720  1.6584
 5614TIP3    H238258   4.432   1.419   4.924  0.0086  2.5257  0.7984
 5615TIP3   OH238259   3.057   1.264  16.105  0.7933  0.6052 -0.4554
 5615TIP3    H138260   2.991   1.315  16.151 -1.7438 -2.5316 -0.3489
 5615TIP3    H238261   3.033   1.271  16.013  2.7591  2.5659 -0.9265
 5616TIP3   OH238262   5.509   2.134  16.276  0.0266  0.8726  0.3918
 5616TIP3    H138263   5.546   2.150  16.362  0.6237 -3.6689  1.2563
 5616TIP3    H238264   5.578   2.162  16.215  0.9489  1.1985  1.5501
 5617TIP3   OH238265   6.111   2.758  17.090  0.0335  0.7358  0.5368
 5617TIP3    H138266   6.105   2.718  17.176  0.8436  0.2905  0.4051
 5617TIP3    H238267   6.188   2.815  17.095  0.5222  0.1613 -0.0861
 5618TIP3   OH238268   5.466   1.477   5.528 -0.0176 -0.1086  0.3334
 5618TIP3    H138269   5.506   1.519   5.453  1.0946  0.0947  1.0106
 5618TIP3    H238270   5.540   1.443   5.579 -0.7608 -0.5789  1.1385
 5619TIP3   OH238271   1.020   0.658  12.345 -0.2025  0.0244  0.3720
 5619TIP3    H138272   0.950   0.700  12.395 -0.5242 -0.1427  0.0659
 5619TIP3    H238273   0.991   0.664  12.254 -0.3659 -1.0801  0.3444
 5620TIP3   OH238274   5.534   1.326  15.962  0.0133  0.3984 -0.1955
 5620TIP3    H138275   5.550   1.355  16.052 -1.0028 -1.2763  0.5759
 5620TIP3    H238276   5.620   1.325  15.922  0.6390  0.1385  1.0945
 5621TIP3   OH238277   5.839   4.495  16.525 -0.2336 -0.4598 -0.4776
 5621TIP3    H138278   5.875   4.579  16.499  0.9180 -1.2526 -1.5862
 5621TIP3    H238279   5.827   4.502  16.620  2.3088  0.0996 -0.1141
 5622TIP3   OH238280   4.666   3.976  13.051  0.0108 -0.0500 -0.2774
 5622TIP3    H138281   4.597   4.010  12.994  1.5016  0.9376 -1.5663
 5622TIP3    H238282   4.697   3.897  13.005 -0.5865 -0.8095  0.5769
 5623TIP3   OH238283   2.616   1.954  15.115  0.1171  0.1116 -0.1622
 5623TIP3    H138284   2.629   1.904  15.034  3.0676 -2.5117  1.6816
 5623TIP3    H238285   2.694   2.010  15.120 -0.8045  1.3994  0.1773
 5624TIP3   OH238286   1.818   4.464  16.138 -0.0223  0.1066  0.2075
 5624TIP3    H138287   1.805   4.371  16.155  0.8655 -0.1995 -0.6827
 5624TIP3    H238288   1.900   4.485  16.183 -0.8840  0.7869  1.5113
 5625TIP3   OH238289   0.865   0.170   4.498 -0.5758  0.0085  0.2164
 5625TIP3    H138290   0.945   0.203   4.539  0.6132  0.2337 -2.1082
 5625TIP3    H238291   0.825   0.116   4.565  1.2889  0.2443  1.6258
 5626TIP3   OH238292   0.013   2.790   5.308 -0.4343  0.5402 -0.2737
 5626TIP3    H138293   0.028   2.882   5.330 -0.1839  0.2817  0.7093
 5626TIP3    H238294   0.094   2.761   5.268 -0.5113  0.7404 -0.5816
 5627TIP3   OH238295   6.172   4.708  14.923  0.6306 -0.4307 -0.3038
 5627TIP3    H138296   6.087   4.670  14.900  0.0312 -0.0040  1.0913
 5627TIP3    H238297   6.194   4.765  14.849 -0.9452  0.4805 -0.1149
 5628TIP3   OH238298   3.119   0.920   5.568  0.0389 -0.1925 -0.2858
 5628TIP3    H138299   3.213   0.904   5.577  0.1292  0.7292  0.5939
 5628TIP3    H238300   3.104   1.002   5.615 -1.1149 -0.0225 -0.9168
 5629TIP3   OH238301   6.089   3.678   3.895  0.1109 -0.0403  0.2061
 5629TIP3    H138302   6.009   3.715   3.933 -0.1673 -0.9073  0.4784
 5629TIP3    H238303   6.151   3.751   3.893 -0.6373  0.6054  0.1257
 5630TIP3   OH238304   5.247   5.737  10.458  0.0308 -0.3708 -0.6915
 5630TIP3    H138305   5.319   5.797  10.480  0.3346 -0.6192 -1.0083
 5630TIP3    H238306   5.289   5.663  10.416 -0.1278 -1.6782  1.3144
 5631TIP3   OH238307   3.415   1.874   2.181 -0.4544  0.4509  0.1293
 5631TIP3    H138308   3.426   1.939   2.250 -1.2024  0.1300  0.5633
 5631TIP3    H238309   3.393   1.793   2.227 -0.0404  0.0125 -0.4333
 5632TIP3   OH238310   4.847   6.471   1.131 -0.1742 -0.9586 -0.1143
 5632TIP3    H138311   4.819   6.467   1.039  0.1228 -0.8080 -0.2108
 5632TIP3    H238312   4.770   6.442   1.180 -1.2008  1.3686 -0.2466
 5633TIP3   OH238313   4.717   5.371  13.592  0.4456  0.0736  0.0813
 5633TIP3    H138314   4.626   5.401  13.589  0.6660  0.8192  0.7851
 5633TIP3    H238315   4.729   5.324  13.509 -0.1011  1.3721 -0.7639
 5634TIP3   OH238316   1.514   6.764  14.329 -0.0577  0.0882 -0.0557
 5634TIP3    H138317   1.475   6.790  14.413 -0.1061  0.4719 -0.1942
 5634TIP3    H238318   1.598   6.810  14.327  1.4414 -2.3637  1.1977
 5635TIP3   OH238319   0.475   1.177  11.751  0.4806  0.0577  0.6753
 5635TIP3    H138320   0.398   1.232  11.735 -0.1176 -1.1209 -0.7001
 5635TIP3    H238321   0.526   1.227  11.814  0.6723  2.9039 -1.5088
 5636TIP3   OH238322   4.424   3.581   0.535  0.0340  0.1777  0.8522
 5636TIP3    H138323   4.339   3.625   0.538 -0.5014 -0.8328  0.9492
 5636TIP3    H238324   4.440   3.565   0.442 -0.9558 -1.5979  0.9399
 5637TIP3   OH238325   3.841   4.581   0.451 -0.5054  0.3339  0.5899
 5637TIP3    H138326   3.811   4.567   0.361  1.2023 -0.3384  0.0965
 5637TIP3    H238327   3.766   4.556   0.505 -1.5003  0.5859 -0.6253
 5638TIP3   OH238328   3.975   5.588   5.246  0.3768  0.2442  0.5036
 5638TIP3    H138329   3.923   5.667   5.263  0.6443  0.4117  0.5409
 5638TIP3    H238330   3.944   5.525   5.311  0.5698  0.5059  0.8543
 5639TIP3   OH238331   3.145   1.708   3.161  0.0273  0.2011  0.1180
 5639TIP3    H138332   3.163   1.726   3.253  1.5383  2.4468 -0.5157
 5639TIP3    H238333   3.050   1.704   3.155 -0.0879 -1.0078  1.8954
 5640TIP3   OH238334   2.158   1.041   4.926 -0.2034  0.0518  0.0369
 5640TIP3    H138335   2.245   1.037   4.885 -0.3085 -2.1257 -0.0869
 5640TIP3    H238336   2.167   0.990   5.006 -0.4649  2.8407  1.9832
 5641TIP3   OH238337   2.114   1.844  14.376 -0.2559  0.2035 -0.2715
 5641TIP3    H138338   2.046   1.785  14.343 -0.2936  0.6610 -1.0347
 5641TIP3    H238339   2.069   1.928  14.388 -0.2582  0.0387  1.0286
 5642TIP3   OH238340   0.354   2.529   1.405 -0.2027  0.1797  0.3604
 5642TIP3    H138341   0.429   2.552   1.460  1.6796  1.7105 -2.5946
 5642TIP3    H238342   0.311   2.612   1.388  0.1248 -0.0053 -1.5748
 5643TIP3   OH238343   4.269   2.204   2.785  0.4606  0.4397  0.6588
 5643TIP3    H138344   4.202   2.179   2.721  1.3209 -2.3982  0.7246
 5643TIP3    H238345   4.220   2.242   2.857 -1.1113 -1.2416  0.5575
 5644TIP3   OH238346   1.391   4.172  15.893 -0.5383 -0.1407 -0.6854
 5644TIP3    H138347   1.480   4.146  15.868 -0.7518 -0.9268 -0.6709
 5644TIP3    H238348   1.359   4.099  15.945 -0.8746  0.5372  0.0801
 5645TIP3   OH238349   0.072   4.716   1.036 -0.0007 -0.2216 -0.4406
 5645TIP3    H138350   0.115   4.794   1.001 -2.2178  0.7254 -1.2016
 5645TIP3    H238351   0.039   4.743   1.122  1.5371 -1.1947  0.5119
 5646TIP3   OH238352   3.228   3.132  11.955  0.1167 -1.1424  0.2414
 5646TIP3    H138353   3.269   3.048  11.977  1.4597 -1.0399 -1.5964
 5646TIP3    H238354   3.300   3.195  11.957  0.6495 -1.2003 -4.4864
 5647TIP3   OH238355   2.360   6.210  15.118 -0.5740 -0.0480  0.0150
 5647TIP3    H138356   2.338   6.270  15.047  0.3364  1.6964  1.1280
 5647TIP3    H238357   2.277   6.197  15.164 -0.4496  2.1511  1.0099
 5648TIP3   OH238358   5.215   6.766   1.067 -0.4297  0.0011  0.1716
 5648TIP3    H138359   5.289   6.733   1.016 -0.1452 -0.7703  1.0494
 5648TIP3    H238360   5.179   6.689   1.110 -1.4986  0.4355  0.0744
 5649TIP3   OH238361   0.587   0.845  12.602  0.3737 -0.0509  0.1428
 5649TIP3    H138362   0.623   0.904  12.669  2.3718  1.8246 -2.4012
 5649TIP3    H238363   0.660   0.787  12.580  0.1959  0.2191 -1.2663
 5650TIP3   OH238364   2.241   4.702   6.147  0.3907 -0.1915  0.3253
 5650TIP3    H138365   2.253   4.797   6.143 -0.9951  0.0068  0.2826
 5650TIP3    H238366   2.179   4.689   6.218 -2.5169 -0.6799 -2.0827
 5651TIP3   OH238367   0.084   0.603   1.658 -0.2621  0.0813 -0.1309
 5651TIP3    H138368   0.153   0.569   1.716  0.2475  0.8119 -0.3021
 5651TIP3    H238369   0.112   0.577   1.570 -0.5934 -0.2675 -0.1371
 5652TIP3   OH238370   0.860   2.645  17.116  0.0652  0.2906  0.0181
 5652TIP3    H138371   0.800   2.612  17.050 -0.6997  1.0004  0.3352
 5652TIP3    H238372   0.947   2.619  17.086 -0.4539 -1.4766 -0.0283
 5653TIP3   OH238373   3.927   3.410  11.464 -0.1015 -0.0360 -0.0374
 5653TIP3    H138374   3.882   3.348  11.521  2.0128 -0.0998  1.6992
 5653TIP3    H238375   3.922   3.371  11.376 -1.2361 -1.2261  0.5393
 5654TIP3   OH238376   5.701   1.638  15.436 -0.3542 -0.1494  0.5038
 5654TIP3    H138377   5.673   1.552  15.469  1.5510 -0.3749  1.6987
 5654TIP3    H238378   5.694   1.630  15.341 -0.3124 -1.5962  0.5941
 5655TIP3   OH238379   5.277   3.285  16.432  0.3872  0.2432 -0.4417
 5655TIP3    H138380   5.250   3.362  16.483  0.9775 -1.5982  2.9980
 5655TIP3    H238381   5.205   3.270  16.371 -1.1742  1.7995  0.8975
 5656TIP3   OH238382   6.158   2.909   1.557  0.2665 -0.7726 -0.2032
 5656TIP3    H138383   6.077   2.880   1.599 -0.3899 -1.2056 -1.6907
 5656TIP3    H238384   6.227   2.855   1.596 -0.4260 -1.7103 -0.2446
 5657TIP3   OH238385   2.826   1.612  17.012  0.3825 -0.6755 -0.3162
 5657TIP3    H138386   2.737   1.580  17.021  0.1165  0.1377  0.0627
 5657TIP3    H238387   2.874   1.573  17.086  0.3855 -1.2327 -0.6088
 5658TIP3   OH238388   3.915   5.862  13.355 -0.1015 -0.2335  0.8569
 5658TIP3    H138389   3.973   5.937  13.368 -1.2012  0.7745  0.1732
 5658TIP3    H238390   3.913   5.849  13.260 -1.9457  0.5865  0.7344
 5659TIP3   OH238391   1.656   4.147   3.826 -0.7977 -0.3130  0.3766
 5659TIP3    H138392   1.564   4.139   3.804 -1.6153  2.1031  2.3740
 5659TIP3    H238393   1.667   4.240   3.848  2.4317 -0.2314 -1.0383
 5660TIP3   OH238394   1.070   0.495   0.214  0.4392  0.0509  0.5616
 5660TIP3    H138395   1.088   0.492   0.120 -1.2404 -1.2996  0.2210
 5660TIP3    H238396   1.069   0.589   0.235 -0.6012  0.4619 -1.0949
 5661TIP3   OH238397   4.478   3.733  16.347  0.0273  0.0650  0.2348
 5661TIP3    H138398   4.519   3.646  16.343  0.6974  0.3056  1.3579
 5661TIP3    H238399   4.399   3.725  16.293  1.0434 -0.6947 -1.2057
 5662TIP3   OH238400   5.661   6.083   0.640 -0.0035  0.6790  0.1063
 5662TIP3    H138401   5.745   6.125   0.656 -0.1845  1.1321 -0.1164
 5662TIP3    H238402   5.684   5.993   0.614  0.3153 -0.0433  2.5933
 5663TIP3   OH238403   6.118   3.117  12.485 -0.1541 -0.3224 -0.0356
 5663TIP3    H138404   6.199   3.075  12.456  0.6225  0.6477  0.6183
 5663TIP3    H238405   6.122   3.111  12.581 -1.3767 -1.1692 -0.0220
 5664TIP3   OH238406   3.502   1.516  10.907 -0.0126  0.2206 -0.3973
 5664TIP3    H138407   3.466   1.454  10.843  1.7969 -0.8327 -0.4751
 5664TIP3    H238408   3.463   1.600  10.884 -1.0301 -0.5306 -1.5376
 5665TIP3   OH238409   2.459   1.003  14.409 -0.2781 -0.0103 -0.3162
 5665TIP3    H138410   2.551   1.016  14.385  0.0269  0.0712  0.8706
 5665TIP3    H238411   2.425   0.946  14.340 -0.1046  2.1552 -2.3393
 5666TIP3   OH238412   3.343   2.879   0.092  0.3033 -0.4116 -0.7374
 5666TIP3    H138413   3.320   2.967   0.063  0.9254  0.8205  2.2283
 5666TIP3    H238414   3.260   2.841   0.122 -0.0022 -0.9935 -2.2023
 5667TIP3   OH238415   6.012   3.357  11.318  0.2564 -0.3400  0.3370
 5667TIP3    H138416   6.066   3.278  11.315 -0.4850 -0.8610  0.3624
 5667TIP3    H238417   5.926   3.327  11.348 -0.8008  0.0205 -2.0445
 5668TIP3   OH238418   2.651   2.321  14.559  0.6220  0.6741 -0.0845
 5668TIP3    H138419   2.682   2.412  14.566  1.8383  0.3461 -0.8179
 5668TIP3    H238420   2.658   2.301  14.466  1.8335 -0.6490  0.2554
 5669TIP3   OH238421   3.928   6.558  14.011 -0.1192  0.0119 -0.1084
 5669TIP3    H138422   3.976   6.574  14.092  0.6438 -0.0722 -0.5324
 5669TIP3    H238423   3.857   6.499  14.035  1.4831 -1.9265  0.0747
 5670TIP3   OH238424   6.752   6.159  14.013 -0.1463 -0.2432  0.3835
 5670TIP3    H138425   6.662   6.181  14.036 -1.5234  0.7459 -4.6072
 5670TIP3    H238426   6.746   6.073  13.970  0.8782  0.5281 -1.4437
 5671TIP3   OH238427   4.718   4.922  13.131 -0.0803  0.0413  0.4288
 5671TIP3    H138428   4.742   4.977  13.206  0.8951  0.2725 -0.0477
 5671TIP3    H238429   4.750   4.969  13.055 -1.6413  0.1235 -0.2142
 5672TIP3   OH238430   2.601   0.036   2.367  0.1523 -0.1263  0.4566
 5672TIP3    H138431   2.593  -0.041   2.312  1.5767  1.5656 -2.3764
 5672TIP3    H238432   2.678   0.019   2.422  0.5050 -0.6649 -0.2022
 5673TIP3   OH238433   3.401   2.388   3.010 -0.3204 -0.5416  0.4898
 5673TIP3    H138434   3.419   2.447   3.083 -1.2068  0.2406  0.1002
 5673TIP3    H238435   3.460   2.314   3.024  2.3679  1.3354 -0.1110
 5674TIP3   OH238436   1.185   3.774   1.588 -0.1322  0.2838 -0.0428
 5674TIP3    H138437   1.239   3.813   1.519 -1.4974  1.5138 -0.4953
 5674TIP3    H238438   1.226   3.800   1.670  0.8984 -0.2632 -0.3699
 5675TIP3   OH238439   6.296   5.503   2.619  0.1455 -0.3711  0.1648
 5675TIP3    H138440   6.250   5.436   2.568 -0.0031  1.0333 -1.6190
 5675TIP3    H238441   6.389   5.489   2.598 -0.0642  2.0846 -3.0818
 5676TIP3   OH238442   4.680   0.463  11.463 -0.4114  0.3524  0.2868
 5676TIP3    H138443   4.588   0.459  11.486 -0.8588  0.4665 -1.3717
 5676TIP3    H238444   4.700   0.557  11.462 -0.1278  0.3069  1.1664
 5677TIP3   OH238445   4.202   4.638  14.222  0.3423 -0.6960 -0.2924
 5677TIP3    H138446   4.248   4.613  14.142  2.7592 -4.9714  2.0675
 5677TIP3    H238447   4.272   4.660  14.285 -1.3545  0.7450  1.2252
 5678TIP3   OH238448   5.260   6.596  10.730 -0.2484 -0.0865  0.2203
 5678TIP3    H138449   5.349   6.570  10.707 -0.1786 -1.3360  1.7499
 5678TIP3    H238450   5.207   6.569  10.656  0.6185  0.6123 -0.6845
 5679TIP3   OH238451   0.071   1.968   2.711 -0.1728 -0.2538  0.1869
 5679TIP3    H138452   0.035   1.885   2.742  0.5533  0.0631  1.9857
 5679TIP3    H238453  -0.000   2.031   2.725  0.2250 -0.0692  1.5201
 5680TIP3   OH238454   5.726   3.809  13.303 -0.0761 -0.4902  0.1618
 5680TIP3    H138455   5.679   3.845  13.378 -0.7177 -0.1692 -0.3866
 5680TIP3    H238456   5.818   3.815  13.328 -0.3195 -1.6378  1.4821
 5681TIP3   OH238457   0.965   0.681  15.755 -0.2437 -0.1672 -0.3004
 5681TIP3    H138458   0.998   0.756  15.805  0.9667 -0.7352 -0.2208
 5681TIP3    H238459   0.872   0.679  15.775 -0.0940  0.6623  0.5611
 5682TIP3   OH238460   4.562   0.222   1.956 -0.4724 -0.6163 -0.4292
 5682TIP3    H138461   4.480   0.194   1.997 -0.0960 -0.0622  0.7672
 5682TIP3    H238462   4.541   0.233   1.864 -1.9346  0.1785 -0.0300
 5683TIP3   OH238463   4.025   5.277   3.462 -0.2630 -0.1163  0.0264
 5683TIP3    H138464   3.946   5.328   3.444 -1.2913 -1.9209 -0.8737
 5683TIP3    H238465   4.061   5.257   3.376  0.0060 -1.0566  0.3416
 5684TIP3   OH238466   2.171   2.821  16.452  0.4133 -0.0848 -0.3239
 5684TIP3    H138467   2.077   2.836  16.455  0.3311 -0.6376  2.8417
 5684TIP3    H238468   2.209   2.907  16.433 -0.6644  0.4275 -0.2147
 5685TIP3   OH238469   3.377   0.078  11.182 -0.7203 -0.0294 -0.0855
 5685TIP3    H138470   3.470   0.097  11.173 -0.7028 -0.4033 -0.7615
 5685TIP3    H238471   3.371  -0.017  11.186 -1.1625 -0.0799 -1.4114
 5686TIP3   OH238472   2.809   4.023   0.236 -0.3651  0.3169 -0.3692
 5686TIP3    H138473   2.831   4.093   0.297 -1.1969  0.6641 -0.4616
 5686TIP3    H238474   2.839   4.054   0.151 -0.8368  0.6115 -0.4286
 5687TIP3   OH238475   3.244   6.578  13.227  0.1483  0.0508  0.5205
 5687TIP3    H138476   3.192   6.511  13.183 -0.5750  1.6268 -1.1648
 5687TIP3    H238477   3.312   6.529  13.274 -0.3714 -1.8508 -0.6040
 5688TIP3   OH238478   1.173   4.286  16.817 -0.0297  0.2345  0.3884
 5688TIP3    H138479   1.089   4.274  16.862 -0.6582 -0.1135 -0.8208
 5688TIP3    H238480   1.239   4.270  16.884 -0.8879 -2.4593  0.6975
 5689TIP3   OH238481   1.850   4.809  13.012 -0.3285 -0.2915 -0.2584
 5689TIP3    H138482   1.871   4.902  13.004  0.1332 -0.3695 -0.0168
 5689TIP3    H238483   1.918   4.774  13.071  0.7714 -1.1919 -1.9836
 5690TIP3   OH238484   6.754   4.937  16.328 -0.7518 -0.0630  0.0880
 5690TIP3    H138485   6.767   4.847  16.298  0.9748  0.6681 -1.5597
 5690TIP3    H238486   6.676   4.933  16.383 -0.7809 -2.5325 -0.0312
 5691TIP3   OH238487   1.960   3.075  12.651  0.1614 -0.2051  0.3941
 5691TIP3    H138488   1.959   3.083  12.746 -0.4117 -0.7471  0.4454
 5691TIP3    H238489   1.869   3.055  12.628  0.6451 -2.1311 -0.0516
 5692TIP3   OH238490   5.328   4.834   5.128 -0.6183  0.6252  0.2302
 5692TIP3    H138491   5.373   4.750   5.138 -0.4112  0.9279  2.5208
 5692TIP3    H238492   5.394   4.891   5.088 -1.0317 -0.4595 -2.1214
 5693TIP3   OH238493   6.343   4.668   2.181 -0.4910 -0.4882  0.0718
 5693TIP3    H138494   6.279   4.604   2.151 -1.1599  0.2030  0.0006
 5693TIP3    H238495   6.302   4.753   2.166  0.9734  0.0466 -1.2372
 5694TIP3   OH238496   6.063   2.190  13.618 -0.0549  0.7575 -0.3612
 5694TIP3    H138497   6.123   2.241  13.672 -1.0169  0.3296  1.1686
 5694TIP3    H238498   6.110   2.109  13.601 -0.6215 -0.1318  1.9384
 5695TIP3   OH238499   2.131   5.918  15.658 -0.4722 -0.0643 -0.2065
 5695TIP3    H138500   2.047   5.884  15.688 -0.4562  0.8959  1.0034
 5695TIP3    H238501   2.196   5.867  15.707 -0.3842  0.1049 -0.1480
 5696TIP3   OH238502   6.239   5.549   3.313 -0.7952  0.0357  0.0329
 5696TIP3    H138503   6.163   5.607   3.309 -0.2095  0.7712 -0.6946
 5696TIP3    H238504   6.221   5.480   3.249 -1.7773 -0.9740  1.3426
 5697TIP3   OH238505   1.667   2.134   5.688  0.0214  0.3211  0.0318
 5697TIP3    H138506   1.584   2.151   5.643  0.5170 -1.0148 -1.4611
 5697TIP3    H238507   1.731   2.186   5.640  0.2240  0.5139  0.5114
 5698TIP3   OH238508   0.147   5.429   3.184  0.1935  0.1461  0.1207
 5698TIP3    H138509   0.239   5.425   3.209  0.0183  1.5307  1.0730
 5698TIP3    H238510   0.106   5.486   3.249 -1.3797 -0.5577 -0.1914
 5699TIP3   OH238511   2.741   6.165   4.630 -0.4183 -0.4344  0.3272
 5699TIP3    H138512   2.784   6.081   4.641  1.5765  0.2932 -1.1947
 5699TIP3    H238513   2.719   6.169   4.537 -1.7930  0.1624  0.6517
 5700TIP3   OH238514   6.007   0.222  10.995  0.7983  0.1928  0.3954
 5700TIP3    H138515   5.930   0.278  10.983  0.0369 -0.7251  0.9158
 5700TIP3    H238516   6.057   0.234  10.914  0.2322  0.9730  0.1406
 5701TIP3   OH238517   2.658   3.802   4.033 -0.0503 -0.1689 -0.0785
 5701TIP3    H138518   2.651   3.708   4.018  2.5052  0.0094 -4.0385
 5701TIP3    H238519   2.710   3.811   4.113  0.1198 -2.1347  0.0614
 5702TIP3   OH238520   5.151   1.917  15.417  0.2873 -0.4217 -0.1492
 5702TIP3    H138521   5.219   1.903  15.351  1.0868 -1.0813  0.7922
 5702TIP3    H238522   5.078   1.862  15.388 -0.1092  0.7489 -1.4841
 5703TIP3   OH238523   1.557   5.030  16.589 -0.2902  0.2783 -0.3364
 5703TIP3    H138524   1.577   5.122  16.572 -0.9276  0.3933 -0.5009
 5703TIP3    H238525   1.506   5.002  16.513 -0.3790 -0.1191 -0.1374
 5704TIP3   OH238526   5.443   3.482  13.099  0.5733 -0.7605 -0.6801
 5704TIP3    H138527   5.407   3.568  13.122 -0.4599 -2.0014  3.1982
 5704TIP3    H238528   5.515   3.469  13.162 -0.1987 -3.2335 -0.1909
 5705TIP3   OH238529   3.465   5.013   0.182  0.3648  0.0983 -0.8984
 5705TIP3    H138530   3.548   4.974   0.155  1.1949  1.0359  0.1873
 5705TIP3    H238531   3.462   5.097   0.137 -0.2951 -0.1934 -1.4069
 5706TIP3   OH238532   1.334   0.674  11.777  0.4067 -0.4408  0.0941
 5706TIP3    H138533   1.320   0.766  11.801 -0.9348 -0.5987  0.0349
 5706TIP3    H238534   1.249   0.633  11.793  1.3866 -2.0072  1.5516
 5707TIP3   OH238535   0.009   0.887  12.686  0.0923 -0.0633 -0.3187
 5707TIP3    H138536  -0.039   0.897  12.604  0.5121  1.2328 -0.4371
 5707TIP3    H238537  -0.058   0.894  12.754  0.0590  1.7529 -0.4815
 5708TIP3   OH238538   3.336   6.022  13.097  0.0404 -0.1036  0.2671
 5708TIP3    H138539   3.272   5.955  13.074 -1.5236  2.0942 -2.4812
 5708TIP3    H238540   3.404   6.014  13.030  1.4359 -0.7910  1.6930
 5709TIP3   OH238541   1.929   5.714   2.840  0.8763  0.7992  0.7693
 5709TIP3    H138542   1.850   5.764   2.823 -0.0608 -0.4733  1.2573
 5709TIP3    H238543   1.943   5.662   2.761  0.6912  0.3156  1.0570
 5710TIP3   OH238544   0.338   3.488   4.011  0.6741 -0.2376 -0.2211
 5710TIP3    H138545   0.337   3.479   4.107  0.1583 -0.0393 -0.2044
 5710TIP3    H238546   0.289   3.569   3.994  1.2601  0.0405 -0.6236
 5711TIP3   OH238547   1.656   2.545  12.691 -0.1462  0.1669  0.1926
 5711TIP3    H138548   1.583   2.498  12.733 -0.0506  0.8491  1.1598
 5711TIP3    H238549   1.723   2.478  12.678 -0.1333 -0.0435  1.2698
 5712TIP3   OH238550   4.859   2.445   0.711 -0.6879  0.7437 -0.6236
 5712TIP3    H138551   4.769   2.454   0.742 -0.7302 -2.1719  0.3830
 5712TIP3    H238552   4.852   2.441   0.616 -1.9376 -1.4648 -0.5081
 5713TIP3   OH238553   6.424   3.571  17.094 -0.3562 -0.0052 -0.2659
 5713TIP3    H138554   6.459   3.615  17.172 -0.5967 -0.6706  0.2259
 5713TIP3    H238555   6.488   3.589  17.025  0.0530  0.2766  0.1844
 5714TIP3   OH238556   6.697   0.263  15.111 -0.6056  0.7310 -0.4821
 5714TIP3    H138557   6.668   0.219  15.190 -1.1492 -0.2075 -1.1772
 5714TIP3    H238558   6.782   0.301  15.134  0.0961 -1.0337  0.0679
 5715TIP3   OH238559   2.278   1.068   4.165 -0.4447 -0.3402  0.5177
 5715TIP3    H138560   2.201   1.072   4.222 -0.9159 -1.8450  0.0529
 5715TIP3    H238561   2.250   1.012   4.092  1.3230 -1.5794  0.7299
 5716TIP3   OH238562   3.005   3.822   4.979  0.0029 -0.0694  0.8057
 5716TIP3    H138563   2.938   3.771   5.025  0.7495  0.1747  2.1942
 5716TIP3    H238564   3.071   3.842   5.045  1.5066 -0.3592 -0.5426
 5717TIP3   OH238565   0.028   5.887  13.878 -0.3040 -0.3537  0.2611
 5717TIP3    H138566  -0.066   5.881  13.860 -0.2915 -0.9095  0.3666
 5717TIP3    H238567   0.065   5.930  13.801 -0.7604  0.6402  0.5843
 5718TIP3   OH238568   6.212   1.983  12.334  0.7361  0.1081  0.0799
 5718TIP3    H138569   6.240   2.055  12.277  0.5443  1.0101  1.0818
 5718TIP3    H238570   6.171   2.027  12.408 -1.9968 -1.1106 -0.5902
 5719TIP3   OH238571   5.234   3.216  15.576  0.2664  0.4355  0.0543
 5719TIP3    H138572   5.283   3.231  15.656  0.5509 -1.3333  0.2354
 5719TIP3    H238573   5.278   3.143  15.533 -1.0954 -0.0054 -0.6818
 5720TIP3   OH238574   5.318   6.336   1.784  0.4253 -0.2472  0.3458
 5720TIP3    H138575   5.284   6.258   1.828 -0.2309 -1.7081 -2.5143
 5720TIP3    H238576   5.245   6.368   1.730  1.1500  1.4595  0.2973
 5721TIP3   OH238577   2.493   5.324  11.386 -0.0573 -0.5994  0.0507
 5721TIP3    H138578   2.403   5.292  11.389 -1.0103  1.7486 -1.1754
 5721TIP3    H238579   2.518   5.335  11.478 -1.5928  0.1726  0.4075
 5722TIP3   OH238580   0.518   0.829   3.544  0.6330 -0.2337  0.3423
 5722TIP3    H138581   0.514   0.872   3.458 -0.6187 -0.5062  0.2480
 5722TIP3    H238582   0.554   0.742   3.526  1.1289 -0.0093  0.2210
 5723TIP3   OH238583   5.295   1.808   0.262  0.5497 -0.1340 -0.0162
 5723TIP3    H138584   5.266   1.884   0.312 -0.9520 -1.0435  0.5706
 5723TIP3    H238585   5.250   1.734   0.302 -2.0591 -0.7894 -3.6604
 5724TIP3   OH238586   5.062   3.159  11.035 -0.2500  0.3225  0.2116
 5724TIP3    H138587   5.080   3.082  10.981 -0.6621 -0.0464  0.5944
 5724TIP3    H238588   4.995   3.207  10.986  1.1978  1.3277 -0.8626
 5725TIP3   OH238589   6.594   6.208  11.829 -0.5799 -0.2364  0.0344
 5725TIP3    H138590   6.590   6.142  11.760  0.6028 -1.0355  0.6898
 5725TIP3    H238591   6.668   6.181  11.883  0.2525  1.9202  0.0489
 5726TIP3   OH238592   2.014   1.976   2.591  0.1957 -0.3391 -0.1394
 5726TIP3    H138593   1.991   2.045   2.653 -0.5045 -0.2038 -0.5349
 5726TIP3    H238594   2.096   1.939   2.624 -0.6842 -0.9523  1.4265
 5727TIP3   OH238595   6.619   6.147  13.159  0.0549  0.4624  0.2626
 5727TIP3    H138596   6.667   6.076  13.201  0.9304  0.2014 -1.1200
 5727TIP3    H238597   6.556   6.103  13.101  2.1884  0.6871 -2.4245
 5728TIP3   OH238598   1.240   5.854  14.544 -0.1202  0.4131  0.3826
 5728TIP3    H138599   1.173   5.869  14.611  0.5138 -0.3317  1.2065
 5728TIP3    H238600   1.283   5.939  14.533 -0.9033  0.7903  0.1603
 5729TIP3   OH238601   2.391   4.105  16.356  0.1080  0.0092 -0.0368
 5729TIP3    H138602   2.406   4.199  16.365 -3.0047  0.5885  0.3084
 5729TIP3    H238603   2.316   4.087  16.413 -0.8413 -2.2027 -1.7912
 5730TIP3   OH238604   0.145   6.572   1.111  0.5732 -0.1988 -0.0186
 5730TIP3    H138605   0.094   6.574   1.030 -0.5782 -0.8429  0.6648
 5730TIP3    H238606   0.142   6.481   1.140  0.8887  0.0381  0.8022
 5731TIP3   OH238607   3.789   5.350  15.828  0.2504 -0.6914 -0.2794
 5731TIP3    H138608   3.776   5.336  15.921 -0.1751 -1.2122 -0.4134
 5731TIP3    H238609   3.810   5.263  15.793  0.8936 -0.4211 -0.5915
 5732TIP3   OH238610   6.559   5.854  11.336 -0.4165 -0.2452 -0.7209
 5732TIP3    H138611   6.545   5.789  11.405  0.3522 -1.4116 -1.6271
 5732TIP3    H238612   6.621   5.812  11.276  0.2429  1.4015 -1.2462
 5733TIP3   OH238613   2.588   2.770   1.375  0.6269  0.5049  0.6537
 5733TIP3    H138614   2.597   2.729   1.461 -1.4141 -0.9916  0.2533
 5733TIP3    H238615   2.613   2.861   1.388  0.6195  0.2518  2.7665
 5734TIP3   OH238616   4.941   2.472  14.827 -0.3295 -0.4723 -0.5870
 5734TIP3    H138617   4.990   2.408  14.775 -0.3360  0.2036 -1.4496
 5734TIP3    H238618   4.990   2.478  14.909  0.5587 -0.4405 -1.1025
 5735TIP3   OH238619   5.672   1.223   0.638  0.1637  0.2933 -0.0390
 5735TIP3    H138620   5.718   1.215   0.554  2.1604  2.3878  0.7381
 5735TIP3    H238621   5.688   1.140   0.682  0.5490 -0.1870 -1.0449
 5736TIP3   OH238622   5.239   1.800   4.227  0.1468  0.4472 -0.0179
 5736TIP3    H138623   5.174   1.767   4.288  0.2438 -0.0595 -0.1830
 5736TIP3    H238624   5.189   1.853   4.164 -0.0259  0.5091  0.1729
 5737TIP3   OH238625   5.518   6.536   5.494 -0.2943  0.1646  0.3500
 5737TIP3    H138626   5.461   6.596   5.447 -0.9692 -0.1229  0.7993
 5737TIP3    H238627   5.578   6.593   5.542  0.1785  0.4649 -0.5619
 5738TIP3   OH238628   0.462   6.298   2.423  0.1497  0.2577 -0.2964
 5738TIP3    H138629   0.551   6.275   2.451  1.3413  3.7195 -0.6971
 5738TIP3    H238630   0.462   6.394   2.422 -2.6159  0.3972 -3.4004
 5739TIP3   OH238631   2.919   5.342  15.725 -0.2497  0.2926 -0.0507
 5739TIP3    H138632   2.899   5.259  15.683  1.0690 -0.3600  0.5339
 5739TIP3    H238633   3.011   5.334  15.752 -0.6613  1.1603  1.7819
 5740TIP3   OH238634   0.569   5.121  12.714  0.5203 -0.0344 -0.9012
 5740TIP3    H138635   0.475   5.105  12.713  0.3772  0.7639 -2.0762
 5740TIP3    H238636   0.594   5.124  12.622  1.6578  0.0113 -0.6053
 5741TIP3   OH238637   1.090   6.691  16.206  0.1917 -0.0320 -0.4602
 5741TIP3    H138638   1.036   6.612  16.201 -0.9363  0.6058  0.9922
 5741TIP3    H238639   1.151   6.674  16.278 -0.9614  0.9025  0.7893
 5742TIP3   OH238640   0.517   3.231   1.965 -0.6588  0.6410  0.4711
 5742TIP3    H138641   0.478   3.188   1.889 -0.9710  1.5716  0.0882
 5742TIP3    H238642   0.605   3.194   1.972  0.0693  1.8731 -1.4835
 5743TIP3   OH238643   0.196   6.076   0.130 -0.6503  0.1052 -0.5747
 5743TIP3    H138644   0.110   6.085   0.170 -1.0550 -0.5654 -1.2616
 5743TIP3    H238645   0.188   6.000   0.072  1.1303 -1.7166  1.3320
 5744TIP3   OH238646   6.677   6.537   2.519  0.2193 -0.0018  0.1245
 5744TIP3    H138647   6.764   6.502   2.537  0.5835  0.5663 -0.4813
 5744TIP3    H238648   6.652   6.583   2.599  0.0882 -0.9191  0.6207
 5745TIP3   OH238649   2.837   1.472  12.730 -0.0063 -0.9066 -0.4464
 5745TIP3    H138650   2.778   1.548  12.730  0.4926 -0.4914  0.8840
 5745TIP3    H238651   2.780   1.398  12.710 -0.7743 -0.3695 -0.3118
 5746TIP3   OH238652   3.764   5.617   0.344 -0.0104  0.5521 -0.4114
 5746TIP3    H138653   3.825   5.605   0.417 -0.1433 -1.6628 -0.6100
 5746TIP3    H238654   3.820   5.625   0.267  0.0922 -1.2464 -0.5629
 5747TIP3   OH238655   0.235   4.777   6.570 -0.7393 -0.2266 -0.1182
 5747TIP3    H138656   0.188   4.694   6.567 -0.6006 -0.3440  0.7129
 5747TIP3    H238657   0.176   4.836   6.616 -0.3821 -0.1755  0.2823
 5748TIP3   OH238658   3.207   2.103   0.846  0.2533 -0.0481 -0.0692
 5748TIP3    H138659   3.168   2.084   0.932  3.9611  0.0097  1.8050
 5748TIP3    H238660   3.195   2.022   0.796 -1.7673 -0.1681  0.5033
 5749TIP3   OH238661   4.186   2.760  14.800 -0.1505 -0.2606  0.5209
 5749TIP3    H138662   4.243   2.799  14.734 -1.0185  0.3041  0.0976
 5749TIP3    H238663   4.166   2.673  14.766  0.5821 -0.5318  0.7568
 5750TIP3   OH238664   1.196   1.832   5.884  0.3300  0.0362 -0.0825
 5750TIP3    H138665   1.287   1.834   5.854  0.2557  0.5982 -0.2805
 5750TIP3    H238666   1.201   1.855   5.977  0.4239 -0.3008 -0.0032
 5751TIP3   OH238667   6.307   2.990  15.807  0.4942 -0.3692 -0.2371
 5751TIP3    H138668   6.299   3.076  15.849 -0.0784 -0.3952 -0.2819
 5751TIP3    H238669   6.256   2.997  15.727  1.2282 -0.4582 -0.7206
 5752TIP3   OH238670   6.539   1.864  12.347  0.9751 -0.6541  0.1468
 5752TIP3    H138671   6.469   1.901  12.400  1.6149  1.8966 -0.6497
 5752TIP3    H238672   6.617   1.869  12.402  1.4608  1.1723 -0.6317
 5753TIP3   OH238673   3.854   0.174  16.534  0.6673  0.0128 -0.1797
 5753TIP3    H138674   3.911   0.251  16.541  0.9607 -0.0614 -1.5282
 5753TIP3    H238675   3.912   0.100  16.552  0.5338  0.0551  0.4498
 5754TIP3   OH238676   0.976   5.650  11.949  0.6814 -0.3738 -0.3401
 5754TIP3    H138677   1.050   5.593  11.971  0.5038  0.1300  1.8056
 5754TIP3    H238678   1.005   5.738  11.976  1.1064  0.7533 -3.9265
 5755TIP3   OH238679   3.563   3.286   0.026 -0.0448 -0.4110  0.7777
 5755TIP3    H138680   3.645   3.303  -0.020  0.2640 -0.8511  1.1521
 5755TIP3    H238681   3.588   3.287   0.119 -0.8243  1.3898  0.9948
 5756TIP3   OH238682   4.294   3.200  15.388 -0.1226  0.3500 -0.1161
 5756TIP3    H138683   4.347   3.159  15.320  0.4962 -0.1860  0.6832
 5756TIP3    H238684   4.347   3.273  15.420  0.4481 -0.5992  1.1561
 5757TIP3   OH238685   2.708   6.138   5.252  0.1876 -0.0558 -0.8650
 5757TIP3    H138686   2.652   6.089   5.191 -2.8420  2.0708 -0.0577
 5757TIP3    H238687   2.655   6.145   5.332  3.1377 -0.8682  1.3218
 5758TIP3   OH238688   5.680   6.478   2.426 -0.0556 -0.3253 -0.3315
 5758TIP3    H138689   5.708   6.524   2.505 -1.4430 -1.3672  0.8361
 5758TIP3    H238690   5.755   6.485   2.366  1.4614 -0.3633  1.4507
 5759TIP3   OH238691   1.104   2.270  13.140  0.5891 -0.0078  0.5210
 5759TIP3    H138692   1.120   2.240  13.230  0.2294 -1.4108  0.1419
 5759TIP3    H238693   1.123   2.193  13.086  0.1952  0.6387 -0.5545
 5760TIP3   OH238694   0.479   5.691   2.587 -0.1137  0.3347 -0.6271
 5760TIP3    H138695   0.465   5.778   2.624 -1.2504  0.3771 -1.1373
 5760TIP3    H238696   0.409   5.680   2.523 -0.3330 -1.1794 -0.1705
 5761TIP3   OH238697   1.989   0.233   5.803 -0.7607  0.2480  0.0344
 5761TIP3    H138698   1.945   0.176   5.866 -1.7250  0.6273 -0.2830
 5761TIP3    H238699   2.080   0.236   5.833 -1.5961  2.2545  2.8153
 5762TIP3   OH238700   5.940   2.687  14.104 -0.2234 -0.1435 -1.1783
 5762TIP3    H138701   5.891   2.752  14.053 -0.0898  1.5359  0.7181
 5762TIP3    H238702   5.893   2.605  14.090 -3.1589  1.2149 -0.1024
 5763TIP3   OH238703   6.711   4.003   6.007 -0.3731  0.4724 -0.2039
 5763TIP3    H138704   6.664   3.923   6.033 -1.7439  0.5887 -2.1031
 5763TIP3    H238705   6.656   4.041   5.938  0.5791  2.7331  0.2178
 5764TIP3   OH238706   4.210   5.092  16.497  0.2618  0.2827 -0.2392
 5764TIP3    H138707   4.216   5.045  16.414  0.2159 -1.5216  0.7486
 5764TIP3    H238708   4.294   5.079  16.539 -0.7150 -1.3909  1.3018
 5765TIP3   OH238709   0.276   0.454   1.804  0.2978 -0.0813  0.4861
 5765TIP3    H138710   0.360   0.421   1.773  0.9835  0.2426  1.9240
 5765TIP3    H238711   0.259   0.405   1.885 -0.9016 -0.1309  0.2283
 5766TIP3   OH238712   3.065   0.716   2.486 -0.2970  0.0924  0.1412
 5766TIP3    H138713   2.979   0.677   2.504 -0.1464 -0.2379  0.1475
 5766TIP3    H238714   3.123   0.678   2.553 -0.0910  0.1141 -0.0243
 5767TIP3   OH238715   2.175   3.320   2.168 -0.0041 -0.3544  0.3237
 5767TIP3    H138716   2.260   3.276   2.164 -0.2682 -0.8664  0.2670
 5767TIP3    H238717   2.116   3.262   2.119 -0.3966 -0.0363  0.4208
 5768TIP3   OH238718   3.384   1.257   1.770  0.0940 -0.3571  0.2294
 5768TIP3    H138719   3.332   1.256   1.689  0.7239  1.4288 -0.2553
 5768TIP3    H238720   3.338   1.318   1.827  1.0361  0.3946  0.2103
 5769TIP3   OH238721   4.156   0.660  14.486 -0.1100  0.0711  0.2208
 5769TIP3    H138722   4.065   0.631  14.485 -0.3683  0.7969  0.9288
 5769TIP3    H238723   4.158   0.734  14.426 -0.2280  0.6705  0.9293
 5770TIP3   OH238724   2.614   1.650  16.166 -0.2498 -0.2889  0.4686
 5770TIP3    H138725   2.681   1.630  16.101 -1.2977 -1.6627 -0.2380
 5770TIP3    H238726   2.660   1.648  16.249  0.8876  0.3583 -0.1210
 5771TIP3   OH238727   6.049   0.472   1.079  0.3538 -0.6429 -0.2811
 5771TIP3    H138728   5.994   0.485   1.157 -0.1580 -0.0387 -0.7267
 5771TIP3    H238729   5.987   0.476   1.006  1.0056  0.1098 -0.7985
 5772TIP3   OH238730   4.636   3.408   5.569  0.3852  0.3147 -0.1573
 5772TIP3    H138731   4.726   3.440   5.561  0.1562  0.6979 -1.3390
 5772TIP3    H238732   4.599   3.460   5.640  1.1037  0.1062  0.3874
 5773TIP3   OH238733   0.475   0.217  11.394 -0.0888  0.2398  0.5723
 5773TIP3    H138734   0.455   0.262  11.312  0.0885 -1.1983 -0.2992
 5773TIP3    H238735   0.390   0.203  11.435 -0.4512 -1.1816 -0.5751
 5774TIP3   OH238736   5.378   3.887  12.265  0.3175 -0.3191  0.0330
 5774TIP3    H138737   5.419   3.970  12.239  1.6909 -0.9991 -0.0437
 5774TIP3    H238738   5.377   3.835  12.185 -0.0680 -0.5727  0.2018
 5775TIP3   OH238739   5.439   1.536  13.370  0.4170  0.0648  0.0652
 5775TIP3    H138740   5.437   1.450  13.412 -0.2388  0.6253  1.2244
 5775TIP3    H238741   5.456   1.597  13.442  1.2449  0.8821 -0.7982
 5776TIP3   OH238742   0.525   4.474   6.245 -0.3117 -0.6358  0.3132
 5776TIP3    H138743   0.473   4.457   6.324 -0.4231 -2.3173 -0.0813
 5776TIP3    H238744   0.523   4.391   6.197 -0.1777  0.3171 -1.4250
 5777TIP3   OH238745   6.677   4.745   1.955  0.1007 -0.5245  0.0189
 5777TIP3    H138746   6.763   4.766   1.989  1.1116  1.1280 -3.1622
 5777TIP3    H238747   6.628   4.828   1.959 -0.1588 -0.5913 -1.2303
 5778TIP3   OH238748   1.506   4.493   3.060  0.3262 -0.6111 -0.3521
 5778TIP3    H138749   1.549   4.464   3.140  0.4718  0.3503 -0.0701
 5778TIP3    H238750   1.435   4.429   3.046  1.8895 -2.3002 -0.9073
 5779TIP3   OH238751   4.453   2.641  14.740 -0.1089 -0.3163 -0.0473
 5779TIP3    H138752   4.542   2.628  14.708  0.1537 -3.1084  1.5211
 5779TIP3    H238753   4.426   2.555  14.774 -3.4438  0.3915 -0.5153
 5780TIP3   OH238754   6.261   4.780  16.241  0.9920 -0.1210  0.3743
 5780TIP3    H138755   6.305   4.701  16.209  0.3141 -0.2909 -0.1807
 5780TIP3    H238756   6.210   4.750  16.316  0.5242 -0.2720  0.0000
 5781TIP3   OH238757   4.123   2.216   2.327 -0.2564  0.2892 -0.5957
 5781TIP3    H138758   4.103   2.224   2.420 -0.9179  2.8815 -0.8739
 5781TIP3    H238759   4.071   2.285   2.286 -0.8847 -1.5350 -3.0569
 5782TIP3   OH238760   6.227   2.282   0.450 -0.4485  0.4215  0.3501
 5782TIP3    H138761   6.299   2.332   0.489  1.1686 -0.5457 -1.2313
 5782TIP3    H238762   6.164   2.348   0.423  0.7417  1.4694  0.0385
 5783TIP3   OH238763   0.127   1.011  15.396  0.2755  0.1504  0.3422
 5783TIP3    H138764   0.183   0.964  15.333  0.1109  0.0928  0.2375
 5783TIP3    H238765   0.187   1.069  15.442  0.0322  2.0950 -1.6215
 5784TIP3   OH238766   1.981   4.506  15.880 -0.0427  0.1697  0.4176
 5784TIP3    H138767   1.900   4.509  15.931  0.5664  1.3030  1.3697
 5784TIP3    H238768   2.031   4.581  15.911  0.6387  0.5121 -1.4194
 5785TIP3   OH238769   0.222   2.535  15.121  0.3140 -0.0127 -0.1524
 5785TIP3    H138770   0.240   2.604  15.056 -1.5500  0.8927  0.2268
 5785TIP3    H238771   0.296   2.476  15.114  0.4762  0.3939 -2.6805
 5786TIP3   OH238772   3.736   1.365  16.580 -0.4845  0.1561 -0.4682
 5786TIP3    H138773   3.730   1.460  16.593  0.5626 -0.0202  1.8270
 5786TIP3    H238774   3.649   1.340  16.548 -1.3593  1.6884  0.5812
 5787TIP3   OH238775   0.936   1.062   2.922  0.0711  0.2312  0.4204
 5787TIP3    H138776   0.974   0.974   2.921  1.7704  0.9062  1.3858
 5787TIP3    H238777   1.002   1.117   2.882 -1.4832  0.9304 -1.3030
 5788TIP3   OH238778   6.289   3.852  10.689 -0.4493 -0.4972 -0.0514
 5788TIP3    H138779   6.215   3.836  10.630 -0.5180 -0.6520  0.0791
 5788TIP3    H238780   6.295   3.948  10.693  0.0600 -0.4758 -0.9414
 5789TIP3   OH238781   2.016   2.445  12.612  0.6584 -0.3133  0.3242
 5789TIP3    H138782   1.965   2.457  12.692  0.5559 -0.7363  0.3274
 5789TIP3    H238783   2.086   2.384  12.637 -0.4523 -1.9397 -0.3387
 5790TIP3   OH238784   4.271   3.447   4.158 -0.1474 -0.0419  0.1378
 5790TIP3    H138785   4.344   3.509   4.164 -0.1773  0.1646 -1.3010
 5790TIP3    H238786   4.193   3.502   4.155 -0.2707 -0.2056  0.4038
 5791TIP3   OH238787   3.196   5.451   3.364  0.1614  0.2783 -0.5215
 5791TIP3    H138788   3.205   5.400   3.284  0.5117  0.8320 -0.8433
 5791TIP3    H238789   3.172   5.539   3.334 -1.8895 -0.0060  0.0784
 5792TIP3   OH238790   1.183   5.935  16.635 -0.0175 -0.7072  0.6438
 5792TIP3    H138791   1.228   6.017  16.619  0.6612 -1.0386  0.8200
 5792TIP3    H238792   1.241   5.886  16.693 -1.7476 -0.1228  2.9952
 5793TIP3   OH238793   2.098   4.456  12.039 -0.1426  0.6614  0.0909
 5793TIP3    H138794   2.100   4.501  11.954 -0.3047 -0.0190 -0.2782
 5793TIP3    H238795   2.016   4.408  12.039  0.4245 -0.3412  0.1047
 5794TIP3   OH238796   1.240   4.912   1.274  0.3511 -0.2934  0.8430
 5794TIP3    H138797   1.145   4.905   1.287  0.3909 -0.0989  1.2297
 5794TIP3    H238798   1.278   4.851   1.337  0.4855 -0.3612  0.6978
 5795TIP3   OH238799   1.216   2.991  11.892  0.2948 -0.2503  0.0933
 5795TIP3    H138800   1.175   3.063  11.844  0.3477  0.5362  1.2094
 5795TIP3    H238801   1.286   2.961  11.834  0.1479  0.4606 -0.4693
 5796TIP3   OH238802   1.109   3.893   5.824  0.0545 -0.1791 -0.1581
 5796TIP3    H138803   1.173   3.950   5.781  1.0976 -0.9649  0.3197
 5796TIP3    H238804   1.148   3.872   5.909 -0.7869 -0.7734  0.0988
 5797TIP3   OH238805   3.655   0.309   3.871 -0.0453  0.1488 -0.3635
 5797TIP3    H138806   3.712   0.327   3.946  0.2509 -0.3094 -0.4807
 5797TIP3    H238807   3.581   0.368   3.884 -0.3367 -0.4179  0.6675
 5798TIP3   OH238808   5.467   5.044  11.092  0.3869 -0.6240 -0.2443
 5798TIP3    H138809   5.420   5.024  11.011 -0.4705 -0.6929  0.2577
 5798TIP3    H238810   5.457   4.965  11.145  1.4528 -0.8067 -0.2931
 5799TIP3   OH238811   0.994   0.842   2.801  0.0029 -0.3512 -0.0599
 5799TIP3    H138812   0.919   0.836   2.742 -0.2144 -0.5919  0.2383
 5799TIP3    H238813   1.061   0.785   2.762 -0.7190 -1.8378  0.7717
 5800TIP3   OH238814   2.075   4.896   2.058  1.0199 -0.3378 -0.3061
 5800TIP3    H138815   2.061   4.990   2.056 -0.8076 -0.5813 -0.4666
 5800TIP3    H238816   2.092   4.871   1.967 -0.1639 -0.3667 -0.5341
 5801TIP3   OH238817   2.043   4.182   6.074 -0.0300 -0.6949  0.2324
 5801TIP3    H138818   2.033   4.093   6.107 -2.1229  0.2200  2.3028
 5801TIP3    H238819   2.095   4.226   6.141 -1.0679  0.2330  0.4521
 5802TIP3   OH238820   2.140   2.681   4.618  0.2358 -0.9053 -0.2084
 5802TIP3    H138821   2.160   2.770   4.648 -1.1207 -0.5917 -0.1524
 5802TIP3    H238822   2.217   2.630   4.640 -0.0436 -0.3457  2.3157
 5803TIP3   OH238823   2.263   1.979  13.387 -0.8332  0.0586  0.1764
 5803TIP3    H138824   2.291   1.905  13.440  1.4361  0.2769 -0.6148
 5803TIP3    H238825   2.299   2.056  13.432  0.2334  0.3264 -1.0677
 5804TIP3   OH238826   5.962   3.662   6.249 -0.1855  0.1208  0.2813
 5804TIP3    H138827   5.891   3.723   6.231  0.5037  0.6642 -0.7207
 5804TIP3    H238828   6.037   3.719   6.267 -0.0620 -0.4355  1.6433
 5805TIP3   OH238829   5.947   6.768  12.087  0.1235  0.5009 -0.1129
 5805TIP3    H138830   6.000   6.693  12.060 -0.7742 -0.1853 -0.0351
 5805TIP3    H238831   5.994   6.844  12.055  2.7832  0.1795  2.5649
 5806TIP3   OH238832   0.661   4.852   4.081 -0.2751  0.1576 -0.5686
 5806TIP3    H138833   0.703   4.851   4.167  1.1846  1.4969 -1.2147
 5806TIP3    H238834   0.568   4.864   4.099  0.1459  1.7540  0.8014
 5807TIP3   OH238835   5.845   4.731   4.921  0.1554 -0.0941  0.4183
 5807TIP3    H138836   5.864   4.640   4.942 -3.9952 -1.0373  0.9839
 5807TIP3    H238837   5.813   4.769   5.003 -0.8151  1.0216 -0.4383
 5808TIP3   OH238838   4.828   5.002  15.024 -0.0350  0.0735  0.3326
 5808TIP3    H138839   4.797   4.937  15.088  1.4888 -1.0175  0.0232
 5808TIP3    H238840   4.908   4.964  14.989 -1.0177  0.4558 -2.5491
 5809TIP3   OH238841   4.527   0.635   3.849 -0.4654  0.0828 -0.0970
 5809TIP3    H138842   4.615   0.664   3.870 -0.6483  0.2320  0.4681
 5809TIP3    H238843   4.523   0.637   3.753 -0.4702  1.9087 -0.0935
 5810TIP3   OH238844   4.144   0.627   0.224  0.6403  0.4060  0.1685
 5810TIP3    H138845   4.235   0.657   0.222  0.6014  0.5844 -2.4036
 5810TIP3    H238846   4.100   0.690   0.281  1.9971  0.6435  1.0132
 5811TIP3   OH238847   5.321   5.751  16.329 -0.0206  0.2557 -0.0697
 5811TIP3    H138848   5.282   5.837  16.318 -0.6751 -0.1037 -0.6904
 5811TIP3    H238849   5.395   5.750  16.267 -1.1885 -0.2880 -1.5338
 5812TIP3   OH238850   5.159   0.203   1.272  0.0516 -0.2697 -0.5529
 5812TIP3    H138851   5.182   0.134   1.210  0.7453 -0.3202 -0.2581
 5812TIP3    H238852   5.068   0.186   1.295  0.3669 -1.4280 -0.0748
 5813TIP3   OH238853   4.571   4.839  15.131 -0.1199 -0.4348 -0.4219
 5813TIP3    H138854   4.629   4.811  15.059 -1.9895  1.3609 -2.7949
 5813TIP3    H238855   4.483   4.818  15.100 -0.9640 -0.5744  1.8885
 5814TIP3   OH238856   2.776   2.405  15.913 -0.3308  0.1360  0.3704
 5814TIP3    H138857   2.829   2.457  15.853 -0.5141  1.8590  1.6572
 5814TIP3    H238858   2.709   2.366  15.857  0.4014  0.4671 -0.7769
 5815TIP3   OH238859   4.078   5.303  16.661 -0.2749 -0.0572 -0.1746
 5815TIP3    H138860   4.119   5.261  16.585  1.7887  1.9440 -0.3010
 5815TIP3    H238861   3.994   5.334  16.628  0.6568  0.9501 -1.7840
 5816TIP3   OH238862   4.950   3.519   3.995  0.5869  0.0449  0.2139
 5816TIP3    H138863   5.042   3.540   3.978  0.4650  0.5508  0.1549
 5816TIP3    H238864   4.928   3.452   3.931  0.8337  0.1347  0.0333
 5817TIP3   OH238865   3.442   2.835  16.332 -0.2981  0.1948 -0.3584
 5817TIP3    H138866   3.352   2.811  16.313  0.0527  0.4825 -2.6179
 5817TIP3    H238867   3.445   2.930  16.322  0.1971  0.2298  0.0278
 5818TIP3   OH238868   2.132   2.592   2.935  0.0273 -0.0912  0.3720
 5818TIP3    H138869   2.074   2.661   2.969  0.1398  1.6752 -2.6626
 5818TIP3    H238870   2.218   2.634   2.932  0.7641 -1.4645  1.3271
 5819TIP3   OH238871   0.632   4.277  15.714  0.0382  0.9613 -0.1530
 5819TIP3    H138872   0.595   4.190  15.699  0.0165  0.8933  0.2637
 5819TIP3    H238873   0.666   4.273  15.804  1.3600  0.9251 -0.6418
 5820TIP3   OH238874   1.930   4.739  11.669  0.0643 -0.4906  0.1620
 5820TIP3    H138875   1.925   4.786  11.753 -0.2608 -1.2005  0.5496
 5820TIP3    H238876   1.839   4.733  11.640  0.3574  2.2511 -1.6930
 5821TIP3   OH238877   3.867   2.840   5.492  0.1481  0.1713 -0.2097
 5821TIP3    H138878   3.821   2.862   5.410 -0.1530  0.2021 -0.0331
 5821TIP3    H238879   3.858   2.919   5.546 -0.0389 -0.0115  0.0258
 5822TIP3   OH238880   4.902   4.161  16.640  0.9243  0.2181  0.1621
 5822TIP3    H138881   4.934   4.231  16.583 -0.0421 -0.2742 -1.0334
 5822TIP3    H238882   4.814   4.141  16.607  0.6578 -0.6409  1.3270
 5823TIP3   OH238883   3.424   3.763   0.958 -0.2146  0.0894  0.6368
 5823TIP3    H138884   3.363   3.823   1.002  1.3544  0.9019  1.7993
 5823TIP3    H238885   3.497   3.819   0.932  0.6642 -1.0891  0.4993
 5824TIP3   OH238886   0.954   0.091  15.587  0.7552  0.7254  1.0384
 5824TIP3    H138887   0.959   0.065  15.495 -0.7561 -2.4575  1.7076
 5824TIP3    H238888   1.045   0.097  15.616  1.2233  0.2907 -0.2917
 5825TIP3   OH238889   2.461   4.645   6.796  0.1587 -0.3703 -0.2111
 5825TIP3    H138890   2.461   4.672   6.887 -0.7610 -1.0810  0.0162
 5825TIP3    H238891   2.543   4.679   6.760  1.4117 -1.6302  1.3342
 5826TIP3   OH238892   5.886   2.645  13.680  0.1977  0.2268 -0.0248
 5826TIP3    H138893   5.874   2.711  13.612 -0.7299  0.8572  0.7165
 5826TIP3    H238894   5.858   2.563  13.639 -1.1244  0.7224 -0.1872
 5827TIP3   OH238895   2.693   4.008   6.465 -0.5194 -0.3338  0.1793
 5827TIP3    H138896   2.628   4.069   6.499 -0.0452  0.6700 -0.6525
 5827TIP3    H238897   2.764   4.009   6.529 -1.0480 -0.9853  0.7938
 5828TIP3   OH238898   0.419   0.994  12.445  0.0224 -0.0474  0.0551
 5828TIP3    H138899   0.478   1.070  12.448 -0.1848  0.1298 -0.2033
 5828TIP3    H238900   0.468   0.923  12.486  0.1891  0.2490  0.3723
 5829TIP3   OH238901   2.123   3.219   1.345  0.1298  0.5475  0.6565
 5829TIP3    H138902   2.201   3.262   1.379  0.1447  1.1083 -0.0761
 5829TIP3    H238903   2.108   3.259   1.260 -0.3757 -0.2678  0.3466
 5830TIP3   OH238904   5.939   4.295   0.938  0.3066 -0.2375  0.2851
 5830TIP3    H138905   5.938   4.384   0.904 -1.0821  0.5021  2.1042
 5830TIP3    H238906   5.849   4.264   0.928  0.0917 -0.3715  2.1450
 5831TIP3   OH238907   2.114   5.905   4.028  0.0701  0.2260 -0.5071
 5831TIP3    H138908   2.126   5.873   3.939 -0.7569  1.7059 -1.1950
 5831TIP3    H238909   2.028   5.873   4.054  0.9537 -1.5358  0.4015
 5832TIP3   OH238910   3.761   5.881   3.750 -0.4183 -0.0857  0.2547
 5832TIP3    H138911   3.688   5.940   3.767  0.6935  1.2306  0.7000
 5832TIP3    H238912   3.775   5.836   3.834  0.2456  0.8188  0.6509
 5833TIP3   OH238913   3.417   3.714  11.954  0.0687  0.0067 -0.1066
 5833TIP3    H138914   3.386   3.694  11.865  0.1391 -1.1231  0.1110
 5833TIP3    H238915   3.337   3.732  12.004 -0.3028 -2.6042  0.3821
 5834TIP3   OH238916   5.060   4.801   4.680  0.3810  0.5996 -0.2153
 5834TIP3    H138917   5.040   4.840   4.765  0.0038  0.1671 -0.1051
 5834TIP3    H238918   4.975   4.778   4.643  0.6439 -1.3167  0.2769
 5835TIP3   OH238919   0.998   3.631  12.277 -0.0360 -0.7878  0.5052
 5835TIP3    H138920   1.062   3.643  12.207  0.4821 -1.4688  0.8556
 5835TIP3    H238921   1.021   3.698  12.342  0.5617 -1.2621  0.7962
 5836TIP3   OH238922   2.988   6.267   0.756 -0.0339  0.4178  0.1705
 5836TIP3    H138923   3.075   6.282   0.790  0.6469  0.6356 -1.5492
 5836TIP3    H238924   2.931   6.326   0.806  0.5452 -0.6901  2.2334
 5837TIP3   OH238925   0.772   4.754  16.371  0.1354  0.5782  0.4771
 5837TIP3    H138926   0.855   4.802  16.363  0.7198 -0.7089 -2.6311
 5837TIP3    H238927   0.717   4.789  16.301 -0.9407 -0.4527  0.7754
 5838TIP3   OH238928   3.285   0.505  12.595 -0.0142  0.1067  0.6484
 5838TIP3    H138929   3.198   0.507  12.634 -0.8097  1.3397 -1.0628
 5838TIP3    H238930   3.327   0.586  12.625 -0.0281  0.2627  0.2506
 5839TIP3   OH238931   5.194   3.830  13.355 -0.0226 -0.2527  0.2656
 5839TIP3    H138932   5.177   3.801  13.266  0.0301  0.1931  0.1050
 5839TIP3    H238933   5.109   3.861  13.387  0.3502  1.6222 -0.4043
 5840TIP3   OH238934   1.060   3.121   6.027 -0.7673 -0.4499  0.2433
 5840TIP3    H138935   0.967   3.111   6.046 -1.5463 -1.5104 -3.3458
 5840TIP3    H238936   1.102   3.052   6.078 -2.3040 -1.6514 -0.0229
 5841TIP3   OH238937   0.400   0.093  17.027 -0.6138 -0.2542  0.4209
 5841TIP3    H138938   0.383   0.036  17.102  1.1696  0.1173  1.1446
 5841TIP3    H238939   0.457   0.041  16.970 -1.5498 -0.3482 -0.4576
 5842TIP3   OH238940   1.421   0.550   0.859 -0.5191  0.0204  0.1735
 5842TIP3    H138941   1.375   0.518   0.937 -2.9074  0.0660 -1.1084
 5842TIP3    H238942   1.498   0.494   0.851 -1.5141 -1.5814  1.2304
 5843TIP3   OH238943   1.610   4.092   4.308  0.5157 -0.2268  0.5420
 5843TIP3    H138944   1.548   4.048   4.368 -0.6145  0.4931 -0.0715
 5843TIP3    H238945   1.606   4.184   4.333  1.3145 -0.1665  0.4556
 5844TIP3   OH238946   0.877   2.397  14.804 -0.6258  0.4883  0.4232
 5844TIP3    H138947   0.951   2.338  14.821  1.3919  2.4255 -1.0785
 5844TIP3    H238948   0.898   2.477  14.852 -1.3056  1.3811 -0.7253
 5845TIP3   OH238949   0.357   5.771  16.110  0.5258  0.1157  0.1989
 5845TIP3    H138950   0.333   5.861  16.132 -0.4829 -0.3100  0.9096
 5845TIP3    H238951   0.445   5.761  16.145  0.4247  0.6597  0.6276
 5846TIP3   OH238952   2.831   4.011   2.027 -0.2470  0.0666 -0.0949
 5846TIP3    H138953   2.766   4.059   2.079 -0.8635  0.2865 -1.0421
 5846TIP3    H238954   2.802   3.920   2.031 -0.9098  0.2263 -0.9019
 5847TIP3   OH238955   0.836   4.383  10.555  0.1591  0.0920 -0.0991
 5847TIP3    H138956   0.843   4.295  10.592  0.5086  0.4902  0.7896
 5847TIP3    H238957   0.814   4.367  10.463  1.7864 -0.9743 -0.3539
 5848TIP3   OH238958   5.304   3.348  13.378 -0.1829 -0.0743 -0.0695
 5848TIP3    H138959   5.310   3.357  13.473  0.8191  1.2922 -0.2299
 5848TIP3    H238960   5.334   3.259  13.360 -0.3832 -0.3438  0.8876
 5849TIP3   OH238961   4.936   3.295   3.434 -0.0140 -0.1420  0.0236
 5849TIP3    H138962   4.984   3.316   3.514  0.9784 -1.0174 -0.3258
 5849TIP3    H238963   4.943   3.200   3.426  1.0753  0.0481 -1.8204
 5850TIP3   OH238964   6.670   0.951  12.372 -0.0028  0.8478 -0.2765
 5850TIP3    H138965   6.591   0.897  12.376  1.7696 -1.8157  1.9369
 5850TIP3    H238966   6.724   0.910  12.304  0.8610  0.5432  0.5762
 5851TIP3   OH238967   0.234   2.279   0.325 -0.2919 -0.1064 -0.3098
 5851TIP3    H138968   0.222   2.278   0.420  0.3267 -0.6833 -0.2231
 5851TIP3    H238969   0.154   2.239   0.290  0.6254 -2.5135  0.1532
 5852TIP3   OH238970   2.494   6.525   4.652  0.2054 -0.3854  0.0731
 5852TIP3    H138971   2.584   6.519   4.682  0.0759  0.2984  0.6307
 5852TIP3    H238972   2.447   6.460   4.706  0.0420  0.5715  1.1190
 5853TIP3   OH238973   6.667   4.426   3.523  0.2329 -0.7374 -0.2230
 5853TIP3    H138974   6.619   4.503   3.553  2.2076  0.0559  1.0662
 5853TIP3    H238975   6.666   4.366   3.597  1.3260 -0.6449 -0.1185
 5854TIP3   OH238976   1.665   6.212   3.070  0.1948  0.2301  0.5555
 5854TIP3    H138977   1.757   6.238   3.081  0.1789  0.7376 -0.3984
 5854TIP3    H238978   1.669   6.118   3.051  0.5672  0.3692 -0.0855
 5855TIP3   OH238979   5.521   6.620  14.682  0.0796  0.3904 -0.4012
 5855TIP3    H138980   5.445   6.657  14.727  1.5807  0.9320  1.8476
 5855TIP3    H238981   5.530   6.673  14.603 -0.1545  2.3005  0.7814
 5856TIP3   OH238982   2.554   1.427   3.547 -0.1403 -0.4465  0.4497
 5856TIP3    H138983   2.647   1.416   3.529  0.1822  1.9580  0.2249
 5856TIP3    H238984   2.516   1.454   3.463 -1.4813 -3.2718  0.0406
 5857TIP3   OH238985   0.111   4.339   3.111 -0.0239 -0.2431  0.0279
 5857TIP3    H138986   0.129   4.389   3.191 -0.3895  0.6460 -0.4305
 5857TIP3    H238987   0.019   4.356   3.092 -0.0222 -0.7031 -0.4099
 5858TIP3   OH238988   4.973   1.215  14.130  0.7348  0.5056  0.2985
 5858TIP3    H138989   4.899   1.275  14.137  0.3928  0.3635 -1.4895
 5858TIP3    H238990   5.046   1.271  14.101  0.2179  0.0183 -2.1668
 5859TIP3   OH238991   2.236   6.693   0.523 -0.0038 -0.3101 -0.4073
 5859TIP3    H138992   2.251   6.721   0.613 -0.7509 -0.7776 -0.1303
 5859TIP3    H238993   2.162   6.747   0.493  1.1481  0.8775 -1.2362
 5860TIP3   OH238994   6.080   0.457  13.338  0.5826 -0.5325 -0.8386
 5860TIP3    H138995   6.007   0.501  13.382  1.0010 -0.9366  0.2932
 5860TIP3    H238996   6.054   0.454  13.246 -0.2885  0.3935 -0.6409
 5861TIP3   OH238997   2.867   3.881  14.736 -0.4673  0.4891 -0.4832
 5861TIP3    H138998   2.952   3.864  14.695 -0.8086 -0.9300 -0.6631
 5861TIP3    H238999   2.804   3.870  14.665 -0.9002  0.1468 -0.0509
 5862TIP3   OH239000   5.824   5.955  15.530  0.3949 -0.3417 -0.3008
 5862TIP3    H139001   5.859   5.869  15.507 -0.3495  0.1426 -3.7459
 5862TIP3    H239002   5.738   5.937  15.568  0.8554 -1.1308  0.4156
 5863TIP3   OH239003   6.203   0.326   4.393 -0.5145 -0.2852 -1.1461
 5863TIP3    H139004   6.173   0.240   4.422  0.9334 -0.6096 -0.4801
 5863TIP3    H239005   6.220   0.316   4.300  0.7212 -1.0852 -0.8602
 5864TIP3   OH239006   5.163   1.556  12.583  0.1345  0.7220  0.4926
 5864TIP3    H139007   5.072   1.541  12.559 -0.2700  0.3678  2.1343
 5864TIP3    H239008   5.210   1.479  12.551 -0.1149  0.9609 -0.4606
 5865TIP3   OH239009   5.566   5.879   3.438  0.2189 -0.1555  0.0222
 5865TIP3    H139010   5.481   5.874   3.395  0.0409  0.7588  0.2442
 5865TIP3    H239011   5.630   5.870   3.366 -0.0119  4.5983 -1.0987
 5866TIP3   OH239012   4.240   2.628  11.065 -0.4102  0.0152 -0.0859
 5866TIP3    H139013   4.209   2.604  10.977  0.1872  0.6372 -0.4830
 5866TIP3    H239014   4.243   2.546  11.113  0.0041 -0.4650 -0.8993
 5867TIP3   OH239015   6.415   2.537   0.826 -0.0798 -0.5901  0.1799
 5867TIP3    H139016   6.496   2.585   0.808 -0.3952 -0.1495 -0.0745
 5867TIP3    H239017   6.382   2.513   0.740 -0.6367 -0.0639  0.2383
 5868TIP3   OH239018   4.427   2.097   0.317 -0.0944 -0.2825  0.0476
 5868TIP3    H139019   4.477   2.023   0.352 -1.2320  0.1433  2.7975
 5868TIP3    H239020   4.468   2.174   0.355 -0.2899  0.3752 -1.0356
 5869TIP3   OH239021   4.645   4.050  12.043  0.1497 -0.7533  0.5374
 5869TIP3    H139022   4.688   3.964  12.047 -0.5005 -1.2172 -1.4095
 5869TIP3    H239023   4.557   4.031  12.009  0.7380  0.8618 -2.1841
 5870TIP3   OH239024   0.501   1.515   1.448  0.5724  0.1374  0.5064
 5870TIP3    H139025   0.595   1.521   1.432  0.5232  0.5962  0.3564
 5870TIP3    H239026   0.482   1.588   1.507  0.5056 -0.6767  1.5076
 5871TIP3   OH239027   4.939   6.301  14.127 -0.2686  0.7018 -0.4371
 5871TIP3    H139028   4.895   6.322  14.045  0.2789  0.1704 -0.8758
 5871TIP3    H239029   4.892   6.353  14.193  0.9854  3.2663 -1.4266
 5872TIP3   OH239030   4.135   5.734  16.566 -0.2600  0.5704 -0.2175
 5872TIP3    H139031   4.126   5.684  16.485 -0.3572 -0.6115  0.4966
 5872TIP3    H239032   4.054   5.718  16.614  0.7362 -0.6889  1.1384
 5873TIP3   OH239033   5.684   5.107  17.190  0.3453 -0.0353 -0.2790
 5873TIP3    H139034   5.715   5.187  17.149 -2.9379  1.9513  0.7437
 5873TIP3    H239035   5.699   5.121  17.284  1.9744 -1.7775 -0.2157
 5874TIP3   OH239036   0.737   6.382  12.974  0.1749  0.0626 -0.6028
 5874TIP3    H139037   0.766   6.422  13.055 -0.1353  0.6181 -0.7626
 5874TIP3    H239038   0.722   6.456  12.915 -0.9351 -0.2516 -0.7282
 5875TIP3   OH239039   6.649   0.553   6.125  0.2562 -0.1051 -0.0234
 5875TIP3    H139040   6.692   0.565   6.209 -0.9621  0.6732  0.5203
 5875TIP3    H239041   6.566   0.600   6.133 -0.4310 -1.0286 -1.2354
 5876TIP3   OH239042   0.316   3.367  15.368 -0.5574  0.2532  0.3664
 5876TIP3    H139043   0.403   3.389  15.334  0.3330 -0.5494  2.0325
 5876TIP3    H239044   0.256   3.394  15.298  0.8416  2.6348 -0.0259
 5877TIP3   OH239045   6.560   6.416  14.755 -0.7652 -0.8860 -0.5705
 5877TIP3    H139046   6.475   6.450  14.727 -0.4687 -0.3625 -0.8473
 5877TIP3    H239047   6.541   6.370  14.837 -1.3435 -0.9285 -0.7234
 5878TIP3   OH239048   4.906   1.375  11.176 -0.3476 -0.0014 -0.7811
 5878TIP3    H139049   4.918   1.388  11.270  0.3684  0.1595 -0.8863
 5878TIP3    H239050   4.814   1.350  11.166 -0.3605 -0.2686 -0.0152
 5879TIP3   OH239051   6.044   5.000   5.949 -0.0941 -0.0623  0.3599
 5879TIP3    H139052   6.002   4.920   5.917  0.8336 -0.4446  0.0429
 5879TIP3    H239053   6.138   4.983   5.939  0.1033  1.3899 -0.4862
 5880TIP3   OH239054   2.822   0.112  12.453  0.3204 -0.1670  0.1351
 5880TIP3    H139055   2.766   0.040  12.480 -0.6082 -0.0875 -1.4587
 5880TIP3    H239056   2.797   0.185  12.510 -1.1305 -0.1735 -0.4635
 5881TIP3   OH239057   6.091   1.476   4.314  0.8870 -0.3168 -0.1343
 5881TIP3    H139058   6.160   1.534   4.347  1.0292 -0.6855  0.2266
 5881TIP3    H239059   6.098   1.397   4.369  0.4784 -0.5389 -0.3991
 5882TIP3   OH239060   1.538   0.291  11.589 -0.1439 -0.1283 -0.6592
 5882TIP3    H139061   1.561   0.293  11.497 -1.0272 -2.0975 -0.9654
 5882TIP3    H239062   1.580   0.212  11.623 -0.6344  0.0358  0.3882
 5883TIP3   OH239063   4.198   3.013   5.471  0.6039 -0.1588 -0.2298
 5883TIP3    H139064   4.192   3.089   5.529  0.7489 -0.9346  0.8452
 5883TIP3    H239065   4.126   3.024   5.409 -0.3545  0.0760  0.8882
 5884TIP3   OH239066   6.079   0.199   1.057  0.0142  0.0560 -1.1411
 5884TIP3    H139067   6.065   0.178   1.149 -0.5028 -1.8564 -1.6282
 5884TIP3    H239068   6.084   0.295   1.055  1.8892  0.1049  1.1209
 5885TIP3   OH239069   3.370   2.416   4.242 -0.1837 -0.5104 -0.8553
 5885TIP3    H139070   3.438   2.410   4.309 -0.4810 -0.6865 -0.5652
 5885TIP3    H239071   3.409   2.469   4.173  0.5644 -1.3458 -1.0839
 5886TIP3   OH239072   5.707   4.301   0.174 -0.1560  0.5133  0.3571
 5886TIP3    H139073   5.712   4.332   0.264 -0.6284 -0.7117  0.8219
 5886TIP3    H239074   5.642   4.358   0.132  1.5598  2.4469  0.1825
 5887TIP3   OH239075   3.652   0.351  15.996 -0.1535  0.3395 -0.0863
 5887TIP3    H139076   3.571   0.374  16.041 -0.0083  1.0588 -0.1804
 5887TIP3    H239077   3.667   0.259  16.019 -1.5065 -0.0965 -0.8798
 5888TIP3   OH239078   2.474   0.712   5.134 -0.1494  0.1414  0.1210
 5888TIP3    H139079   2.443   0.703   5.224 -0.3477 -0.1904  0.0210
 5888TIP3    H239080   2.400   0.750   5.087  0.1203  0.7792  0.1958
 5889TIP3   OH239081   1.512   5.399   2.592  0.2737 -0.0224  0.0250
 5889TIP3    H139082   1.509   5.470   2.657 -0.2515  0.3033 -0.3494
 5889TIP3    H239083   1.510   5.443   2.508 -1.4056 -0.5011 -0.2228
 5890TIP3   OH239084   4.911   0.505  12.599 -0.1505  0.5270  0.1184
 5890TIP3    H139085   4.952   0.464  12.675  0.9177 -1.2508 -1.3524
 5890TIP3    H239086   4.942   0.454  12.524 -0.8380  2.4602 -1.5710
 5891TIP3   OH239087   6.541   5.670   2.341  0.5133 -0.4893  0.2305
 5891TIP3    H139088   6.606   5.632   2.401  0.9284 -0.5235 -0.2389
 5891TIP3    H239089   6.475   5.601   2.331 -0.6883  0.2573  2.3110
 5892TIP3   OH239090   4.913   1.422  10.701 -0.0421  0.6088  0.6350
 5892TIP3    H139091   4.942   1.514  10.700 -0.7635  0.8349  0.3589
 5892TIP3    H239092   4.995   1.372  10.702  0.3959  1.2318 -0.7455
 5893TIP3   OH239093   3.360   6.224   4.748 -0.0564 -0.2474 -0.1637
 5893TIP3    H139094   3.357   6.148   4.807 -1.0831  0.1106  0.2673
 5893TIP3    H239095   3.369   6.186   4.660 -0.9514 -0.8936  0.0126
 5894TIP3   OH239096   0.655   1.355  12.234  0.1307  0.3777 -0.0149
 5894TIP3    H139097   0.635   1.440  12.273 -1.6940 -0.4127  0.8894
 5894TIP3    H239098   0.741   1.332  12.270 -0.4552  0.7376  1.6978
 5895TIP3   OH239099   2.699   2.880   0.051  0.5532  0.7331  0.8375
 5895TIP3    H139100   2.688   2.949  -0.014 -2.6151  2.0191  2.5013
 5895TIP3    H239101   2.686   2.798   0.003  1.3178  1.4379 -0.6162
 5896TIP3   OH239102   2.564   4.678  15.920 -0.1355 -0.2515 -0.1577
 5896TIP3    H139103   2.658   4.678  15.907 -0.2451  1.2633 -1.2394
 5896TIP3    H239104   2.527   4.681  15.831 -1.1311  1.5458  0.2712
 5897TIP3   OH239105   6.268   2.400   5.009  0.6003  0.3017 -0.1775
 5897TIP3    H139106   6.175   2.376   5.016  0.2445  1.2228 -1.4742
 5897TIP3    H239107   6.306   2.371   5.092 -1.3770  2.3166  1.5450
 5898TIP3   OH239108   0.092   0.058  15.973  0.3627 -0.2763  0.6864
 5898TIP3    H139109   0.120   0.081  15.885  0.8153 -1.1075  0.6041
 5898TIP3    H239110   0.001   0.087  15.978 -0.2009 -1.6796 -0.6372
 5899TIP3   OH239111   0.079   0.767   1.041 -0.3578  0.2614 -0.8584
 5899TIP3    H139112   0.129   0.704   1.093 -0.2920  1.2041  0.2635
 5899TIP3    H239113   0.023   0.811   1.105 -1.1651  0.6304 -1.7870
 5900TIP3   OH239114   1.815   1.261   0.308 -0.0062 -0.6400 -0.2728
 5900TIP3    H139115   1.873   1.258   0.232 -0.6975 -1.9800 -0.7762
 5900TIP3    H239116   1.743   1.318   0.281 -0.3105 -1.2083 -0.6837
 5901TIP3   OH239117   1.513   6.540  13.511 -0.5661  0.0325 -0.2629
 5901TIP3    H139118   1.430   6.566  13.552 -0.2295  1.0843 -0.2128
 5901TIP3    H239119   1.500   6.449  13.487 -0.7224 -0.6822  2.3030
 5902TIP3   OH239120   0.058   6.446  15.366  0.1208  0.1458 -0.4445
 5902TIP3    H139121  -0.003   6.378  15.393  0.2158  0.0905 -0.3715
 5902TIP3    H239122   0.050   6.448  15.270 -1.8665  1.8666 -0.3307
 5903TIP3   OH239123   0.855   0.928  10.639  0.0005  0.5553  0.2361
 5903TIP3    H139124   0.792   0.997  10.655  0.5100  1.2146 -0.5158
 5903TIP3    H239125   0.856   0.917  10.544  0.8219  0.3806  0.2495
 5904TIP3   OH239126   3.322   1.192  15.397  0.0219  0.1925 -0.6687
 5904TIP3    H139127   3.291   1.105  15.423  0.5163  0.7545  2.0092
 5904TIP3    H239128   3.410   1.198  15.433  0.6716  1.2215 -2.2900
 5905TIP3   OH239129   3.205   1.573  15.267  0.4935 -0.0926  0.4424
 5905TIP3    H139130   3.162   1.506  15.320  0.5515 -0.2709  0.2640
 5905TIP3    H239131   3.197   1.542  15.177 -0.7752  0.8628  0.2009
 5906TIP3   OH239132   3.507   4.769  11.335 -0.3389 -0.5749 -0.0497
 5906TIP3    H139133   3.544   4.785  11.421 -0.0424  1.9702 -0.5624
 5906TIP3    H239134   3.477   4.678  11.337 -0.1710 -0.6292  2.6363
 5907TIP3   OH239135   2.374   3.396  12.924 -0.4942 -0.2156  0.0468
 5907TIP3    H139136   2.369   3.484  12.887  1.1638 -0.9218 -2.0815
 5907TIP3    H239137   2.464   3.368  12.906 -0.7878 -2.1043  1.2668
 5908TIP3   OH239138   2.164   4.907   0.549 -0.2428 -0.1636 -0.1707
 5908TIP3    H139139   2.143   4.849   0.623  1.1935 -0.5128 -0.0084
 5908TIP3    H239140   2.120   4.866   0.474  1.7543 -2.2629 -0.3202
 5909TIP3   OH239141   3.067   0.929   1.766 -0.0520 -0.2126 -0.0531
 5909TIP3    H139142   3.029   0.842   1.756 -0.1014 -0.0835 -1.0322
 5909TIP3    H239143   3.159   0.913   1.785  0.4975 -0.4864 -2.5912
 5910TIP3   OH239144   2.398   0.500  10.527  0.0370 -0.1124  0.1316
 5910TIP3    H139145   2.390   0.408  10.553  3.1974 -0.5497 -0.0506
 5910TIP3    H239146   2.484   0.526  10.560 -1.3117  3.2474  1.3988
 5911TIP3   OH239147   1.149   5.406   0.478  0.3447  0.2092  0.1041
 5911TIP3    H139148   1.058   5.425   0.498 -0.0163  1.6413 -2.5406
 5911TIP3    H239149   1.150   5.314   0.450 -0.1538  0.0298  0.6585
 5912TIP3   OH239150   2.560   4.399   0.410 -0.5813  0.0484 -0.1090
 5912TIP3    H139151   2.631   4.446   0.366  0.8818 -0.1196  1.9271
 5912TIP3    H239152   2.489   4.464   0.417  0.6535  1.3394  0.8540
 5913TIP3   OH239153   3.506   6.766   1.299 -0.0835 -0.1037 -0.0148
 5913TIP3    H139154   3.464   6.738   1.381 -1.9491  2.5525  0.0998
 5913TIP3    H239155   3.491   6.694   1.238 -1.5757 -0.8099  1.1089
 5914TIP3   OH239156   4.909   1.253  12.862 -0.4861 -0.3336 -0.3449
 5914TIP3    H139157   5.004   1.262  12.871 -0.4825  1.9587 -1.7284
 5914TIP3    H239158   4.884   1.187  12.927  2.0743 -1.2600 -0.2104
 5915TIP3   OH239159   2.286   0.869  13.502  0.2292  0.4568  0.6415
 5915TIP3    H139160   2.264   0.782  13.470 -0.5333  1.2665 -1.2140
 5915TIP3    H239161   2.362   0.856  13.558  1.0637 -1.2446 -0.7809
 5916TIP3   OH239162   2.531   4.628  14.127 -0.0632 -0.2806  0.1824
 5916TIP3    H139163   2.564   4.538  14.133  1.0032  0.1272  0.7805
 5916TIP3    H239164   2.606   4.682  14.152  0.0382  0.8942 -2.2983
 5917TIP3   OH239165   3.768   2.343   4.208  0.7440 -0.7466  0.0273
 5917TIP3    H139166   3.779   2.428   4.250 -0.4443 -0.7732  0.4110
 5917TIP3    H239167   3.761   2.281   4.281  1.5158 -1.1745 -0.2456
 5918TIP3   OH239168   1.608   2.483  11.389  0.6389  0.2972  0.4504
 5918TIP3    H139169   1.669   2.412  11.407 -0.3910 -1.3645 -2.0138
 5918TIP3    H239170   1.583   2.470  11.297 -1.1954  2.6281  0.5212
 5919TIP3   OH239171   5.086   2.554  11.492 -0.1856  0.0004  0.2845
 5919TIP3    H139172   5.165   2.570  11.543  0.4361 -0.6848 -0.4459
 5919TIP3    H239173   5.047   2.476  11.532 -0.7589  0.6086  0.9409
 5920TIP3   OH239174   2.219   1.646  12.577 -0.3899 -0.0087 -0.3220
 5920TIP3    H139175   2.172   1.579  12.528 -1.8553  0.2485  0.6666
 5920TIP3    H239176   2.251   1.707  12.511 -0.7162 -0.6483 -1.0807
 5921TIP3   OH239177   6.140   2.670   2.337  0.4060 -0.1363  0.3596
 5921TIP3    H139178   6.114   2.727   2.409 -0.2534 -1.2298  1.0136
 5921TIP3    H239179   6.090   2.702   2.262  0.7877  0.7519  0.4634
 5922TIP3   OH239180   4.236   1.011   2.902  0.5245 -0.5371 -0.3307
 5922TIP3    H139181   4.152   1.017   2.857  0.6722  0.1495 -0.5367
 5922TIP3    H239182   4.219   1.046   2.989  0.4180 -1.1289 -0.1147
 5923TIP3   OH239183   5.899   2.472  15.698 -0.1516 -0.3666 -0.5477
 5923TIP3    H139184   5.886   2.537  15.629  0.7028  1.7231  1.1730
 5923TIP3    H239185   5.817   2.469  15.746 -0.2370 -0.6925 -0.7073
 5924TIP3   OH239186   2.928   0.195   3.047  0.0336 -0.1204  0.9847
 5924TIP3    H139187   2.911   0.276   3.094  0.8368  0.8769 -0.3777
 5924TIP3    H239188   3.005   0.157   3.089 -0.3581 -0.2022  1.6370
 5925TIP3   OH239189   4.708   6.044   3.707 -0.0655  0.1846 -0.3659
 5925TIP3    H139190   4.657   5.998   3.774  0.4792  1.5478  1.0179
 5925TIP3    H239191   4.651   6.043   3.630 -1.0076 -0.7715  0.3059
 5926TIP3   OH239192   0.383   2.556  12.593 -0.2722  0.6805  0.0590
 5926TIP3    H139193   0.354   2.611  12.666 -0.4183  0.7599 -0.0563
 5926TIP3    H239194   0.301   2.530  12.550 -0.2622 -0.3828  0.6579
 5927TIP3   OH239195   1.580   0.208   5.040  0.1017 -0.3496  0.0343
 5927TIP3    H139196   1.531   0.150   5.098  0.1975  0.0166  0.4885
 5927TIP3    H239197   1.602   0.284   5.094 -0.9799  0.6338 -0.8494
 5928TIP3   OH239198   1.473   6.614  15.584  0.1305 -0.7701  0.1202
 5928TIP3    H139199   1.474   6.708  15.601  0.2296 -0.6456 -0.5668
 5928TIP3    H239200   1.537   6.602  15.514 -0.3414 -1.2705 -0.2228
 5929TIP3   OH239201   3.015   2.731   1.836  0.0497 -0.1773  0.5904
 5929TIP3    H139202   3.007   2.713   1.930 -1.0022  0.7322  0.6948
 5929TIP3    H239203   2.932   2.700   1.799  0.7903 -1.2950 -0.1838
 5930TIP3   OH239204   5.746   0.718  16.675 -0.4786 -0.5136 -0.4423
 5930TIP3    H139205   5.773   0.707  16.766  0.5900 -0.8037 -0.7786
 5930TIP3    H239206   5.828   0.730  16.627 -1.1171  2.3143 -1.0152
 5931TIP3   OH239207   3.103   0.681  15.521 -0.2203 -0.1654  1.1129
 5931TIP3    H139208   3.016   0.720  15.515 -0.4052 -0.7174 -0.0401
 5931TIP3    H239209   3.132   0.702  15.610 -0.4856  2.1779  0.7221
 5932TIP3   OH239210   0.332   4.302   5.655 -0.2146  0.0072  0.0017
 5932TIP3    H139211   0.427   4.313   5.655 -0.2043 -0.0095 -0.9390
 5932TIP3    H239212   0.307   4.304   5.563 -0.9624 -1.4504  0.1424
 5933TIP3   OH239213   3.680   5.397   2.975  0.5861 -0.0782  0.3723
 5933TIP3    H139214   3.586   5.406   2.959  0.5156 -2.4916 -1.1694
 5933TIP3    H239215   3.688   5.396   3.070 -1.0769 -0.7193  0.5505
 5934TIP3   OH239216   1.929   2.183  10.911  0.0743 -0.3119 -0.8441
 5934TIP3    H139217   1.974   2.162  10.993  0.6826  1.2121 -0.7623
 5934TIP3    H239218   1.838   2.158  10.927 -0.3880  2.3226  1.2856
 5935TIP3   OH239219   0.321   1.885   0.696  0.4031  0.3878 -0.4282
 5935TIP3    H139220   0.288   1.975   0.695 -1.4346 -0.2209  0.3514
 5935TIP3    H239221   0.320   1.861   0.789 -1.0661 -1.0588 -0.7788
 5936TIP3   OH239222   6.559   0.268  12.917 -0.5542 -0.5035  0.6185
 5936TIP3    H139223   6.634   0.208  12.915 -1.2303 -1.4787  2.2657
 5936TIP3    H239224   6.579   0.328  12.989 -2.4942 -2.5098  3.0525
 5937TIP3   OH239225   0.121   6.451   2.238 -0.0491 -0.2314  0.0133
 5937TIP3    H139226   0.180   6.525   2.227 -0.6180  0.7141  2.5197
 5937TIP3    H239227   0.034   6.490   2.247 -0.2285 -0.9953  2.5485
 5938TIP3   OH239228   0.030   6.001   6.522  0.1165 -0.1116  0.1531
 5938TIP3    H139229   0.092   6.052   6.470  0.8701 -0.6366  0.5126
 5938TIP3    H239230   0.085   5.947   6.579 -0.6789  0.0140  1.0782
 5939TIP3   OH239231   5.484   4.947   4.943 -0.2744  0.1111 -0.0304
 5939TIP3    H139232   5.483   4.882   4.873  1.4096  1.4941 -1.4664
 5939TIP3    H239233   5.421   5.014   4.915  1.0313  1.0979 -0.7560
 5940TIP3   OH239234   5.661   0.668   2.646  0.6584  0.3376  0.2880
 5940TIP3    H139235   5.715   0.712   2.712 -1.9149  1.5454  1.7336
 5940TIP3    H239236   5.603   0.737   2.613 -1.5150 -1.2956  0.4723
 5941TIP3   OH239237   4.277   6.747  14.939  0.0803  0.2224 -0.5823
 5941TIP3    H139238   4.277   6.838  14.912 -1.6573  0.6479  0.7238
 5941TIP3    H239239   4.195   6.735  14.987  1.0129 -1.5909  0.7129
 5942TIP3   OH239240   1.219   0.463   4.032  0.0279 -0.0762  0.5141
 5942TIP3    H139241   1.131   0.470   4.069 -0.1138  0.4699  0.0798
 5942TIP3    H239242   1.211   0.394   3.965  0.5301 -1.8329  2.1682
 5943TIP3   OH239243   5.114   1.513   0.029  0.3158  0.0755 -0.5407
 5943TIP3    H139244   5.206   1.486   0.036 -0.3767 -2.0881  2.2671
 5943TIP3    H239245   5.114   1.605   0.054  1.6061 -0.2714  0.9167
 5944TIP3   OH239246   2.610   1.461   4.349 -0.2580 -0.1198 -0.2227
 5944TIP3    H139247   2.543   1.393   4.346 -0.2019 -0.1395 -1.7531
 5944TIP3    H239248   2.641   1.461   4.440 -0.9365 -1.4621  0.0246
 5945TIP3   OH239249   5.477   0.498   2.029  0.3386 -0.2942 -0.2491
 5945TIP3    H139250   5.460   0.512   1.936  0.4954  1.0779 -0.0889
 5945TIP3    H239251   5.570   0.476   2.033  0.8242  1.6178 -0.2593
 5946TIP3   OH239252   4.725   6.787   2.408  0.4174 -0.8572  0.5892
 5946TIP3    H139253   4.812   6.759   2.436  1.2384 -0.4575 -1.3688
 5946TIP3    H239254   4.727   6.778   2.313 -1.3662  0.0945  0.4224
 5947TIP3   OH239255   0.861   2.988  12.866 -0.1320 -0.5706  0.0153
 5947TIP3    H139256   0.844   3.079  12.889  2.1705 -0.0933  0.0915
 5947TIP3    H239257   0.779   2.956  12.829 -0.3265  2.3162 -2.4104
 5948TIP3   OH239258   1.403   2.968  12.450  0.3633  0.1988  0.2340
 5948TIP3    H139259   1.444   2.939  12.368  0.4502 -1.8500  0.9431
 5948TIP3    H239260   1.310   2.950  12.437  0.2148  0.9995  0.1536
 5949TIP3   OH239261   2.112   0.961  12.818  0.1225  0.6868 -0.3451
 5949TIP3    H139262   2.101   1.040  12.869 -0.2781  0.4053  0.0124
 5949TIP3    H239263   2.121   0.891  12.882 -0.9277  0.2579 -0.6406
 5950TIP3   OH239264   0.642   5.158   1.287  0.0488  0.3468 -0.1380
 5950TIP3    H139265   0.579   5.195   1.349  0.6860 -0.3042  0.9456
 5950TIP3    H239266   0.598   5.081   1.251 -0.5654  1.0848 -0.9820
 5951TIP3   OH239267   4.332   1.637   4.398  0.3001  0.2353 -0.0249
 5951TIP3    H139268   4.391   1.668   4.466 -0.6410  0.6922  0.6161
 5951TIP3    H239269   4.308   1.715   4.349  0.0278  0.0956 -0.1201
 5952TIP3   OH239270   3.079   4.959   0.573  0.3212  0.2819 -0.2108
 5952TIP3    H139271   3.160   4.960   0.522  0.2701  0.0826 -0.2995
 5952TIP3    H239272   3.075   4.870   0.608  1.0634  0.8028  1.2790
 5953TIP3   OH239273   1.955   6.015   1.281  0.2811  0.2565 -0.0735
 5953TIP3    H139274   1.976   5.928   1.316 -1.7251  0.4589  1.8302
 5953TIP3    H239275   1.901   5.997   1.204 -1.1469 -0.2231  1.0107
 5954TIP3   OH239276   2.954   0.452  11.534 -0.5814  0.0605  0.2242
 5954TIP3    H139277   2.928   0.381  11.593  0.2843  0.4621  1.1267
 5954TIP3    H239278   2.871   0.485  11.498 -1.0308 -1.0115  0.2490
 5955TIP3   OH239279   1.858   3.400   0.929 -0.6358 -0.2595  0.0461
 5955TIP3    H139280   1.799   3.467   0.895 -1.5534 -0.7761  0.6082
 5955TIP3    H239281   1.885   3.351   0.851  0.6258  1.1741 -0.4787
 5956TIP3   OH239282   5.211   0.376  13.456 -0.1845 -0.1304  0.2620
 5956TIP3    H139283   5.178   0.339  13.537 -0.0630 -0.6630  0.0755
 5956TIP3    H239284   5.285   0.319  13.432  1.7857  1.8051  1.4002
 5957TIP3   OH239285   0.679   3.563   4.813  0.2694 -0.3761 -0.3393
 5957TIP3    H139286   0.605   3.561   4.874  0.6867  0.7220  0.2280
 5957TIP3    H239287   0.652   3.624   4.745  0.6511  0.0452 -0.1191
 5958TIP3   OH239288   6.435   6.676   0.144 -0.3742  0.2193  0.5210
 5958TIP3    H139289   6.406   6.597   0.099 -1.5550 -0.2678  2.0408
 5958TIP3    H239290   6.415   6.747   0.083 -0.7251 -0.5206 -0.2446
 5959TIP3   OH239291   5.923   2.416   6.066  0.0825  0.5395  0.2089
 5959TIP3    H139292   5.974   2.443   5.989 -0.4309  0.1087 -0.2932
 5959TIP3    H239293   5.925   2.320   6.062 -2.2063  0.4834 -0.8039
 5960TIP3   OH239294   2.030   1.319   5.027 -0.1885 -0.6625 -0.1239
 5960TIP3    H139295   1.999   1.267   5.101  0.0795 -1.0655 -0.2971
 5960TIP3    H239296   2.091   1.262   4.981  1.3078  0.3284  0.5489
 5961TIP3   OH239297   0.101   6.644  13.790  0.0156  0.4776 -0.9807
 5961TIP3    H139298   0.188   6.667  13.825  0.2937  0.3198 -1.5627
 5961TIP3    H239299   0.079   6.561  13.834  2.0287 -1.7735 -3.8659
 5962TIP3   OH239300   6.512   3.288   4.597  0.4024  0.1516  0.2264
 5962TIP3    H139301   6.515   3.202   4.556  0.7617  0.3882 -0.2554
 5962TIP3    H239302   6.506   3.270   4.691 -0.4750 -0.3948  0.0768
 5963TIP3   OH239303   4.953   5.213  11.638  0.1029 -0.4619  0.1914
 5963TIP3    H139304   4.881   5.207  11.575 -0.6273 -0.0544  0.9583
 5963TIP3    H239305   4.945   5.133  11.691 -0.8391  0.3484  1.3352
 5964TIP3   OH239306   2.856   4.206   1.598 -0.0332 -0.1349  0.1412
 5964TIP3    H139307   2.848   4.126   1.650 -0.4653 -1.0079 -1.2239
 5964TIP3    H239308   2.892   4.271   1.659  0.5861 -1.4371  1.2030
 5965TIP3   OH239309   6.291   0.718  11.813  0.3718 -0.0998  0.1448
 5965TIP3    H139310   6.363   0.654  11.809  0.2822 -0.1564 -0.8464
 5965TIP3    H239311   6.254   0.718  11.724 -1.0523 -0.2982  0.7128
 5966TIP3   OH239312   5.230   2.249  12.059 -0.6676  0.2084  0.0567
 5966TIP3    H139313   5.247   2.309  12.132 -0.7828  1.1867 -0.6977
 5966TIP3    H239314   5.224   2.163  12.100  0.5399  0.5583  1.0497
 5967TIP3   OH239315   3.961   4.656  14.876 -0.0523  0.0378 -0.4077
 5967TIP3    H139316   3.894   4.703  14.828  0.7222  0.4345 -1.1385
 5967TIP3    H239317   3.980   4.579  14.823  1.1635  0.7339 -1.0388
 5968TIP3   OH239318   4.480   3.491  16.654 -0.2588  0.1764 -0.3296
 5968TIP3    H139319   4.424   3.554  16.608 -0.5407 -0.9346 -1.5809
 5968TIP3    H239320   4.423   3.415  16.669  1.0816 -1.3587 -2.4649
 5969TIP3   OH239321   3.286   1.280  14.007 -0.3067  0.2392  0.0549
 5969TIP3    H139322   3.268   1.303  14.098  0.3981 -0.6538  0.4408
 5969TIP3    H239323   3.298   1.185  14.008  2.2255  0.4764 -0.5032
 5970TIP3   OH239324   1.443   2.633   3.792  0.2659 -0.6790 -0.1345
 5970TIP3    H139325   1.489   2.557   3.828  1.3647 -0.0573 -0.1813
 5970TIP3    H239326   1.351   2.608   3.793  0.6359 -2.1834 -0.5310
 5971TIP3   OH239327   5.492   6.316  14.553 -0.1855 -0.0743 -0.4794
 5971TIP3    H139328   5.484   6.410  14.542  0.6382  0.2616  1.3694
 5971TIP3    H239329   5.540   6.305  14.636 -1.2846 -2.1079 -0.0328
 5972TIP3   OH239330   5.249   2.029   2.682 -1.0277 -0.0958 -0.5890
 5972TIP3    H139331   5.296   1.947   2.666 -0.4969  0.4065 -1.7505
 5972TIP3    H239332   5.244   2.070   2.596 -0.6508  1.4261  0.0770
 5973TIP3   OH239333   0.832   5.099  14.916 -0.2840 -0.0478  0.2735
 5973TIP3    H139334   0.907   5.133  14.866 -0.4886 -0.1426 -0.0947
 5973TIP3    H239335   0.791   5.177  14.953 -0.1646  0.0253  0.2528
 5974TIP3   OH239336   0.802   4.969   2.374 -0.1033  0.1988  0.5242
 5974TIP3    H139337   0.866   4.986   2.443  0.3920 -2.4327  0.8453
 5974TIP3    H239338   0.738   5.040   2.382  0.6277  0.6916  2.8699
 5975TIP3   OH239339   0.681   4.323  17.108 -0.5194  0.1556 -0.4497
 5975TIP3    H139340   0.773   4.296  17.111 -0.5364  0.1775  1.2636
 5975TIP3    H239341   0.671   4.363  17.022  0.4820 -1.8838 -1.6056
 5976TIP3   OH239342   2.509   0.143  16.021 -0.1613  0.0081  0.1861
 5976TIP3    H139343   2.486   0.152  15.928  0.1378  1.9873  0.2607
 5976TIP3    H239344   2.604   0.128  16.020 -0.0823  0.4626  0.1542
 5977TIP3   OH239345   5.020   1.829  17.203  0.4753 -0.2722  0.1240
 5977TIP3    H139346   5.030   1.818  17.108  0.4185  0.8636 -0.0194
 5977TIP3    H239347   4.926   1.829  17.218  0.4601  0.4971  0.0564
 5978TIP3   OH239348   3.091   0.472  12.027 -0.5819 -0.6661 -0.1116
 5978TIP3    H139349   3.033   0.547  12.041 -1.8376 -1.2605 -1.7446
 5978TIP3    H239350   3.166   0.509  11.980 -0.2893 -0.1325  0.7507
 5979TIP3   OH239351   3.734   6.157   0.604 -0.5395 -0.4352 -0.1851
 5979TIP3    H139352   3.665   6.098   0.573  0.2330 -2.0516  1.0717
 5979TIP3    H239353   3.814   6.105   0.600  0.1402  0.4661  1.1455
 5980TIP3   OH239354   1.813   3.058   1.833 -0.1117 -0.0167 -0.2676
 5980TIP3    H139355   1.888   2.999   1.824 -0.4099 -0.5400  0.5681
 5980TIP3    H239356   1.751   3.028   1.766 -2.1272 -3.5909  2.8352
 5981TIP3   OH239357   2.636   1.264   2.437 -0.1284  0.4477 -0.3279
 5981TIP3    H139358   2.729   1.239   2.432  0.4453  2.2592  0.4704
 5981TIP3    H239359   2.591   1.183   2.461  1.2973 -0.3796 -0.3188
 5982TIP3   OH239360   1.204   0.610   3.594  0.1594 -0.2735 -0.4497
 5982TIP3    H139361   1.189   0.605   3.689  2.5074  0.9311  0.0617
 5982TIP3    H239362   1.150   0.684   3.566  1.1003  0.7850  0.3964
 5983TIP3   OH239363   3.612   4.586  13.537 -0.3338  0.4256 -0.0115
 5983TIP3    H139364   3.517   4.596  13.530 -0.6616 -1.6459  0.6544
 5983TIP3    H239365   3.628   4.493  13.517  1.6297  0.8552 -0.6997
 5984TIP3   OH239366   0.073   3.549   3.380  0.0456  0.0389 -0.2219
 5984TIP3    H139367  -0.021   3.540   3.393  0.2510  0.0787  1.4172
 5984TIP3    H239368   0.106   3.458   3.380  0.3732  0.0642  2.5261
 5985TIP3   OH239369   2.083   0.893  12.270  0.1694 -0.2954 -0.1388
 5985TIP3    H139370   2.034   0.945  12.334  0.6184 -1.4029  1.1563
 5985TIP3    H239371   2.169   0.934  12.267  1.1136 -1.8763  2.2115
 5986TIP3   OH239372   1.441   0.473  14.407  0.1431 -0.9246  0.0869
 5986TIP3    H139373   1.436   0.480  14.312  1.1012 -3.4220 -0.2174
 5986TIP3    H239374   1.529   0.504  14.429 -0.5019  0.8417  0.3615
 5987TIP3   OH239375   0.171   3.047  14.239  0.1864 -0.1479  0.1926
 5987TIP3    H139376   0.209   3.133  14.222  2.8971 -1.1329  0.8284
 5987TIP3    H239377   0.076   3.063  14.241  0.5282  2.5624 -0.9385
 5988TIP3   OH239378   5.292   1.267  16.692  0.2498  0.6124  0.1499
 5988TIP3    H139379   5.305   1.351  16.648  3.2327 -0.4739 -1.3177
 5988TIP3    H239380   5.355   1.209  16.651 -0.4951 -1.9319  2.3369
 5989TIP3   OH239381   1.323   5.758  16.783  0.3647 -0.1480  0.1116
 5989TIP3    H139382   1.348   5.718  16.866  0.5016 -1.0374 -0.3523
 5989TIP3    H239383   1.301   5.685  16.726 -0.6108  0.4875 -0.3613
 5990TIP3   OH239384   3.560   5.661  14.699 -0.3560 -0.3925 -0.2916
 5990TIP3    H139385   3.602   5.642  14.783 -1.5088  0.5161  0.5216
 5990TIP3    H239386   3.588   5.589  14.642  3.0903  0.6715 -0.1484
 5991TIP3   OH239387   4.011   1.404   3.962  0.4764  0.3213 -0.6402
 5991TIP3    H139388   4.018   1.421   3.868 -2.2316  1.4119 -0.7321
 5991TIP3    H239389   4.060   1.476   4.003  1.2625  0.1089 -1.1698
 5992TIP3   OH239390   2.368   3.262   2.826 -0.2222 -0.0290  0.0200
 5992TIP3    H139391   2.311   3.335   2.851 -0.0075  0.5189 -1.0331
 5992TIP3    H239392   2.382   3.274   2.732  0.8400 -0.7130  0.0768
 5993TIP3   OH239393   0.722   2.716  11.431  0.2269  0.2375 -0.1874
 5993TIP3    H139394   0.802   2.678  11.470 -0.2593  0.0081  0.6214
 5993TIP3    H239395   0.665   2.640  11.418 -0.4061  0.5741  0.5872
 5994TIP3   OH239396   0.334   1.762  16.251  0.2179  0.2705 -0.3980
 5994TIP3    H139397   0.250   1.807  16.251  0.0256 -0.0653 -1.0916
 5994TIP3    H239398   0.397   1.829  16.279  0.0201  1.1588 -1.9291
 5995TIP3   OH239399   3.454   0.607   4.071 -0.3836 -0.2592  0.1213
 5995TIP3    H139400   3.419   0.655   3.995 -2.9432  2.4785  2.7099
 5995TIP3    H239401   3.517   0.668   4.110  0.3657 -1.3160  0.5930
 5996TIP3   OH239402   4.474   5.041   6.916  0.0169 -0.1246  0.6445
 5996TIP3    H139403   4.450   5.026   7.008  0.4952  1.2883  1.0241
 5996TIP3    H239404   4.530   4.967   6.894  1.3550  0.3894  2.0712
 5997TIP3   OH239405   2.727   5.873  13.555 -0.2779 -0.3154 -0.2958
 5997TIP3    H139406   2.734   5.930  13.631 -1.2160 -0.9043  0.2640
 5997TIP3    H239407   2.688   5.928  13.487 -0.1038  0.0257 -0.1182
 5998TIP3   OH239408   4.902   1.401   5.561  0.4214 -0.4859  0.0291
 5998TIP3    H139409   4.997   1.409   5.574  0.6220 -1.6631 -0.5869
 5998TIP3    H239410   4.882   1.465   5.493  0.5060  0.8216  1.1846
 5999TIP3   OH239411   6.396   0.334   5.825  0.7998 -0.2714 -0.1565
 5999TIP3    H139412   6.386   0.361   5.916 -1.1819  0.8433 -0.6416
 5999TIP3    H239413   6.399   0.416   5.775  2.6915 -0.8364 -1.0723
 6000TIP3   OH239414   1.932   1.643   1.710 -0.4312  0.5496 -0.2868
 6000TIP3    H139415   1.983   1.604   1.781 -1.5680  0.8947  0.7380
 6000TIP3    H239416   1.845   1.659   1.747 -0.5039  2.5311 -1.1602
 6001TIP3   OH239417   6.628   2.049   2.170  0.4787  0.5037  0.7446
 6001TIP3    H139418   6.636   2.029   2.077  0.0964  0.2109  0.7682
 6001TIP3    H239419   6.544   2.094   2.178  0.1710 -0.1059  1.0401
 6002TIP3   OH239420   6.770   1.337  12.611  0.3558  1.0006 -0.8337
 6002TIP3    H139421   6.797   1.261  12.559  0.0930 -0.1670  0.7007
 6002TIP3    H239422   6.676   1.328  12.621  0.4902  0.8403  0.4012
 6003TIP3   OH239423   2.013   0.905  11.730  0.2997 -0.8258  0.0136
 6003TIP3    H139424   2.055   0.899  11.644 -1.2464  0.3330 -0.8646
 6003TIP3    H239425   1.928   0.945  11.713 -0.6569 -1.9081  1.9043
 6004TIP3   OH239426   0.938   4.681  12.206  0.3515  0.4576 -0.1129
 6004TIP3    H139427   0.959   4.702  12.297 -0.4967  0.9365 -0.0204
 6004TIP3    H239428   0.920   4.766  12.166 -0.6715  0.1336 -0.3696
 6005TIP3   OH239429   5.053   5.013   1.286  0.1040 -0.2349 -0.0066
 6005TIP3    H139430   5.042   4.918   1.278 -0.1622 -0.0709 -2.1206
 6005TIP3    H239431   5.094   5.025   1.371 -1.3300 -2.1212  1.0323
 6006TIP3   OH239432   2.935   1.912   4.955  0.0724  0.4551 -0.0246
 6006TIP3    H139433   2.970   1.873   5.035 -0.9191  0.3643  0.3908
 6006TIP3    H239434   2.944   2.006   4.968  0.1700  0.4312  0.0793
 6007TIP3   OH239435   3.082   1.471  12.595 -0.1389  0.7659 -0.2733
 6007TIP3    H139436   3.053   1.517  12.517 -1.2107  0.4240 -0.0891
 6007TIP3    H239437   3.006   1.472  12.654  1.2344  2.7700  1.6200
 6008TIP3   OH239438   6.522   1.006  10.776 -0.3673  0.4121 -0.1767
 6008TIP3    H139439   6.449   1.067  10.787  1.8762  3.2387  0.4560
 6008TIP3    H239440   6.594   1.061  10.745  1.2664 -2.4012 -1.7927
 6009TIP3   OH239441   1.907   1.585   1.376 -0.1072 -0.9223  0.4617
 6009TIP3    H139442   1.947   1.568   1.291 -1.5786 -0.2293 -0.4088
 6009TIP3    H239443   1.968   1.547   1.439  0.7954 -1.8627 -0.9181
 6010TIP3   OH239444   4.986   3.446   1.302  0.1229  0.7001 -0.0258
 6010TIP3    H139445   4.966   3.424   1.211 -0.8545  0.2466  0.2826
 6010TIP3    H239446   4.900   3.456   1.344  0.5520  1.3758  0.7430
 6011TIP3   OH239447   3.875   4.232  12.470  0.4655 -0.5206  0.0104
 6011TIP3    H139448   3.816   4.157  12.476  1.5102 -1.2419  2.0007
 6011TIP3    H239449   3.955   4.196  12.431  0.5973 -0.1813 -0.0356
 6012TIP3   OH239450   3.052   0.784   5.066 -0.2054  0.4134  0.2470
 6012TIP3    H139451   3.068   0.804   5.158  0.3469  2.0346 -0.1823
 6012TIP3    H239452   3.063   0.867   5.020 -1.4499 -0.1514 -1.1772
 6013TIP3   OH239453   1.855   5.886  16.414 -0.1250  0.5389  0.5595
 6013TIP3    H139454   1.936   5.889  16.364 -0.4244  1.8332  0.1142
 6013TIP3    H239455   1.881   5.862  16.503  0.4091 -1.9968 -0.1804
 6014TIP3   OH239456   6.454   1.317   1.849 -0.7858  0.9044  0.4081
 6014TIP3    H139457   6.397   1.354   1.782 -1.1139 -0.4936 -0.1270
 6014TIP3    H239458   6.543   1.332   1.815 -0.9095 -3.0219 -2.3815
 6015TIP3   OH239459   6.345   6.231  15.206 -0.6535 -0.2843 -0.0543
 6015TIP3    H139460   6.397   6.151  15.216  1.4037  0.7894 -1.3359
 6015TIP3    H239461   6.385   6.293  15.267  0.3445  0.8721 -1.7902
 6016TIP3   OH239462   2.810   6.455   3.782  0.5765  0.0713 -0.2082
 6016TIP3    H139463   2.797   6.368   3.820 -0.0759  0.0770 -0.4045
 6016TIP3    H239464   2.819   6.439   3.688 -0.4787  0.2967 -0.3535
 6017TIP3   OH239465   6.700   2.859  11.454 -0.1428  0.0974  0.1463
 6017TIP3    H139466   6.752   2.851  11.534  1.8182 -0.3066 -1.0721
 6017TIP3    H239467   6.764   2.887  11.388 -1.6171  0.0544 -1.3493
 6018TIP3   OH239468   2.380   2.542  14.083  0.7685  0.4757 -0.7484
 6018TIP3    H139469   2.327   2.612  14.120  2.2260  0.6483  1.1356
 6018TIP3    H239470   2.439   2.586  14.022  1.1375  0.8020 -0.1683
 6019TIP3   OH239471   5.053   1.034  11.010 -0.5270  0.5341 -0.2284
 6019TIP3    H139472   5.125   0.980  11.041 -1.2028 -0.3520 -0.1660
 6019TIP3    H239473   5.086   1.124  11.015  0.2373  0.2120  0.6683
 6020TIP3   OH239474   3.720   1.769   4.233 -0.0557 -0.4757  0.6087
 6020TIP3    H139475   3.814   1.761   4.249 -0.4170 -2.0274  2.1367
 6020TIP3    H239476   3.707   1.863   4.215  1.7253 -0.1904  0.6683
 6021TIP3   OH239477   4.426   0.121  16.437  0.0067  0.1713 -0.3937
 6021TIP3    H139478   4.464   0.047  16.390 -0.5370  0.7660 -1.8150
 6021TIP3    H239479   4.492   0.190  16.430  0.4242 -0.0876  0.7523
 6022TIP3   OH239480   2.335   5.036  12.631  0.6584  0.2664  0.2747
 6022TIP3    H139481   2.382   5.087  12.565 -0.4448  1.4938  0.3866
 6022TIP3    H239482   2.305   5.102  12.694 -2.1148 -0.2700 -0.3549
 6023TIP3   OH239483   3.594   1.667   1.727  0.1243 -0.5553  0.0349
 6023TIP3    H139484   3.633   1.688   1.642  0.7237  0.8514  0.6198
 6023TIP3    H239485   3.668   1.657   1.786 -0.2835 -1.6694  0.3760
 6024TIP3   OH239486   1.995   4.722  16.524 -0.0941 -0.2771 -0.0249
 6024TIP3    H139487   1.956   4.800  16.564 -0.1398  0.2471 -1.0501
 6024TIP3    H239488   1.940   4.650  16.553 -1.5279  0.3812 -1.0139
 6025TIP3   OH239489   1.686   2.995  14.964 -0.0552 -0.3557  0.5189
 6025TIP3    H139490   1.735   2.920  14.929  1.5535  2.0180 -2.7780
 6025TIP3    H239491   1.753   3.059  14.988 -1.4302  1.0489  0.7957
 6026TIP3   OH239492   4.928   3.994  13.111 -0.9765 -0.1677  0.0763
 6026TIP3    H139493   4.954   3.975  13.201  0.4942 -3.1407 -0.8349
 6026TIP3    H239494   4.835   3.973  13.108 -0.3773 -3.2928  0.2561
 6027TIP3   OH239495   1.245   4.885  12.261 -0.2491 -0.1756 -0.1314
 6027TIP3    H139496   1.262   4.847  12.348 -0.8987  0.0315  0.0897
 6027TIP3    H239497   1.161   4.930  12.271  1.3077  2.9761  0.1811
 6028TIP3   OH239498   0.954   5.745   3.668  0.1465 -0.5939  0.1528
 6028TIP3    H139499   0.912   5.683   3.728  1.0343 -0.9237  0.4575
 6028TIP3    H239500   0.904   5.826   3.678  0.7308 -0.4011  1.9489
 6029TIP3   OH239501   4.025   5.066  16.137 -0.0274 -0.1505 -0.1168
 6029TIP3    H139502   3.971   5.003  16.091 -1.6757 -0.3959  1.9879
 6029TIP3    H239503   4.078   5.013  16.197 -0.5381  0.3420  0.7948
 6030TIP3   OH239504   2.195   0.435   5.187  0.0754 -0.3490 -0.0590
 6030TIP3    H139505   2.287   0.443   5.161  0.1647 -1.1253  0.0008
 6030TIP3    H239506   2.196   0.370   5.258 -0.6015 -0.8784 -0.5319
 6031TIP3   OH239507   3.041   3.754  13.222  0.0569 -0.3626  0.3636
 6031TIP3    H139508   3.106   3.698  13.179  0.0437  1.9524 -3.0910
 6031TIP3    H239509   2.960   3.738  13.173 -0.6519  0.5447  1.2088
 6032TIP3   OH239510   2.954   6.778   4.894 -0.3127  0.4003  0.2583
 6032TIP3    H139511   2.916   6.864   4.877 -0.3689  0.2938 -0.1646
 6032TIP3    H239512   3.004   6.789   4.975  0.7059  1.1690 -0.4456
 6033TIP3   OH239513   0.878   6.433  11.601 -0.4130  0.2322 -0.7632
 6033TIP3    H139514   0.936   6.413  11.527  0.2622 -0.1806 -0.1395
 6033TIP3    H239515   0.922   6.394  11.677  0.5751  3.3615  0.4073
 6034TIP3   OH239516   3.146   4.693  11.104  0.0210 -0.0177 -0.1443
 6034TIP3    H139517   3.222   4.747  11.080  1.0035 -0.2473  2.1891
 6034TIP3    H239518   3.141   4.628  11.034  0.6825  1.2546 -1.4334
 6035TIP3   OH239519   0.933   5.016   3.776 -0.4387 -0.2378  0.1418
 6035TIP3    H139520   0.925   4.922   3.795 -1.7339 -0.0894  0.3995
 6035TIP3    H239521   0.918   5.059   3.860  1.6888  0.1830  0.3589
 6036TIP3   OH239522   3.544   0.577  16.449  0.1428  0.4586 -0.1413
 6036TIP3    H139523   3.473   0.514  16.462  0.3342  0.5244  1.4610
 6036TIP3    H239524   3.598   0.569  16.528  0.2667  2.4830  0.0437
 6037TIP3   OH239525   2.784   0.207   3.585  0.3717  0.0977  0.3959
 6037TIP3    H139526   2.787   0.118   3.620 -0.7936  0.0747  0.4953
 6037TIP3    H239527   2.693   0.219   3.558  0.3802  1.4313  0.8554
 6038TIP3   OH239528   2.259   4.043   4.870 -0.1581  0.1404  0.6361
 6038TIP3    H139529   2.345   4.051   4.827 -0.0513 -1.1510  0.5696
 6038TIP3    H239530   2.230   4.134   4.882  1.3056  0.6167  0.8363
 6039TIP3   OH239531   2.819   5.991  12.899  0.1401 -0.0162 -0.5294
 6039TIP3    H139532   2.791   5.915  12.847 -2.1859 -0.2196  0.9088
 6039TIP3    H239533   2.781   5.977  12.985  1.4084  1.8019  0.3912
 6040TIP3   OH239534   2.287   1.215  14.189  0.6059 -0.3182  0.0632
 6040TIP3    H139535   2.286   1.119  14.194  1.6891 -0.4821 -1.8146
 6040TIP3    H239536   2.256   1.235  14.101 -2.0712  1.2370  1.2305
 6041TIP3   OH239537   5.255   0.494   0.365  0.4947  0.5611 -0.4794
 6041TIP3    H139538   5.342   0.468   0.334 -0.4233 -0.7769 -2.1195
 6041TIP3    H239539   5.250   0.458   0.454  1.3415 -0.0254 -0.6533
 6042TIP3   OH239540   5.200   1.946   2.367  0.6460  0.3470 -0.3803
 6042TIP3    H139541   5.254   1.887   2.419  0.6658  1.9920  1.6311
 6042TIP3    H239542   5.257   1.977   2.298  1.6769  0.4908  0.5073
 6043TIP3   OH239543   5.697   0.346  13.770 -0.5670 -0.2562  0.4159
 6043TIP3    H139544   5.770   0.325  13.711  0.1195  1.8564  0.4564
 6043TIP3    H239545   5.621   0.355  13.712  0.0249  1.4339 -0.1426
 6044TIP3   OH239546   0.104   2.434  13.790 -0.7240  0.0167 -0.1684
 6044TIP3    H139547   0.034   2.465  13.848 -1.2126 -2.1108  0.4796
 6044TIP3    H239548   0.058   2.392  13.718 -0.1174 -0.3924 -0.3226
 6045TIP3   OH239549   0.586   5.326  14.080  0.0480  0.2459  0.6286
 6045TIP3    H139550   0.677   5.335  14.110  0.2064  1.3971 -0.0926
 6045TIP3    H239551   0.595   5.290  13.991 -0.2410 -0.3411  0.8392
 6046TIP3   OH239552   1.837   5.611  16.240  0.3934  0.1118  0.0924
 6046TIP3    H139553   1.917   5.660  16.256  0.9837 -0.9777  0.6446
 6046TIP3    H239554   1.818   5.568  16.324 -0.5206  0.0033 -0.1518
 6047TIP3   OH239555   2.979   3.545   4.805 -0.0422  0.0599 -0.0152
 6047TIP3    H139556   3.046   3.589   4.753 -2.0913  1.5234 -1.6374
 6047TIP3    H239557   2.918   3.615   4.829 -1.9652 -1.4495 -0.2390
 6048TIP3   OH239558   3.564   2.001  13.649 -0.0059  0.0203 -0.1260
 6048TIP3    H139559   3.644   2.046  13.620 -1.0683  0.8259 -2.0183
 6048TIP3    H239560   3.501   2.071  13.664 -1.4796 -0.6799 -2.4285
 6049TIP3   OH239561   5.202   3.413   3.340 -0.0447  0.6776  0.4808
 6049TIP3    H139562   5.205   3.394   3.246  1.3148  0.6180  0.5168
 6049TIP3    H239563   5.207   3.327   3.382  1.0751  0.7973  0.6111
 6050TIP3   OH239564   6.446   2.907  14.485  0.4897  0.5333  0.2690
 6050TIP3    H139565   6.355   2.932  14.502 -0.1456 -2.3845  1.9217
 6050TIP3    H239566   6.442   2.861  14.401  0.9035  2.2329 -0.7268
 6051TIP3   OH239567   1.851   5.949   4.718  0.0590  0.7200 -0.4314
 6051TIP3    H139568   1.812   5.980   4.800  0.3674  3.9273 -1.3676
 6051TIP3    H239569   1.943   5.930   4.741 -0.4268 -0.7977  0.4173
 6052TIP3   OH239570   0.880   2.881  13.186  0.3438  0.0427  0.4190
 6052TIP3    H139571   0.870   2.971  13.157 -0.6478  0.5554  2.2208
 6052TIP3    H239572   0.969   2.877  13.222  0.6159  0.1025 -0.2240
 6053TIP3   OH239573   0.409   3.970  13.878 -0.1411 -0.0996 -0.7524
 6053TIP3    H139574   0.483   3.977  13.939  0.6170  0.8373 -1.7345
 6053TIP3    H239575   0.391   4.060  13.851 -2.5226 -0.1571  0.4152
 6054TIP3   OH239576   4.026   4.337   0.740  0.2322  0.3332 -0.0262
 6054TIP3    H139577   3.983   4.257   0.711  0.1128 -0.0773  1.2258
 6054TIP3    H239578   4.118   4.325   0.715  0.0633  0.1927 -0.6017
 6055TIP3   OH239579   3.753   1.795   1.507 -0.2493  0.5114 -0.1842
 6055TIP3    H139580   3.840   1.778   1.542  0.1144  2.1298 -0.2065
 6055TIP3    H239581   3.729   1.880   1.543 -2.3653 -0.4537  0.8038
 6056TIP3   OH239582   4.586   4.130   3.867  0.2986 -0.0591 -0.2888
 6056TIP3    H139583   4.616   4.098   3.953 -0.5346  0.3205  0.1476
 6056TIP3    H239584   4.663   4.119   3.810  0.7379 -0.6895  0.4032
 6057TIP3   OH239585   3.288   2.983  14.290  0.3539  0.0868  0.7951
 6057TIP3    H139586   3.310   2.988  14.383  1.3586 -0.0892  0.5798
 6057TIP3    H239587   3.275   3.074  14.264  2.7835  0.4287  0.5108
 6058TIP3   OH239588   5.655   0.646   0.794 -0.5392 -0.3353  0.1250
 6058TIP3    H139589   5.587   0.613   0.734 -0.3301 -1.1010  0.2956
 6058TIP3    H239590   5.686   0.568   0.839 -0.7308  0.2434  1.2865
 6059TIP3   OH239591   0.667   6.402   3.078 -0.1170 -0.0217  0.2008
 6059TIP3    H139592   0.586   6.422   3.032 -0.2004 -0.1622  0.2846
 6059TIP3    H239593   0.693   6.485   3.119  1.0861  0.6761 -1.8012
 6060TIP3   OH239594   2.191   4.288  16.182  0.0268 -0.0330 -0.8644
 6060TIP3    H139595   2.226   4.206  16.146  0.7704 -1.3444  2.5065
 6060TIP3    H239596   2.101   4.265  16.207  0.5889 -0.2343  1.1065
 6061TIP3   OH239597   1.047   3.918  12.998  0.7461 -0.1165  0.5677
 6061TIP3    H139598   1.072   3.849  13.060  1.8116  0.1062  0.4055
 6061TIP3    H239599   1.037   3.997  13.051 -0.2312 -0.3219  0.7160
 6062TIP3   OH239600   6.167   5.203   1.590 -0.5217  0.2299 -0.0190
 6062TIP3    H139601   6.080   5.169   1.569  0.4050 -0.9202 -2.3274
 6062TIP3    H239602   6.157   5.243   1.676 -3.2506 -0.1261 -0.0940
 6063TIP3   OH239603   3.314   0.309  11.045  0.2200  0.0839 -0.0805
 6063TIP3    H139604   3.360   0.227  11.062  0.3502  0.3082  0.6614
 6063TIP3    H239605   3.237   0.305  11.100 -1.8695 -1.2425 -2.8486
 6064TIP3   OH239606   2.994   3.773  14.493 -0.2959  0.0614  0.1078
 6064TIP3    H139607   3.036   3.817  14.419  0.8386 -0.6022  0.3415
 6064TIP3    H239608   3.062   3.768  14.560 -0.8594 -0.7075  0.6359
 6065TIP3   OH239609   0.174   2.076   1.379 -0.2226 -0.5611  0.0563
 6065TIP3    H139610   0.218   2.149   1.335  2.1273 -1.6066  0.5025
 6065TIP3    H239611   0.245   2.017   1.403 -1.9040 -2.2546  1.1056
 6066TIP3   OH239612   2.577   1.732  14.944  0.4750  0.2825 -0.2145
 6066TIP3    H139613   2.535   1.713  14.860 -0.9002  2.8522 -0.2257
 6066TIP3    H239614   2.522   1.689  15.009  0.9913 -0.9130 -0.5575
 6067TIP3   OH239615   1.863   3.099  12.303 -0.8900 -0.3196  0.4520
 6067TIP3    H139616   1.897   3.060  12.222  0.9602  2.1440 -0.0775
 6067TIP3    H239617   1.801   3.166  12.272  0.0365  0.8288  0.9904
 6068TIP3   OH239618   4.371   3.403  13.785 -0.2856 -0.6974 -0.2952
 6068TIP3    H139619   4.357   3.324  13.838  1.7817  0.4342  2.1737
 6068TIP3    H239620   4.328   3.473  13.835 -0.5283  0.0530 -1.5046
 6069TIP3   OH239621   3.932   6.461   3.830  0.7234  0.0106 -0.5510
 6069TIP3    H139622   3.958   6.370   3.817  0.8158 -0.1767  0.8599
 6069TIP3    H239623   3.940   6.500   3.743  2.3475 -0.8949 -0.8579
 6070TIP3   OH239624   4.127   3.310  12.056  0.1653  0.1631 -0.2678
 6070TIP3    H139625   4.209   3.262  12.049  0.6462  1.1272 -2.3863
 6070TIP3    H239626   4.071   3.271  11.990  0.8196  2.7706 -2.5851
 6071TIP3   OH239627   2.357   5.819  13.149 -0.2110  0.2224  0.0048
 6071TIP3    H139628   2.380   5.729  13.173 -0.5913  0.2189  0.3725
 6071TIP3    H239629   2.261   5.820  13.149 -0.4426 -0.5771 -4.4427
 6072TIP3   OH239630   3.324   5.952   3.623  0.3688 -0.4842  0.1530
 6072TIP3    H139631   3.333   6.044   3.599 -0.7090 -1.0811 -3.0428
 6072TIP3    H239632   3.232   5.932   3.607  1.0337 -2.6107 -1.6105
 6073TIP3   OH239633   2.848   2.029   2.035  0.3516 -0.2633 -0.1061
 6073TIP3    H139634   2.939   2.053   2.049  0.2468  0.0766 -0.0197
 6073TIP3    H239635   2.847   1.933   2.045  0.3460 -0.0916  1.8562
 6074TIP3   OH239636   0.497   2.446  13.468 -0.1026 -0.6383 -0.9702
 6074TIP3    H139637   0.568   2.479  13.523  1.6524 -0.3626 -3.2421
 6074TIP3    H239638   0.422   2.501  13.490  0.9235  0.3886  0.1254
 6075TIP3   OH239639   6.651   3.019  10.534 -0.2570  0.2846  0.2588
 6075TIP3    H139640   6.681   3.102  10.572  1.2400 -0.4838  0.8504
 6075TIP3    H239641   6.706   3.007  10.457 -1.6743  0.6688 -0.8602
 6076TIP3   OH239642   3.279   4.894  11.575 -0.2272 -0.2903  0.2316
 6076TIP3    H139643   3.268   4.957  11.646 -0.6416  0.6551 -0.6643
 6076TIP3    H239644   3.369   4.906  11.546 -1.2202  2.2618 -2.1173
 6077TIP3   OH239645   3.392   3.551   3.881  0.0789 -0.2402 -0.2309
 6077TIP3    H139646   3.401   3.554   3.785  0.6162 -3.8420 -0.4120
 6077TIP3    H239647   3.302   3.578   3.897 -0.4777 -0.9907 -1.8845
 6078TIP3   OH239648   3.911   4.220  15.154 -0.3198  0.3141 -0.3228
 6078TIP3    H139649   3.948   4.161  15.220 -0.3636 -0.2954 -0.8372
 6078TIP3    H239650   3.978   4.226  15.087 -1.3469 -1.3137 -1.5789
 6079TIP3   OH239651   5.771   2.685   0.207  0.2538 -0.1830 -0.4974
 6079TIP3    H139652   5.848   2.635   0.232 -1.4356 -1.8806  1.6953
 6079TIP3    H239653   5.714   2.683   0.284 -0.7674  3.6035 -0.9334
 6080TIP3   OH239654   2.577   3.012  12.293  0.0521 -0.3295  0.5942
 6080TIP3    H139655   2.616   2.939  12.342 -0.8709 -1.3197 -0.0828
 6080TIP3    H239656   2.492   2.978  12.264 -0.1660  0.8448 -0.2019
 6081TIP3   OH239657   3.485   6.696  16.060 -0.0770  0.1183 -0.1040
 6081TIP3    H139658   3.471   6.673  16.152  1.0830 -0.4539 -0.0549
 6081TIP3    H239659   3.397   6.716  16.027 -0.5060  0.3569  1.1285
 6082TIP3   OH239660   1.956   0.336   4.369  0.1467  0.4394 -0.4775
 6082TIP3    H139661   1.918   0.382   4.294  0.3506  1.3002 -0.0703
 6082TIP3    H239662   1.930   0.389   4.445 -1.1072 -1.0872  0.2018
 6083TIP3   OH239663   4.178   3.609  13.618 -0.2322  0.0418 -0.6849
 6083TIP3    H139664   4.187   3.520  13.585 -0.7219 -0.1412 -0.3464
 6083TIP3    H239665   4.249   3.619  13.681 -0.6569 -0.3909 -0.1296
 6084TIP3   OH239666   5.750   0.608   1.153 -0.3319 -0.6770 -0.3997
 6084TIP3    H139667   5.681   0.601   1.219 -1.3392  0.1510 -1.3282
 6084TIP3    H239668   5.718   0.674   1.092  1.6745  0.3396 -0.4217
 6085TIP3   OH239669   4.278   3.646  15.009 -0.0073  0.2701 -0.4011
 6085TIP3    H139670   4.311   3.561  15.039  0.5332  0.5373 -0.2088
 6085TIP3    H239671   4.352   3.684  14.962  0.2126  1.1997  0.6635
 6086TIP3   OH239672   3.219   2.472  13.831  0.2168 -0.3282 -0.1836
 6086TIP3    H139673   3.161   2.466  13.907  2.6999  0.5877  1.9736
 6086TIP3    H239674   3.272   2.392  13.836 -0.8068 -1.1609 -2.1012
 6087TIP3   OH239675   0.884   1.194  15.701  0.4414 -0.0888  0.1630
 6087TIP3    H139676   0.960   1.144  15.670  1.3193  1.9994 -1.3519
 6087TIP3    H239677   0.852   1.239  15.622 -3.0444 -1.6424  0.5430
 6088TIP3   OH239678   0.575   6.043   1.701 -0.1858  0.2400  0.0345
 6088TIP3    H139679   0.490   6.030   1.659 -0.7780  1.3742  0.8293
 6088TIP3    H239680   0.575   6.135   1.727  0.9899  0.0700  0.6896
 6089TIP3   OH239681   3.454   0.508   3.449 -0.0668  0.2948  0.0815
 6089TIP3    H139682   3.416   0.465   3.525 -0.6849  0.8094  0.0738
 6089TIP3    H239683   3.399   0.585   3.435 -1.2199 -0.8302 -2.0667
 6090TIP3   OH239684   5.834   0.387  14.790  0.0945  0.0956 -0.3375
 6090TIP3    H139685   5.855   0.438  14.869 -1.4759 -0.1407  0.2663
 6090TIP3    H239686   5.916   0.385  14.741  0.5636  2.0730  0.2540
 6091TIP3   OH239687   5.028   4.245   2.268  0.0548 -0.0109 -0.2868
 6091TIP3    H139688   4.977   4.270   2.345  0.4184 -0.7612  0.2155
 6091TIP3    H239689   4.984   4.166   2.234 -0.6656  0.8447 -1.4263
 6092TIP3   OH239690   2.175   4.891  13.387  0.1632 -0.2901 -0.1754
 6092TIP3    H139691   2.145   4.913  13.475  1.3248 -1.3050  0.5206
 6092TIP3    H239692   2.268   4.870  13.398  0.0288 -1.7532 -1.3802
 6093TIP3   OH239693   0.718   2.023  13.587 -0.3666 -0.1331  0.0419
 6093TIP3    H139694   0.649   2.037  13.523  0.2814 -0.7954 -0.8327
 6093TIP3    H239695   0.789   2.080  13.559 -0.6581  0.7849  1.1197
 6094TIP3   OH239696   3.328   1.021  14.033 -0.2983  0.3177  0.5461
 6094TIP3    H139697   3.399   0.983  14.086  1.2309 -0.2871 -1.7946
 6094TIP3    H239698   3.255   0.960  14.043  0.0732  0.0187  1.6105
 6095TIP3   OH239699   2.072   4.932  14.256 -0.7706  0.0778  0.0426
 6095TIP3    H139700   2.101   4.903  14.169  0.9073 -0.8746  0.8838
 6095TIP3    H239701   2.126   5.009  14.274 -1.5419  0.6388  0.0172
 6096TIP3   OH239702   5.828   4.766   1.907  0.5283  1.1277 -0.2797
 6096TIP3    H139703   5.815   4.707   1.832  0.4478  1.5009 -0.5588
 6096TIP3    H239704   5.872   4.842   1.870 -0.1899  1.6452 -0.0886
 6097TIP3   OH239705   0.303   5.602   0.687  0.0894 -0.0301 -0.2493
 6097TIP3    H139706   0.270   5.682   0.648  1.7579  0.5798 -0.4952
 6097TIP3    H239707   0.342   5.630   0.770  2.4384 -0.1995 -1.2200
 6098TIP3   OH239708   4.942   0.468  16.163  0.1856  0.1583  0.5299
 6098TIP3    H139709   4.918   0.529  16.232  0.2833  0.1109  0.6068
 6098TIP3    H239710   5.014   0.511  16.117  0.1164  0.1926  0.4535
 6099TIP3   OH239711   4.992   2.100  15.575  1.2150 -0.0017  0.3013
 6099TIP3    H139712   5.047   2.048  15.517 -0.5814 -0.4739 -1.0587
 6099TIP3    H239713   4.974   2.044  15.650 -0.1149 -1.1374 -0.8177
 6100TIP3   OH239714   6.011   1.492   0.231 -0.5013 -0.7284  0.4209
 6100TIP3    H139715   6.025   1.530   0.318 -0.7101  0.7376 -0.1594
 6100TIP3    H239716   6.088   1.437   0.216  0.7615  0.9401  0.5526
 6101TIP3   OH239717   5.317   3.472  13.641  0.1642  0.8139  0.0279
 6101TIP3    H139718   5.378   3.542  13.618  1.2337 -0.7805 -2.4041
 6101TIP3    H239719   5.346   3.443  13.728  1.0854  1.9347  0.1203
 6102TIP3   OH239720   2.623   2.458  11.657  0.0367 -0.1445  0.4004
 6102TIP3    H139721   2.653   2.475  11.567  1.5306 -0.7390  0.7543
 6102TIP3    H239722   2.657   2.371  11.677 -0.3633 -0.0514  1.5175
 6103TIP3   OH239723   5.361   3.679   4.922  0.2483 -0.3568 -0.2068
 6103TIP3    H139724   5.380   3.587   4.938 -1.8597 -0.8869 -0.4852
 6103TIP3    H239725   5.330   3.682   4.832 -0.4039  0.4999  0.0326
 6104TIP3   OH239726   0.849   5.519   1.104 -0.0903 -0.0844 -0.0196
 6104TIP3    H139727   0.767   5.567   1.099 -0.5907 -0.5740  2.3560
 6104TIP3    H239728   0.823   5.428   1.116  0.8238 -0.3873 -0.2448
 6105TIP3   OH239729   3.799   0.076   5.633  0.0406  0.5944  0.4454
 6105TIP3    H139730   3.735   0.109   5.569 -1.1636 -1.0802  0.7162
 6105TIP3    H239731   3.746   0.026   5.695  1.4041  0.7891  1.8270
 6106TIP3   OH239732   5.997   0.987   0.717  0.2610  0.1054 -1.1336
 6106TIP3    H139733   6.056   1.057   0.689  0.1762 -0.0581 -1.7342
 6106TIP3    H239734   6.035   0.956   0.800  0.4805  0.6392 -1.0276
 6107TIP3   OH239735   2.078   0.026  16.038  0.0983 -0.3493  0.4096
 6107TIP3    H139736   2.004  -0.034  16.035 -0.3045  0.1292  0.6966
 6107TIP3    H239737   2.094   0.041  16.131  1.3157 -1.3624  0.3998
 6108TIP3   OH239738   5.306   0.674  16.552 -0.3077 -0.6771 -0.0737
 6108TIP3    H139739   5.329   0.635  16.467  2.3185 -0.7428  0.5773
 6108TIP3    H239740   5.370   0.744  16.564 -0.7639 -0.5259  1.7707
 6109TIP3   OH239741   0.181   5.521   1.030 -0.0148 -0.0170 -0.6185
 6109TIP3    H139742   0.257   5.576   1.012  0.2571 -0.3083 -0.3637
 6109TIP3    H239743   0.114   5.582   1.060  0.2320  0.1966 -0.4997
 6110TIP3   OH239744   2.398   5.410  14.759 -0.2650  0.1020 -0.0585
 6110TIP3    H139745   2.463   5.386  14.825 -1.2556  1.4030  1.4579
 6110TIP3    H239746   2.447   5.465  14.697  0.1316  0.9921  1.0074
 6111TIP3   OH239747   6.007   2.503   3.782 -0.5066  0.2448 -0.1789
 6111TIP3    H139748   6.063   2.508   3.704  0.2449  0.5075  0.3680
 6111TIP3    H239749   5.993   2.595   3.807  0.8805  0.1402  1.1223
 6112TIP3   OH239750   1.659   0.019  16.105 -0.5723  0.3850  0.3180
 6112TIP3    H139751   1.724  -0.036  16.063 -1.8298 -0.5138 -0.5431
 6112TIP3    H239752   1.679   0.013  16.199  1.6912  1.6510 -0.0313
 6113TIP3   OH239753   0.269   6.100   1.310 -0.5013 -0.0517  0.0998
 6113TIP3    H139754   0.365   6.100   1.312 -0.4643  0.2791 -1.1730
 6113TIP3    H239755   0.245   6.187   1.277 -1.1398 -1.0448 -2.2433
 6114TIP3   OH239756   0.082   3.050   5.584  0.2004 -0.8118  0.1544
 6114TIP3    H139757   0.007   3.063   5.643  0.3727  1.8683 -0.0659
 6114TIP3    H239758   0.047   3.072   5.497  1.0232 -0.3343 -0.0639
 6115TIP3   OH239759   0.823   2.899  16.616 -0.7662  0.0940 -0.0399
 6115TIP3    H139760   0.869   2.979  16.592  3.1181 -1.4039  1.4248
 6115TIP3    H239761   0.811   2.905  16.711 -0.5482 -0.9655  0.0689
 6116TIP3   OH239762   6.732   1.604  11.802 -0.7839  0.1783 -0.0209
 6116TIP3    H139763   6.788   1.615  11.878 -0.3391  0.6030 -0.4090
 6116TIP3    H239764   6.723   1.509  11.792 -0.3226  0.1123  0.1810
 6117TIP3   OH239765   5.790   3.568   5.145 -0.4296  0.2688  0.2168
 6117TIP3    H139766   5.757   3.562   5.055  0.3916 -0.9593 -0.0208
 6117TIP3    H239767   5.880   3.537   5.139 -0.4844 -0.1814  1.5300
 6118TIP3   OH239768   6.233   1.910  13.050  0.7000 -0.2326 -0.0536
 6118TIP3    H139769   6.265   1.826  13.084 -1.0858 -0.9069  0.0677
 6118TIP3    H239770   6.167   1.938  13.112  0.0787  0.4326 -0.9798
 6119TIP3   OH239771   3.101   3.196   3.736  0.6136 -0.3919  0.4627
 6119TIP3    H139772   3.042   3.146   3.680 -3.0261  2.4033  1.4171
 6119TIP3    H239773   3.070   3.179   3.825  1.6382  0.7218  1.0662
 6120TIP3   OH239774   0.679   1.182   6.075  0.2161 -0.5771  0.1916
 6120TIP3    H139775   0.690   1.122   6.149 -0.8853  1.3888  2.0819
 6120TIP3    H239776   0.640   1.261   6.114 -0.1790  0.6518 -2.4741
 6121TIP3   OH239777   5.220   3.103  12.700  0.8277 -0.3600  0.2582
 6121TIP3    H139778   5.263   3.029  12.742 -0.6914  0.2721  3.1502
 6121TIP3    H239779   5.270   3.179  12.729 -0.4312  0.1198  1.2482
 6122TIP3   OH239780   5.417   3.772  15.947 -0.1976 -0.5597 -0.5159
 6122TIP3    H139781   5.430   3.700  16.009 -0.3130  0.6039  0.9334
 6122TIP3    H239782   5.497   3.773  15.894  0.1597 -1.2569 -0.0108
 6123TIP3   OH239783   6.173   2.010   1.164 -0.6750  0.6721  0.3673
 6123TIP3    H139784   6.242   2.072   1.188  0.6850 -0.3395 -0.8418
 6123TIP3    H239785   6.157   2.026   1.071 -0.0696 -0.9941 -0.0491
 6124TIP3   OH239786   2.571   5.188  13.711  0.0713  0.2099  0.6530
 6124TIP3    H139787   2.577   5.281  13.689 -0.3247  0.1740  0.3744
 6124TIP3    H239788   2.557   5.144  13.627 -0.9875  0.0291  0.9070
 6125TIP3   OH239789   5.126   5.436   4.031 -0.1651  0.1550  0.2691
 6125TIP3    H139790   5.095   5.353   4.065 -0.2529 -0.1853 -0.6113
 6125TIP3    H239791   5.221   5.432   4.039 -0.1527 -0.1452 -0.0276
 6126TIP3   OH239792   2.704   4.473  14.991  0.0951 -0.6462  0.4441
 6126TIP3    H139793   2.697   4.390  14.944  1.5572 -0.7206  0.3302
 6126TIP3    H239794   2.722   4.447  15.082 -0.1700 -0.4643  0.5491
 6127TIP3   OH239795   3.570   2.537   2.515 -0.1171 -0.3982  0.6416
 6127TIP3    H139796   3.536   2.564   2.600  0.4938  0.6459  0.5669
 6127TIP3    H239797   3.547   2.608   2.456 -0.0835 -0.8802  0.0421
 6128TIP3   OH239798   3.738   6.749  14.412  0.3204 -0.1218 -0.1275
 6128TIP3    H139799   3.789   6.808  14.358 -0.9617  1.3896  0.2473
 6128TIP3    H239800   3.783   6.664  14.405  0.4044  0.0876 -3.2460
 6129TIP3   OH239801   4.792   3.563   2.107 -0.0480 -0.3222 -0.7766
 6129TIP3    H139802   4.858   3.594   2.046 -1.4861 -0.9729 -2.7587
 6129TIP3    H239803   4.784   3.634   2.171 -0.0789  1.4630 -2.6410
 6130TIP3   OH239804   6.322   4.515  15.518 -0.0418  0.0894 -0.5942
 6130TIP3    H139805   6.261   4.550  15.452 -1.3367 -1.0913 -0.0810
 6130TIP3    H239806   6.367   4.592  15.552 -0.0315  0.8197 -2.1846
 6131TIP3   OH239807   0.859   1.246   2.593  0.2083  0.6820 -0.2150
 6131TIP3    H139808   0.883   1.155   2.575 -1.4367 -0.1602  1.4185
 6131TIP3    H239809   0.763   1.244   2.602  0.0288  2.7571 -0.9782
 6132TIP3   OH239810   6.254   3.840  13.092  0.2076  0.1048 -0.4609
 6132TIP3    H139811   6.230   3.879  13.176 -0.0129  0.5607 -0.7300
 6132TIP3    H239812   6.329   3.784  13.112 -0.8451 -1.0721  0.3328
 6133TIP3   OH239813   2.034   1.633  16.501  0.0340 -0.1524  0.7204
 6133TIP3    H139814   2.080   1.575  16.441 -1.1105  0.4104 -0.7559
 6133TIP3    H239815   2.021   1.581  16.580  2.6401 -0.5143  0.9968
 6134TIP3   OH239816   0.045   3.181  11.442  0.9676 -0.2913 -0.6409
 6134TIP3    H139817   0.084   3.096  11.422 -0.7119 -0.9100 -1.5228
 6134TIP3    H239818  -0.003   3.204  11.362  1.7302  1.7017 -0.5583
 6135TIP3   OH239819   6.775   5.125   4.939  0.3418  0.6024 -0.4226
 6135TIP3    H139820   6.776   5.184   4.864 -1.4848  0.3584 -0.6667
 6135TIP3    H239821   6.815   5.175   5.009  1.3994  1.1007 -1.3438
 6136TIP3   OH239822   2.999   1.955  15.262 -0.2131 -0.0550 -0.5733
 6136TIP3    H139823   3.074   1.917  15.308 -0.4438  1.5334  1.2109
 6136TIP3    H239824   2.977   1.890  15.195  4.5959  0.6539 -3.2942
 6137TIP3   OH239825   6.187   4.886  11.996 -0.0979 -0.0282  0.2298
 6137TIP3    H139826   6.158   4.917  11.910  1.8785 -1.2593 -0.9547
 6137TIP3    H239827   6.114   4.833  12.029 -1.3843  1.4732 -0.0614
 6138TIP3   OH239828   0.086   2.966   2.734  0.0256 -0.0979  0.1485
 6138TIP3    H139829   0.140   2.914   2.794 -0.3059 -0.6885 -0.0644
 6138TIP3    H239830   0.066   3.045   2.784  4.0964  1.9282 -0.9639
 6139TIP3   OH239831   6.372   4.234   6.390  0.5705 -0.0173  0.2951
 6139TIP3    H139832   6.299   4.263   6.444  0.1408 -0.8632  0.1742
 6139TIP3    H239833   6.439   4.301   6.404 -0.3928  1.0364  0.0251
 6140TIP3   OH239834   4.617   4.491   4.363  0.1405  0.2825  0.4555
 6140TIP3    H139835   4.598   4.546   4.440 -0.4501  0.4880  0.1684
 6140TIP3    H239836   4.569   4.532   4.292 -0.2974 -0.5944  0.2280
 6141TIP3   OH239837   6.532   4.204   0.215  0.0639 -0.0960  0.1409
 6141TIP3    H139838   6.604   4.220   0.154 -0.1069  1.3468  0.2744
 6141TIP3    H239839   6.463   4.166   0.162 -0.2511  1.5718 -0.6991
 6142TIP3   OH239840   3.954   4.328  10.911 -0.3773 -0.4998  0.3403
 6142TIP3    H139841   3.943   4.251  10.855 -1.4371 -0.3663  0.3406
 6142TIP3    H239842   4.003   4.297  10.986  0.9808 -0.7107 -0.6026
 6143TIP3   OH239843   4.501   3.971   5.830 -0.0456 -0.3622 -0.0018
 6143TIP3    H139844   4.519   3.900   5.768  0.5315 -0.3356  0.1318
 6143TIP3    H239845   4.521   3.934   5.916 -0.5137 -0.2887  0.1411
 6144TIP3   OH239846   0.151   5.466  12.922 -0.0122 -0.3984 -0.2357
 6144TIP3    H139847   0.167   5.484  12.829 -0.8338  1.7636 -0.0205
 6144TIP3    H239848   0.197   5.384  12.939  0.1206 -0.8741 -2.5562
 6145TIP3   OH239849   1.854   6.783  11.349 -0.3434 -0.6970 -0.0656
 6145TIP3    H139850   1.848   6.789  11.444 -0.2929  0.1748 -0.1142
 6145TIP3    H239851   1.935   6.735  11.333  1.0525  1.4323  0.2980
 6146TIP3   OH239852   3.067   2.270  12.500  0.1570  0.8802 -0.5494
 6146TIP3    H139853   3.030   2.218  12.427  0.1592  1.3288 -0.8719
 6146TIP3    H239854   3.152   2.229  12.517 -0.1890  0.2628 -0.2534
 6147TIP3   OH239855   1.399   6.228  11.907  0.2958  0.0822 -0.1018
 6147TIP3    H139856   1.457   6.304  11.908  0.8172 -0.1528 -3.1271
 6147TIP3    H239857   1.316   6.262  11.872  0.4835 -0.6858 -1.3227
 6148TIP3   OH239858   0.460   3.651  15.884 -0.0149  0.1175 -0.0579
 6148TIP3    H139859   0.387   3.645  15.822  0.4769  2.3595 -0.9322
 6148TIP3    H239860   0.429   3.604  15.961 -1.7417 -0.3598 -0.9775
 6149TIP3   OH239861   4.685   0.242  15.141  0.2731  0.0775  0.3208
 6149TIP3    H139862   4.680   0.337  15.139 -2.2844  0.0131 -0.6510
 6149TIP3    H239863   4.594   0.213  15.149  0.9614 -2.2981  0.4897
 6150TIP3   OH239864   6.263   6.099  14.532  0.3702 -0.0884 -0.3590
 6150TIP3    H139865   6.185   6.111  14.587  0.5104  0.3250 -0.2443
 6150TIP3    H239866   6.230   6.064  14.450  0.2645 -1.6995  0.3484
 6151TIP3   OH239867   1.275   6.157   5.454  0.3445  0.1536 -0.5552
 6151TIP3    H139868   1.245   6.098   5.385  0.3180  0.2963 -0.6660
 6151TIP3    H239869   1.353   6.114   5.489 -1.1607 -1.3014  1.2021
 6152TIP3   OH239870   5.805   5.189  16.226 -0.2528  0.5345 -0.4710
 6152TIP3    H139871   5.817   5.272  16.273 -0.6861  1.7400 -2.3984
 6152TIP3    H239872   5.890   5.171  16.187  0.3182 -0.8558  1.2579
 6153TIP3   OH239873   1.886   4.279  12.353  0.5464 -0.2373 -0.6224
 6153TIP3    H139874   1.906   4.264  12.260  0.1134 -0.1101 -0.7407
 6153TIP3    H239875   1.961   4.244  12.400  1.4183  0.9368 -1.0840
 6154TIP3   OH239876   1.482   5.897  14.347  0.3445 -0.2565 -0.4518
 6154TIP3    H139877   1.530   5.940  14.419 -1.1162 -0.0126  0.4103
 6154TIP3    H239878   1.391   5.919  14.363 -0.3424 -2.7138 -0.6794
 6155TIP3   OH239879   5.407   3.713  13.487 -0.5741 -0.0572 -0.0968
 6155TIP3    H139880   5.448   3.787  13.532 -0.6838 -0.0020 -0.0864
 6155TIP3    H239881   5.343   3.754  13.428  0.3242 -0.0578 -1.1017
 6156TIP3   OH239882   3.886   1.648  13.279 -0.5998 -0.1759 -0.1004
 6156TIP3    H139883   3.809   1.693  13.314 -0.2740  0.5314 -0.2753
 6156TIP3    H239884   3.955   1.715  13.280 -0.0145 -0.7736 -0.0356
 6157TIP3   OH239885   3.387   3.675   1.692 -0.0591 -0.3606  0.1751
 6157TIP3    H139886   3.393   3.583   1.720 -2.2883 -0.2541  1.3177
 6157TIP3    H239887   3.379   3.671   1.597  3.4735 -1.0512 -0.2016
 6158TIP3   OH239888   4.401   3.198   2.036 -0.5838  0.0396 -0.3256
 6158TIP3    H139889   4.443   3.284   2.041  0.3015 -0.3741 -0.6181
 6158TIP3    H239890   4.472   3.137   2.017 -1.3205 -0.6683 -0.8500
 6159TIP3   OH239891   3.394   5.482   2.398 -0.4758 -0.1966  0.5417
 6159TIP3    H139892   3.454   5.465   2.325 -0.7750  0.7214  0.0644
 6159TIP3    H239893   3.315   5.432   2.376 -1.0220  1.0460 -0.3994
 6160TIP3   OH239894   0.101   5.970   0.923 -0.0359  0.4547  0.1528
 6160TIP3    H139895   0.042   6.045   0.922 -1.4002 -0.5525  0.8823
 6160TIP3    H239896   0.188   6.008   0.936 -0.7301  1.8971  0.8602
 6161TIP3   OH239897   0.709   0.922   3.326 -0.1566  0.1312  0.0972
 6161TIP3    H139898   0.762   1.002   3.333  0.5709 -0.2746 -0.5464
 6161TIP3    H239899   0.771   0.855   3.296 -0.3727 -1.0714  2.1086
 6162TIP3   OH239900   1.086   0.088  14.463 -0.7971 -0.2962 -0.1816
 6162TIP3    H139901   1.156   0.144  14.429 -1.2466 -0.3488 -1.2467
 6162TIP3    H239902   1.131   0.011  14.498 -0.1571  0.8166  1.5267
 6163TIP3   OH239903   0.004   2.719  14.279 -0.3483 -0.1856  0.7176
 6163TIP3    H139904  -0.048   2.744  14.202  0.2436 -0.5382  0.1905
 6163TIP3    H239905   0.010   2.799  14.331  1.2576  0.7458 -0.7893
 6164TIP3   OH239906   5.045   2.122  17.200 -0.1822 -0.0999 -0.1385
 6164TIP3    H139907   5.048   2.034  17.162  0.4463  1.1932 -3.3566
 6164TIP3    H239908   4.953   2.147  17.195 -0.3474 -0.4798  0.6998
 6165TIP3   OH239909   6.544   6.239   4.146 -0.5248 -0.0954  0.6931
 6165TIP3    H139910   6.608   6.220   4.215 -1.1578 -0.4923  1.1825
 6165TIP3    H239911   6.547   6.334   4.136  1.1189 -0.2138 -0.2495
 6166TIP3   OH239912   3.830   2.319  11.658  0.5600 -0.9857  0.1481
 6166TIP3    H139913   3.877   2.308  11.740  0.6457  0.3253  0.3035
 6166TIP3    H239914   3.737   2.308  11.681  0.5762 -0.5316  0.4528
 6167TIP3   OH239915   5.879   2.357  14.253 -0.5596  0.7379 -0.1498
 6167TIP3    H139916   5.837   2.441  14.272 -1.1280  0.4040  0.0934
 6167TIP3    H239917   5.820   2.292  14.290 -0.7545  0.1580 -1.4132
 6168TIP3   OH239918   0.542   3.215   1.473  0.4988 -0.2539 -0.2799
 6168TIP3    H139919   0.461   3.164   1.464 -0.2133  1.0597 -1.7281
 6168TIP3    H239920   0.512   3.305   1.488  1.7268 -0.0003  0.8926
 6169TIP3   OH239921   0.943   0.018   0.304  0.1365 -0.0079 -0.0563
 6169TIP3    H139922   0.909   0.091   0.252  0.1919  0.0498 -0.0118
 6169TIP3    H239923   0.878   0.004   0.372 -0.5241 -0.8598 -0.8414
 6170TIP3   OH239924   3.111   4.800   5.457 -0.0244  0.2858 -0.0410
 6170TIP3    H139925   3.030   4.799   5.508 -0.7347  0.0305 -1.1424
 6170TIP3    H239926   3.153   4.883   5.481 -0.9378  0.7339  0.0654
 6171TIP3   OH239927   3.299   1.478   3.201  0.4012 -0.5656 -0.2410
 6171TIP3    H139928   3.242   1.553   3.184  1.2654 -0.3283 -2.4611
 6171TIP3    H239929   3.246   1.418   3.253 -1.1715  0.4892 -0.5720
 6172TIP3   OH239930   2.466   4.195   0.539 -0.1420 -0.3281  0.0270
 6172TIP3    H139931   2.491   4.250   0.465  1.3465  0.8111  1.2986
 6172TIP3    H239932   2.539   4.134   0.550  0.4205  0.5472  1.4772
 6173TIP3   OH239933   2.160   6.396  14.519 -0.3644  0.1548  0.1224
 6173TIP3    H139934   2.138   6.406  14.426  1.6980  3.0162 -0.1950
 6173TIP3    H239935   2.207   6.313  14.525 -0.3213  0.0503 -1.4362
 6174TIP3   OH239936   3.555   6.694   3.330 -0.2176 -0.0683 -0.6381
 6174TIP3    H139937   3.629   6.733   3.284 -0.1204  0.5663  0.0307
 6174TIP3    H239938   3.569   6.717   3.422 -0.3668 -1.3622 -0.2745
 6175TIP3   OH239939   3.856   2.980  12.626  0.5555 -0.0666 -0.1272
 6175TIP3    H139940   3.924   2.926  12.668 -2.2285 -2.3574  1.8471
 6175TIP3    H239941   3.836   3.048  12.691  1.3407  1.0330 -0.9923
 6176TIP3   OH239942   3.065   3.453   1.547 -0.3142  0.5811 -0.3707
 6176TIP3    H139943   3.083   3.545   1.527 -0.9580  0.6573 -0.6382
 6176TIP3    H239944   3.146   3.407   1.524 -0.1262  1.0293 -0.6175
 6177TIP3   OH239945   0.997   6.572  12.031 -0.1821 -0.5334 -0.4782
 6177TIP3    H139946   1.092   6.584  12.037 -0.5017  2.0967  0.5969
 6177TIP3    H239947   0.971   6.619  11.952 -0.4717 -2.8759 -1.8945
 6178TIP3   OH239948   0.949   5.751  13.166 -0.5471  0.5114 -0.0525
 6178TIP3    H139949   0.982   5.834  13.201  1.4458  0.1476 -0.9744
 6178TIP3    H239950   1.026   5.707  13.130 -1.7464 -1.2603 -0.5894
 6179TIP3   OH239951   6.760   3.543  13.230  0.0053 -0.6878 -0.3468
 6179TIP3    H139952   6.806   3.470  13.189  3.5376  0.3270  1.4154
 6179TIP3    H239953   6.734   3.509  13.316  1.8971  0.0478  0.5883
 6180TIP3   OH239954   3.655   4.738  13.212 -0.1866  0.8079  0.0862
 6180TIP3    H139955   3.724   4.672  13.204  0.2879  1.0366  1.8881
 6180TIP3    H239956   3.603   4.727  13.133  1.1091 -0.2999 -0.6655
 6181TIP3   OH239957   5.534   2.419  14.216 -0.2652  0.4385  0.1430
 6181TIP3    H139958   5.603   2.453  14.160  0.4810 -0.5189  0.4389
 6181TIP3    H239959   5.572   2.340  14.255 -1.7036 -0.4022 -0.0778
 6182TIP3   OH239960   1.260   3.241  11.404 -0.1204 -0.4872 -0.3437
 6182TIP3    H139961   1.243   3.299  11.329  0.0523  1.5586  1.1247
 6182TIP3    H239962   1.175   3.229  11.445 -0.0019 -0.4328 -0.0770
 6183TIP3   OH239963   1.474   5.183   2.193 -0.0589 -0.1547  0.2224
 6183TIP3    H139964   1.395   5.237   2.190 -0.1824 -0.3336  0.2078
 6183TIP3    H239965   1.546   5.244   2.179 -0.2037 -0.0078  0.1162
 6184TIP3   OH239966   0.827   1.082  11.335  1.0025 -0.1536  0.5204
 6184TIP3    H139967   0.922   1.073  11.328  0.9720 -0.4152  0.4264
 6184TIP3    H239968   0.807   1.051  11.423  1.1072  0.7812  0.8760
 6185TIP3   OH239969   5.838   3.218  16.141  0.1019  0.3027 -0.1527
 6185TIP3    H139970   5.810   3.159  16.211 -0.5180  1.0358  0.2229
 6185TIP3    H239971   5.854   3.159  16.066 -1.5213 -0.2678 -0.1090
 6186TIP3   OH239972   1.044   1.839   4.395  0.1213  0.3319  0.2170
 6186TIP3    H139973   0.973   1.789   4.435 -0.8415  1.6543  0.2261
 6186TIP3    H239974   1.118   1.828   4.455 -0.5446  0.2118  1.0276
 6187TIP3   OH239975   2.829   6.642   4.672  0.7934  0.0204 -0.5861
 6187TIP3    H139976   2.884   6.687   4.737  1.9645 -1.1210 -0.7442
 6187TIP3    H239977   2.779   6.579   4.722 -1.7241  2.1496 -0.1918
 6188TIP3   OH239978   3.991   2.333  12.471 -0.3111  0.2511 -0.6914
 6188TIP3    H139979   3.926   2.403  12.476 -1.5540 -0.9284  0.6261
 6188TIP3    H239980   3.941   2.255  12.449  1.1238 -0.1774 -2.6759
 6189TIP3   OH239981   4.581   5.331  12.544 -0.5305  0.0627  0.4509
 6189TIP3    H139982   4.491   5.327  12.574 -0.9559 -0.2542 -0.7804
 6189TIP3    H239983   4.577   5.303  12.452  0.8471 -0.1787  0.4346
 6190TIP3   OH239984   4.220   3.127   1.717  0.4518  0.3768 -0.2813
 6190TIP3    H139985   4.311   3.100   1.730  0.6927  1.3802  0.1558
 6190TIP3    H239986   4.225   3.214   1.678 -0.2300  2.3108  3.4943
 6191TIP3   OH239987   0.874   0.753  15.159  0.1980  0.5361 -0.3634
 6191TIP3    H139988   0.820   0.691  15.111  0.6365 -0.1854  0.0496
 6191TIP3    H239989   0.963   0.718  15.152  0.2735  0.4261  0.9264
 6192TIP3   OH239990   4.335   6.433   1.290  0.0001 -0.1814 -0.4614
 6192TIP3    H139991   4.319   6.440   1.196  2.2336 -2.7248 -1.1373
 6192TIP3    H239992   4.256   6.391   1.325 -0.8878  0.8718 -1.1084
 6193TIP3   OH239993   0.241   0.776  12.475  0.3085  0.3093  0.1369
 6193TIP3    H139994   0.229   0.814  12.388  1.6615  0.0949 -0.1698
 6193TIP3    H239995   0.246   0.851  12.534  0.4793  0.4977 -0.1177
 6194TIP3   OH239996   2.859   5.064  12.814 -0.1205  0.6839 -0.1565
 6194TIP3    H139997   2.840   5.102  12.728  2.2090 -0.2941 -1.1709
 6194TIP3    H239998   2.906   5.133  12.861  0.9295  0.3478 -0.6777
 6195TIP3   OH239999   0.416   3.924   5.734 -0.3823  0.2465  0.2300
 6195TIP3    H140000   0.357   3.976   5.789 -1.4580  0.3397 -0.9699
 6195TIP3    H240001   0.495   3.978   5.725 -0.1804  0.2249  1.6515
 6196TIP3   OH240002   0.816   3.956  15.737  0.0247 -0.0357 -0.3695
 6196TIP3    H140003   0.729   3.943  15.775 -0.1966  0.5518 -0.6656
 6196TIP3    H240004   0.850   4.034  15.780  0.8840 -0.8940  0.5731
 6197TIP3   OH240005   1.993   5.141  14.600 -0.0802 -0.5588 -0.0802
 6197TIP3    H140006   1.964   5.155  14.690  1.5711 -0.7142  0.5027
 6197TIP3    H240007   1.971   5.223  14.555 -2.5552 -1.1288 -0.0358
 6198TIP3   OH240008   2.360   0.167   4.208  0.4710 -0.2703 -0.0602
 6198TIP3    H140009   2.367   0.072   4.217 -1.6831 -0.7086 -1.9226
 6198TIP3    H240010   2.327   0.197   4.293  0.8859 -1.2144  0.4462
 6199TIP3   OH240011   4.004   3.705  14.306  0.0204 -0.3257  0.1729
 6199TIP3    H140012   3.956   3.661  14.376 -2.5868  0.3242 -1.0746
 6199TIP3    H240013   3.989   3.651  14.228  0.0926  0.6731 -0.5604
 6200TIP3   OH240014   3.910   2.944  12.355  0.2138  0.1656 -0.2833
 6200TIP3    H140015   3.905   2.851  12.334  2.4665 -0.2673  0.7771
 6200TIP3    H240016   3.891   2.948  12.449  0.2216  0.7557 -0.3033
 6201TIP3   OH240017   5.339   6.656  15.389 -0.1899  0.2561 -0.4280
 6201TIP3    H140018   5.416   6.606  15.416 -0.5388 -1.8886 -3.0001
 6201TIP3    H240019   5.374   6.742  15.364  0.5768  1.1162  2.9971
 6202TIP3   OH240020   0.289   6.221  16.264  0.5148  0.8198  0.0160
 6202TIP3    H140021   0.341   6.254  16.191  0.5224  0.4586 -0.1429
 6202TIP3    H240022   0.229   6.158  16.224  0.8035  0.3097  0.3777
 6203TIP3   OH240023   6.445   1.589  14.760  0.1493  0.4572  0.2374
 6203TIP3    H140024   6.479   1.640  14.686 -2.1946  0.8541 -0.6635
 6203TIP3    H240025   6.377   1.534  14.721 -0.2802 -0.2657  1.9188
 6204TIP3   OH240026   1.564   3.039  16.719  0.5255  0.0364 -0.1054
 6204TIP3    H140027   1.522   2.955  16.739 -1.9131  0.8348 -1.3755
 6204TIP3    H240028   1.643   3.040  16.773  0.8555 -3.2050 -0.2999
 6205TIP3   OH240029   5.856   4.553  16.001 -0.3859  0.2018 -0.5113
 6205TIP3    H140030   5.885   4.538  15.911 -1.7534  1.5267 -1.2059
 6205TIP3    H240031   5.821   4.642  16.001 -0.2094  0.3214  1.3991
 6206TIP3   OH240032   1.899   4.817   4.127 -0.0962  0.2592 -0.2252
 6206TIP3    H140033   1.824   4.772   4.166  0.3024  0.3168  0.6437
 6206TIP3    H240034   1.909   4.897   4.179  0.3221  0.4488 -0.5890
 6207TIP3   OH240035   5.230   2.290   1.289  0.2268 -0.1404  0.2155
 6207TIP3    H140036   5.207   2.242   1.368  1.2530  1.5918  1.6563
 6207TIP3    H240037   5.326   2.288   1.286  0.1897 -0.8538 -1.4563
 6208TIP3   OH240038   5.712   3.080  16.334 -0.1251  0.3119  0.1044
 6208TIP3    H140039   5.746   3.112  16.417  1.4764  1.1968 -0.8342
 6208TIP3    H240040   5.646   3.145  16.308 -1.8156 -0.8090  1.3889
 6209TIP3   OH240041   3.799   1.900  14.805  0.4269 -0.1482 -0.1660
 6209TIP3    H140042   3.861   1.970  14.786  0.9149 -0.1011  1.4272
 6209TIP3    H240043   3.722   1.945  14.840  0.7327 -0.3740  0.8429
 6210TIP3   OH240044   3.050   3.591   2.814 -0.0559 -0.1668  0.6706
 6210TIP3    H140045   3.067   3.546   2.897  0.3082  1.3097  1.4353
 6210TIP3    H240046   2.975   3.647   2.833  1.2360  1.6480  0.6043
 6211TIP3   OH240047   1.465   2.057   3.464 -0.3872 -0.4674  0.3923
 6211TIP3    H140048   1.470   1.971   3.423 -1.5046  0.1744 -1.1569
 6211TIP3    H240049   1.544   2.102   3.435  0.1194 -0.8869  1.0787
 6212TIP3   OH240050   4.652   0.026   0.053 -0.5028 -0.4031 -0.1121
 6212TIP3    H140051   4.643   0.034  -0.042 -0.6490  0.4925 -0.0316
 6212TIP3    H240052   4.585  -0.037   0.078 -1.0404  0.0028 -0.5078
 6213TIP3   OH240053   5.239   0.495   3.948 -0.1202 -0.2930 -0.1811
 6213TIP3    H140054   5.317   0.545   3.924  0.3623 -1.1037 -0.3144
 6213TIP3    H240055   5.241   0.492   4.044 -0.1637 -0.0468 -0.1706
 6214TIP3   OH240056   4.884   3.996  14.923 -0.2614  0.1267  0.1716
 6214TIP3    H140057   4.851   4.071  14.873 -0.1746 -0.1911 -0.3734
 6214TIP3    H240058   4.920   3.938  14.856  2.1774  0.8297  0.7766
 6215TIP3   OH240059   3.987   0.396  13.507  0.3989  0.2092  0.1072
 6215TIP3    H140060   4.051   0.426  13.442 -1.1787  1.5801 -0.8771
 6215TIP3    H240061   4.040   0.347  13.571  2.0298 -1.1770 -2.1278
 6216TIP3   OH240062   2.349   1.393   2.638 -0.8542 -0.2919 -0.2601
 6216TIP3    H140063   2.271   1.384   2.693 -1.2336 -1.7059 -0.9945
 6216TIP3    H240064   2.378   1.303   2.621  0.1359  0.1631 -1.1310
 6217TIP3   OH240065   3.003   0.937  15.285 -0.6832  0.1517  0.0437
 6217TIP3    H140066   3.012   0.922  15.191  0.1000 -0.6091  0.2214
 6217TIP3    H240067   2.912   0.917  15.304 -0.2715 -2.2040 -0.1589
 6218TIP3   OH240068   0.023   2.828  11.703  0.4103 -0.1200 -0.0699
 6218TIP3    H140069   0.081   2.812  11.777 -0.3112  1.2653  0.8316
 6218TIP3    H240070  -0.065   2.828  11.742  0.0073  0.4118 -0.9628
 6219TIP3   OH240071   0.031   3.155  16.440 -0.2486  0.0057 -0.8003
 6219TIP3    H140072   0.025   3.086  16.375  1.9839  0.6660 -1.8213
 6219TIP3    H240073   0.020   3.111  16.524  0.6969 -1.5216 -1.4492
 6220TIP3   OH240074   0.055   5.742  16.448 -0.8172  0.5334  0.4048
 6220TIP3    H140075   0.019   5.829  16.432 -0.9103  0.2926 -0.7912
 6220TIP3    H240076   0.145   5.758  16.478 -0.4181  1.0439 -0.9550
 6221TIP3   OH240077   6.092   3.454   3.506  0.2698  0.0439  0.6392
 6221TIP3    H140078   6.119   3.445   3.597  1.7175 -0.5136  0.1707
 6221TIP3    H240079   6.165   3.419   3.455 -0.2427  0.9298 -0.7597
 6222TIP3   OH240080   1.083   3.606  14.777  0.3865 -0.0756  0.6501
 6222TIP3    H140081   1.001   3.569  14.746  1.3352 -2.3892  0.7240
 6222TIP3    H240082   1.080   3.698  14.749 -2.3055 -0.0092  0.9037
 6223TIP3   OH240083   6.681   2.001   0.849  0.1253 -0.0030  0.3997
 6223TIP3    H140084   6.679   1.906   0.837  0.1689  0.2091 -1.5723
 6223TIP3    H240085   6.589   2.025   0.863  0.1529 -0.3478  1.2537
 6224TIP3   OH240086   2.532   1.741  12.652  0.0936  0.2786 -0.1883
 6224TIP3    H140087   2.464   1.784  12.703  1.2432  0.7459  0.9935
 6224TIP3    H240088   2.608   1.737  12.711  0.5358 -1.8985 -0.8024
 6225TIP3   OH240089   3.342   4.497  16.280  0.5343 -0.3600  0.2054
 6225TIP3    H140090   3.283   4.430  16.313 -0.2771 -0.2745 -1.0324
 6225TIP3    H240091   3.355   4.556  16.355 -0.9723 -0.3642  0.4949
 6226TIP3   OH240092   2.497   4.227  12.249  0.3047 -0.5149 -0.1526
 6226TIP3    H140093   2.556   4.252  12.179 -0.5152 -0.5040 -0.8521
 6226TIP3    H240094   2.519   4.287  12.321 -0.4691  1.1082 -1.2132
 6227TIP3   OH240095   5.276   6.095  14.920  0.4666  0.3636  0.4510
 6227TIP3    H140096   5.323   6.053  14.847  1.0559 -0.5275  1.3154
 6227TIP3    H240097   5.345   6.118  14.982 -0.1014  0.3997  1.0754
 6228TIP3   OH240098   5.630   6.517   0.776  0.1966 -0.0353  0.1811
 6228TIP3    H140099   5.609   6.512   0.683  3.0904  0.1371 -0.5823
 6228TIP3    H240100   5.646   6.426   0.802 -1.5658 -0.2045  0.8392
 6229TIP3   OH240101   3.889   1.696  16.676  0.2151  0.3260 -0.8783
 6229TIP3    H140102   3.961   1.678  16.736  0.4805  0.2919 -1.2033
 6229TIP3    H240103   3.820   1.732  16.731 -0.0335 -0.9174 -0.3410
 6230TIP3   OH240104   0.007   3.551   5.426  0.7240 -0.9878 -0.4550
 6230TIP3    H140105   0.095   3.519   5.445  0.9850 -0.3358 -0.5484
 6230TIP3    H240106   0.011   3.645   5.442 -0.0938 -1.0211  0.0502
 6231TIP3   OH240107   0.207   6.678   2.656 -0.4031 -0.3518 -0.2308
 6231TIP3    H140108   0.246   6.697   2.742  1.9535  0.4420 -1.3827
 6231TIP3    H240109   0.175   6.588   2.664  0.7707 -0.7021  1.1566
 6232TIP3   OH240110   1.734   1.445  16.033 -0.4151  0.1469  0.4280
 6232TIP3    H140111   1.787   1.366  16.021 -1.1511 -0.3933  0.6722
 6232TIP3    H240112   1.699   1.438  16.122  0.5758  1.4151  0.9609
 6233TIP3   OH240113   1.513   4.628  13.366  0.2535 -0.1678 -0.1033
 6233TIP3    H140114   1.548   4.707  13.408 -1.5633  0.8515 -0.4258
 6233TIP3    H240115   1.437   4.658  13.317 -0.7435 -2.1851  0.0924
 6234TIP3   OH240116   2.638   4.257  11.644  0.0549  1.1383 -0.0710
 6234TIP3    H140117   2.692   4.217  11.576  0.0606 -0.4842  0.8256
 6234TIP3    H240118   2.688   4.243  11.725 -0.9329  1.0829  0.5471
 6235TIP3   OH240119   4.260   4.934   3.475 -0.2399  0.1570  0.0889
 6235TIP3    H140120   4.318   5.004   3.505  0.0952  0.8105 -1.9251
 6235TIP3    H240121   4.173   4.958   3.508  0.2492  0.2637  1.3646
 6236TIP3   OH240122   1.056   0.899   1.278  0.3751  0.6514  1.0018
 6236TIP3    H140123   1.103   0.848   1.212 -2.6694  2.0325 -2.5383
 6236TIP3    H240124   0.994   0.837   1.316  0.7838  0.3177  1.1340
 6237TIP3   OH240125   2.458   3.622   5.418 -0.1291 -0.0435  0.1111
 6237TIP3    H140126   2.407   3.702   5.430 -0.6489 -0.3520  0.0021
 6237TIP3    H240127   2.397   3.551   5.438  0.7138 -0.3924  1.5808
 6238TIP3   OH240128   5.715   3.547  13.169  0.0905 -0.1155 -0.5701
 6238TIP3    H140129   5.668   3.571  13.249  1.7416 -1.3511  0.8389
 6238TIP3    H240130   5.802   3.586  13.179  1.2070 -2.4971 -0.4680
 6239TIP3   OH240131   3.935   1.295   5.386 -0.5549 -0.4524  0.4941
 6239TIP3    H140132   3.902   1.362   5.446 -0.7868 -0.9303  0.9055
 6239TIP3    H240133   3.923   1.333   5.299  2.8944  1.7101  0.7868
 6240TIP3   OH240134   3.592   6.217  14.899 -0.5196  0.2821  0.4540
 6240TIP3    H140135   3.522   6.152  14.901  1.7136 -2.3250  0.4541
 6240TIP3    H240136   3.651   6.191  14.970  0.8993  1.8207 -0.0902
 6241TIP3   OH240137   1.449   5.436  13.776 -0.5251 -0.2376 -0.6129
 6241TIP3    H140138   1.528   5.447  13.723 -0.0821  0.3401  0.1465
 6241TIP3    H240139   1.461   5.350  13.818 -1.4531 -1.2820 -2.3499
 6242TIP3   OH240140   0.321   3.372  16.878  0.2085  0.3118 -0.2210
 6242TIP3    H140141   0.327   3.287  16.921 -0.1588  0.3221 -0.1433
 6242TIP3    H240142   0.238   3.368  16.831  0.4450  0.4289 -0.6514
 6243TIP3   OH240143   2.247   6.667   1.322  0.3347  0.4183  0.7633
 6243TIP3    H140144   2.201   6.673   1.238  1.1681 -0.0392  0.2524
 6243TIP3    H240145   2.195   6.719   1.382 -1.1752 -0.5442  0.3603
 6244TIP3   OH240146   1.479   2.548  11.922 -0.5941 -0.0692  0.1952
 6244TIP3    H140147   1.547   2.612  11.899 -1.1036  0.5499  0.3923
 6244TIP3    H240148   1.427   2.541  11.842 -1.0710  0.4452  0.4540
 6245TIP3   OH240149   5.417   0.894  13.564 -0.4494  0.0077 -0.2134
 6245TIP3    H140150   5.424   0.980  13.606 -0.9072  0.5920 -1.3022
 6245TIP3    H240151   5.324   0.873  13.569 -0.5134  0.0988 -0.9439
 6246TIP3   OH240152   3.806   3.265   1.705  0.2863 -0.1889  0.3530
 6246TIP3    H140153   3.894   3.244   1.673 -0.5759 -0.9701 -1.7188
 6246TIP3    H240154   3.793   3.356   1.680 -0.3390 -0.7619 -1.5859
 6247TIP3   OH240155   2.052   5.516  11.058 -0.1775 -0.0844  0.1426
 6247TIP3    H140156   1.974   5.460  11.064 -1.1776  1.2636  0.3405
 6247TIP3    H240157   2.022   5.591  11.007  1.0922  0.3303 -0.0083
 6248TIP3   OH240158   3.157   0.167   1.712  0.3842  0.4933  0.0090
 6248TIP3    H140159   3.215   0.242   1.702  1.1505  0.1051  1.1951
 6248TIP3    H240160   3.207   0.106   1.767 -1.3934  0.4284  1.6769
 6249TIP3   OH240161   5.680   2.185  14.345  0.6405 -0.1770 -0.1449
 6249TIP3    H140162   5.708   2.096  14.366 -0.0246 -0.2772  0.3555
 6249TIP3    H240163   5.610   2.204  14.408  0.8950  0.7669 -0.1330
 6250TIP3   OH240164   5.440   5.103  14.442 -0.0041  0.4636  0.0115
 6250TIP3    H140165   5.379   5.030  14.442  0.1518  0.3323  0.1823
 6250TIP3    H240166   5.415   5.155  14.365  0.1732 -0.0104 -0.3744
 6251TIP3   OH240167   0.717   0.759  16.374 -0.1796 -0.6299  0.3800
 6251TIP3    H140168   0.674   0.811  16.443 -1.5920 -0.4304 -0.6220
 6251TIP3    H240169   0.647   0.739  16.312  1.0265 -0.9867 -0.9039
 6252TIP3   OH240170   3.376   1.336   6.211  0.1100  0.1978 -0.4007
 6252TIP3    H140171   3.417   1.261   6.169  0.1357 -0.5402  0.8796
 6252TIP3    H240172   3.408   1.412   6.162 -0.9231 -0.6782 -2.5342
 6253TIP3   OH240173   5.252   2.953  15.534  0.2951 -0.1422  0.1119
 6253TIP3    H140174   5.160   2.952  15.559  0.0620  2.6323 -0.2620
 6253TIP3    H240175   5.295   2.893  15.595 -1.3540  0.7073  2.2322
 6254TIP3   OH240176   1.122   6.322   1.509  0.1894 -0.2887  0.4994
 6254TIP3    H140177   1.081   6.287   1.430  0.3900  3.1689 -1.3365
 6254TIP3    H240178   1.200   6.269   1.521  0.2514 -0.8336 -1.7810
 6255TIP3   OH240179   0.812   1.889   5.159 -0.0056 -0.5448 -0.9133
 6255TIP3    H140180   0.740   1.924   5.107 -0.3129 -1.4269 -1.1149
 6255TIP3    H240181   0.839   1.961   5.216 -1.8022 -0.5128 -0.0354
 6256TIP3   OH240182   1.381   5.946  13.239 -0.4740 -0.3037  0.6247
 6256TIP3    H140183   1.468   5.975  13.268 -0.0019  0.3002 -1.2356
 6256TIP3    H240184   1.367   5.993  13.157 -2.1357 -1.1782  0.3776
 6257TIP3   OH240185   2.547   6.766  15.530  0.1634  0.0598  0.3021
 6257TIP3    H140186   2.606   6.828  15.574 -0.5154 -0.2919  1.7914
 6257TIP3    H240187   2.605   6.705  15.485  0.8553  1.6760 -1.1167
 6258TIP3   OH240188   1.756   3.689  16.833 -0.4648 -0.3005 -0.3721
 6258TIP3    H140189   1.774   3.596  16.843  3.2335 -0.0039 -2.4688
 6258TIP3    H240190   1.786   3.728  16.915 -0.3497 -0.7863 -0.1782
 6259TIP3   OH240191   3.831   4.947   0.269  0.2054  0.4778 -0.1268
 6259TIP3    H140192   3.771   4.958   0.195  1.4871  1.7032 -1.0399
 6259TIP3    H240193   3.898   4.886   0.237  0.7793  1.0336 -0.0092
 6260TIP3   OH240194   4.436   1.897  11.486 -0.6959 -0.2037 -0.6682
 6260TIP3    H140195   4.408   1.950  11.561 -2.5277 -1.5827 -0.3264
 6260TIP3    H240196   4.384   1.929  11.413  1.2432  1.2908 -1.4985
 6261TIP3   OH240197   2.974   4.128   2.923  0.1371 -0.4509  0.2741
 6261TIP3    H140198   2.887   4.088   2.919  0.2423 -0.6925  0.3812
 6261TIP3    H240199   3.034   4.054   2.934  0.1354 -0.1523  3.1121
 6262TIP3   OH240200   2.559   0.392  15.364 -0.1890 -0.3230 -0.6277
 6262TIP3    H140201   2.467   0.417  15.363 -0.1090 -0.0132 -1.6838
 6262TIP3    H240202   2.582   0.387  15.457 -1.1579 -0.0172 -0.3624
 6263TIP3   OH240203   4.784   2.303  14.415 -0.1292  0.2632 -0.3014
 6263TIP3    H140204   4.790   2.399  14.419 -1.0924  0.4830 -2.4760
 6263TIP3    H240205   4.875   2.274  14.403 -0.0058  1.0777 -1.5160
 6264TIP3   OH240206   3.289   2.745  13.912 -0.4612  0.7522 -0.4249
 6264TIP3    H140207   3.215   2.799  13.941 -1.1043  0.9481 -2.2553
 6264TIP3    H240208   3.250   2.660  13.891 -0.1357  0.7663 -1.1271
 6265TIP3   OH240209   5.763   6.080   4.763  0.2955 -0.3395  0.3677
 6265TIP3    H140210   5.671   6.059   4.783  0.3106 -0.8556 -0.0624
 6265TIP3    H240211   5.786   6.019   4.693  0.4155  1.0330 -0.8235
 6266TIP3   OH240212   5.608   6.181  16.972 -0.6951 -0.3208 -0.2748
 6266TIP3    H140213   5.698   6.155  16.953 -0.0658  1.2664  0.3910
 6266TIP3    H240214   5.573   6.212  16.888 -0.6999 -1.1011 -0.5726
 6267TIP3   OH240215   2.432   1.649   1.989 -0.0820 -0.0842  0.2121
 6267TIP3    H140216   2.524   1.628   2.003  0.3396  1.1540 -0.4994
 6267TIP3    H240217   2.394   1.651   2.077  0.8027  0.3427  0.6002
 6268TIP3   OH240218   3.663   4.475   4.454 -0.1414  0.1009  0.2442
 6268TIP3    H140219   3.571   4.483   4.480 -0.8044 -0.5586 -1.6988
 6268TIP3    H240220   3.671   4.529   4.376  1.1711  0.2351  0.4478
 6269TIP3   OH240221   3.344   1.999  13.354 -0.5794 -0.4199 -0.6212
 6269TIP3    H140222   3.254   1.991  13.384  0.1730  1.6705  2.7781
 6269TIP3    H240223   3.343   2.070  13.290 -1.2509  0.2431  0.1045
 6270TIP3   OH240224   5.646   5.289   1.194  0.3736  0.9826 -0.2957
 6270TIP3    H140225   5.665   5.382   1.184  0.4660  0.8286 -1.6958
 6270TIP3    H240226   5.551   5.282   1.185  0.2871  1.0167  0.5248
 6271TIP3   OH240227   0.315   5.777  15.695  0.4428  0.0760 -0.1818
 6271TIP3    H140228   0.335   5.721  15.770  0.2756 -0.1412 -0.3020
 6271TIP3    H240229   0.256   5.726  15.641  2.2820 -0.6754 -1.5945
 6272TIP3   OH240230   3.961   3.687   2.979 -0.9099  0.1485  1.2605
 6272TIP3    H140231   3.933   3.742   2.906  0.9927 -0.2089  0.2073
 6272TIP3    H240232   3.896   3.617   2.982 -0.9148  0.0542 -0.2482
 6273TIP3   OH240233   3.099   2.565  14.819 -0.0277 -0.0049 -0.0054
 6273TIP3    H140234   3.035   2.533  14.882  0.1866 -3.8939 -1.4204
 6273TIP3    H240235   3.184   2.546  14.859  0.1272 -0.5640 -0.5803
 6274TIP3   OH240236   6.117   3.029   0.424 -0.7129 -0.5208 -0.0224
 6274TIP3    H140237   6.086   2.996   0.508  0.1296  0.1013  0.5587
 6274TIP3    H240238   6.174   2.960   0.390 -1.0965 -0.7949 -0.1032
 6275TIP3   OH240239   3.679   0.514  15.629  0.4635  0.6180  0.4744
 6275TIP3    H140240   3.637   0.428  15.628  0.2829  0.6961  1.0514
 6275TIP3    H240241   3.612   0.572  15.666  0.5344  1.0327 -0.0489
 6276TIP3   OH240242   4.350   2.323   1.364 -0.2347  0.0287  0.3790
 6276TIP3    H140243   4.358   2.228   1.361 -0.3519  0.0386 -0.5161
 6276TIP3    H240244   4.264   2.342   1.326  0.2344  0.5369 -0.4869
 6277TIP3   OH240245   4.046   4.415   3.790  0.2285 -0.6468 -0.0607
 6277TIP3    H140246   4.077   4.391   3.703 -1.5333  0.6304 -1.1230
 6277TIP3    H240247   4.060   4.510   3.795 -0.3845 -0.5853  0.7388
 6278TIP3   OH240248   4.278   3.143  10.914 -0.7170 -0.0154 -0.1521
 6278TIP3    H140249   4.307   3.126  11.003  1.2171  1.6412 -0.3710
 6278TIP3    H240250   4.224   3.222  10.921  0.9083  1.2014 -0.5785
 6279TIP3   OH240251   3.118   5.455   1.331  0.0862  0.3423  0.4114
 6279TIP3    H140252   3.074   5.539   1.341 -2.0532 -0.6259 -0.2236
 6279TIP3    H240253   3.211   5.476   1.326 -0.3893  2.6301  0.4685
 6280TIP3   OH240254   6.591   4.040   2.612 -0.2847 -0.3503  0.2631
 6280TIP3    H140255   6.596   4.046   2.517 -1.8827 -3.6592 -0.1756
 6280TIP3    H240256   6.650   4.108   2.644  0.1468  1.0051 -3.0572
 6281TIP3   OH240257   1.599   5.547   1.896  0.2727 -0.4702  0.1571
 6281TIP3    H140258   1.526   5.491   1.867  1.0327 -0.7348 -1.3405
 6281TIP3    H240259   1.557   5.628   1.923 -0.7218 -1.2201  0.9478
 6282TIP3   OH240260   4.306   0.232  11.746  0.0490 -0.4301  0.2635
 6282TIP3    H140261   4.233   0.199  11.796 -0.1512 -1.9745 -0.9614
 6282TIP3    H240262   4.379   0.174  11.768  0.8175  0.7928  1.1017
 6283TIP3   OH240263   1.155   5.903   6.648 -1.2211 -0.2842  0.4811
 6283TIP3    H140264   1.240   5.891   6.607 -0.9698 -0.5296  1.0694
 6283TIP3    H240265   1.147   5.998   6.661 -1.4537 -0.1696 -0.4438
 6284TIP3   OH240266   4.911   5.522  11.401 -0.2670 -0.1449 -0.0790
 6284TIP3    H140267   4.944   5.531  11.312 -1.2610 -0.3495 -0.4797
 6284TIP3    H240268   4.949   5.595  11.449 -1.8810  1.6272 -1.3424
 6285TIP3   OH240269   3.678   5.145  13.941  0.2071  0.2434  0.9984
 6285TIP3    H140270   3.686   5.073  13.878  1.1982  0.3375  0.9989
 6285TIP3    H240271   3.615   5.205  13.902 -1.0358 -0.8555  1.2306
 6286TIP3   OH240272   5.849   5.041   3.777  0.2436 -0.0835 -0.6910
 6286TIP3    H140273   5.858   5.095   3.698 -0.7443 -2.6504 -2.6826
 6286TIP3    H240274   5.935   5.002   3.789  0.5675  0.7727 -0.0593
 6287TIP3   OH240275   4.852   5.022   2.478 -0.0357 -0.0941  0.2600
 6287TIP3    H140276   4.772   4.996   2.432 -1.0074  1.0109  1.2735
 6287TIP3    H240277   4.920   4.965   2.441 -1.6107 -2.4265  0.7226
 6288TIP3   OH240278   2.851   3.190   6.003  0.3825 -0.1242 -0.7375
 6288TIP3    H140279   2.847   3.285   6.012  0.0364  0.1925 -3.3468
 6288TIP3    H240280   2.921   3.175   5.938 -0.4718 -1.5283 -1.3885
 6289TIP3   OH240281   2.418   3.724  14.669 -0.1972 -0.1187 -0.5477
 6289TIP3    H140282   2.332   3.682  14.675  0.1191 -0.5226  2.7873
 6289TIP3    H240283   2.426   3.775  14.749  2.7676 -0.2718 -0.6342
 6290TIP3   OH240284   2.566   3.524  13.546 -0.3224 -0.0202 -0.2114
 6290TIP3    H140285   2.609   3.583  13.608  0.7938 -0.4614 -0.5492
 6290TIP3    H240286   2.621   3.446  13.546  0.6779  0.5958 -3.0139
 6291TIP3   OH240287   4.204   0.995  16.840 -0.3701 -0.0154 -0.0364
 6291TIP3    H140288   4.263   1.062  16.874 -1.9581  3.0239 -2.6866
 6291TIP3    H240289   4.118   1.020  16.874 -1.1292 -0.0468 -1.8256
 6292TIP3   OH240290   3.751   4.448   0.751 -0.0803 -0.2551 -0.2053
 6292TIP3    H140291   3.673   4.414   0.796  0.4474 -1.5102 -0.1911
 6292TIP3    H240292   3.809   4.372   0.744 -0.5593 -0.4331 -3.9887
 6293TIP3   OH240293   6.198   3.451   3.763 -0.2734 -0.5322  0.1950
 6293TIP3    H140294   6.158   3.521   3.815 -0.4001  0.5929 -1.3527
 6293TIP3    H240295   6.227   3.387   3.828  0.7189  1.3886  1.7913
 6294TIP3   OH240296   5.102   4.301   4.456  0.1547  0.0334 -0.1692
 6294TIP3    H140297   5.179   4.353   4.433  0.1504 -0.1323 -0.5723
 6294TIP3    H240298   5.135   4.231   4.512  0.2206  0.2514  0.0628
 6295TIP3   OH240299   6.714   6.479  11.666  0.3704  0.5771  0.2242
 6295TIP3    H140300   6.796   6.457  11.710 -0.4409 -1.1266  0.9693
 6295TIP3    H240301   6.698   6.406  11.607 -1.4581 -0.0079  1.3538
 6296TIP3   OH240302   2.393   5.397   4.384  0.3561 -0.3408 -0.0448
 6296TIP3    H140303   2.313   5.356   4.418  1.0567  0.4583  2.8353
 6296TIP3    H240304   2.448   5.323   4.357 -0.5044 -0.9996 -0.0429
 6297TIP3   OH240305   2.003   0.033   0.435  0.4231  0.2509 -0.1041
 6297TIP3    H140306   2.006   0.059   0.343  0.1560  1.0141  0.0959
 6297TIP3    H240307   1.913   0.005   0.449  0.2765  0.8086  0.0973
 6298TIP3   OH240308   6.137   1.692  10.896  0.2718 -0.3137 -0.3944
 6298TIP3    H140309   6.135   1.729  10.807  1.1822 -0.2985 -0.4228
 6298TIP3    H240310   6.092   1.757  10.950  1.7537  0.8319 -0.4604
 6299TIP3   OH240311   3.934   1.497  15.130  0.3710  0.3518  0.5963
 6299TIP3    H140312   3.988   1.526  15.057 -1.8285 -0.0436 -1.3028
 6299TIP3    H240313   3.874   1.432  15.092 -0.5760 -0.1984  2.8486
 6300TIP3   OH240314   0.122   3.729   1.424 -0.2942  0.8127 -0.7101
 6300TIP3    H140315   0.143   3.672   1.498 -0.7152  2.1594  0.5049
 6300TIP3    H240316   0.163   3.813   1.446 -3.1862  2.2442 -0.3171
 6301TIP3   OH240317   2.775   4.778  13.905 -0.3676 -0.2674 -0.6054
 6301TIP3    H140318   2.736   4.815  13.984  0.1906 -0.6658 -0.1413
 6301TIP3    H240319   2.704   4.779  13.841 -1.2132 -1.1488  0.2829
 6302TIP3   OH240320   4.484   1.997  14.851 -0.0381 -0.1588 -0.1021
 6302TIP3    H140321   4.452   2.021  14.938 -1.9383 -1.9137 -0.2302
 6302TIP3    H240322   4.555   2.059  14.833  1.3704 -0.5578  3.2514
 6303TIP3   OH240323   0.961   5.750   5.924 -0.4105 -0.5446  0.6297
 6303TIP3    H140324   0.884   5.799   5.898  0.0914  0.3039  0.7228
 6303TIP3    H240325   0.985   5.700   5.845  0.1700  0.7951 -0.0713
 6304TIP3   OH240326   4.845   1.685  14.294 -0.0312  0.1834 -0.1894
 6304TIP3    H140327   4.918   1.744  14.271  0.3001  0.4105  1.3205
 6304TIP3    H240328   4.770   1.720  14.247  0.7468  0.2055 -1.4396
 6305TIP3   OH240329   3.555   2.344   4.485  0.0364 -0.3315  0.0437
 6305TIP3    H140330   3.502   2.308   4.556 -0.2819 -0.9497 -0.4944
 6305TIP3    H240331   3.587   2.428   4.518 -0.3726 -0.4679  0.7904
 6306TIP3   OH240332   4.596   4.233  15.347 -0.0690  0.6097  0.4376
 6306TIP3    H140333   4.535   4.291  15.392 -0.8500  0.1715 -0.0266
 6306TIP3    H240334   4.568   4.144  15.371 -0.8601  0.3424 -1.3046
 6307TIP3   OH240335   4.458   1.630   1.943  0.1057 -0.1348 -0.3652
 6307TIP3    H140336   4.387   1.583   1.986  1.2661 -0.6317  1.1072
 6307TIP3    H240337   4.453   1.719   1.979  0.1240 -0.1254 -0.3859
 6308TIP3   OH240338   0.562   0.943  15.249  0.5177 -0.7359  0.4566
 6308TIP3    H140339   0.618   1.020  15.246 -0.8684  0.2824 -0.7841
 6308TIP3    H240340   0.591   0.890  15.175 -0.2386 -0.1345 -0.2805
 6309TIP3   OH240341   1.908   1.463  13.928  0.1947 -0.5959  0.1036
 6309TIP3    H140342   1.838   1.524  13.950 -0.1120 -0.9739  0.2057
 6309TIP3    H240343   1.869   1.404  13.863  1.3893  1.1039 -2.2892
 6310TIP3   OH240344   4.096   1.690   4.048 -0.0531  0.0415  0.1361
 6310TIP3    H140345   4.181   1.728   4.031 -0.3636  2.5233  3.2066
 6310TIP3    H240346   4.037   1.733   3.986  0.3964  0.9834  0.3428
 6311TIP3   OH240347   5.490   6.349  10.928 -0.3484 -0.2766  0.2137
 6311TIP3    H140348   5.551   6.278  10.948  1.5906  1.4513  0.7629
 6311TIP3    H240349   5.408   6.305  10.905  1.1837 -2.7260 -0.9271
 6312TIP3   OH240350   1.975   4.458   3.484  0.1697  0.3617 -0.3400
 6312TIP3    H140351   2.049   4.433   3.429  0.1911 -0.7727  0.1648
 6312TIP3    H240352   1.925   4.377   3.495 -0.1573  0.6893  0.7982
 6313TIP3   OH240353   0.085   6.271  16.053 -0.6253  0.6160  0.5890
 6313TIP3    H140354   0.081   6.307  15.964  0.0962  0.9541  0.6861
 6313TIP3    H240355   0.076   6.347  16.110  2.5361  0.9714  0.8083
 6314TIP3   OH240356   2.891   2.374  14.251  0.3102  0.1728 -0.3721
 6314TIP3    H140357   2.800   2.398  14.235 -0.6493 -2.2034  1.0913
 6314TIP3    H240358   2.887   2.286  14.287  3.1493  0.3422  0.5943
 6315TIP3   OH240359   3.094   3.819   4.102  0.4376  0.3627  0.3569
 6315TIP3    H140360   3.099   3.800   4.196  0.0786  1.8761  0.7130
 6315TIP3    H240361   3.016   3.874   4.093  0.8159  0.7368 -0.7399
 6316TIP3   OH240362   0.199   0.494   6.175  0.1262 -0.0971 -0.4451
 6316TIP3    H140363   0.117   0.521   6.215 -0.2533 -0.5029 -0.9260
 6316TIP3    H240364   0.189   0.519   6.083  0.1617 -0.9685 -0.6948
 6317TIP3   OH240365   5.810   5.846   1.424 -0.0190  0.3684  0.0179
 6317TIP3    H140366   5.855   5.916   1.470  0.7331  1.4452 -2.1988
 6317TIP3    H240367   5.725   5.838   1.468  0.3473  1.8473  1.0495
 6318TIP3   OH240368   4.101   6.479   4.936 -0.3324  0.3632 -0.0290
 6318TIP3    H140369   4.097   6.457   4.843  1.8154  1.0304 -0.3249
 6318TIP3    H240370   4.144   6.564   4.939 -0.2797  0.3066  1.5911
 6319TIP3   OH240371   6.037   4.170  16.157 -0.0404  0.4155  0.0692
 6319TIP3    H140372   6.124   4.188  16.194  0.7676  2.1823 -2.4547
 6319TIP3    H240373   6.007   4.093  16.205  1.3808  1.7370  3.4720
 6320TIP3   OH240374   3.873   5.474   3.409  0.2635  0.4890  0.5582
 6320TIP3    H140375   3.923   5.527   3.346  2.1174 -1.0318  0.6726
 6320TIP3    H240376   3.786   5.465   3.368  0.8226  1.1455 -0.8536
 6321TIP3   OH240377   0.596   5.013  13.198  0.2370 -0.3830  0.5065
 6321TIP3    H140378   0.606   5.075  13.126 -2.9391  0.5953  0.7451
 6321TIP3    H240379   0.685   4.982  13.216  1.5234  1.6498 -1.7543
 6322TIP3   OH240380   0.108   0.990   4.946 -0.2348 -0.0350 -0.0193
 6322TIP3    H140381   0.157   1.056   4.897 -0.4767 -1.1896 -1.9157
 6322TIP3    H240382   0.118   1.016   5.038  1.9457  1.0726 -0.4996
 6323TIP3   OH240383   3.719   3.210   5.003 -0.7984  0.4255 -0.0623
 6323TIP3    H140384   3.623   3.207   5.001 -0.9230  2.0934 -2.9166
 6323TIP3    H240385   3.746   3.127   4.964 -1.1516  0.6333 -0.7611
 6324TIP3   OH240386   0.318   2.579  15.434 -0.2053  0.4914  0.4702
 6324TIP3    H140387   0.373   2.501  15.431  0.4362  0.8837  1.5389
 6324TIP3    H240388   0.367   2.642  15.487 -1.3738  1.0973  0.8908
 6325TIP3   OH240389   1.715   0.148  13.664  0.3927 -0.2926 -0.3868
 6325TIP3    H140390   1.687   0.075  13.719  1.5415 -1.1956 -0.9460
 6325TIP3    H240391   1.634   0.181  13.625 -0.2279 -0.8146  0.4226
 6326TIP3   OH240392   3.824   4.734   0.789 -0.5472  0.0200 -0.3225
 6326TIP3    H140393   3.830   4.702   0.879  1.4966 -0.0093 -0.4254
 6326TIP3    H240394   3.764   4.673   0.746 -0.3095 -0.9027  0.6264
 6327TIP3   OH240395   3.428   4.205   6.307 -0.2588  0.7881  0.2221
 6327TIP3    H140396   3.503   4.171   6.258  0.2056 -0.8359  1.9599
 6327TIP3    H240397   3.381   4.128   6.336 -2.4109  1.7787 -0.4456
 6328TIP3   OH240398   3.538   1.979   2.464 -0.5226  0.1494  0.3840
 6328TIP3    H140399   3.459   1.964   2.515  0.0802  1.9762  1.9707
 6328TIP3    H240400   3.516   2.053   2.407 -0.2343  0.0903  0.1922
 6329TIP3   OH240401   0.062   0.621   5.035  0.1792 -0.2878 -0.1519
 6329TIP3    H140402  -0.018   0.585   5.074 -0.2421 -0.9428 -1.5496
 6329TIP3    H240403   0.072   0.573   4.953  2.7512 -1.1716  0.5765
 6330TIP3   OH240404   4.229   2.716  15.755  0.0100  0.1357 -0.2205
 6330TIP3    H140405   4.264   2.666  15.829  0.0064 -0.4214 -0.5919
 6330TIP3    H240406   4.166   2.657  15.714 -1.4738  1.1576  0.4966
 6331TIP3   OH240407   0.489   3.863  15.144 -0.1423 -0.0001  0.5067
 6331TIP3    H140408   0.400   3.885  15.174 -0.0634  0.3600  0.4875
 6331TIP3    H240409   0.544   3.928  15.187 -0.0082  0.4474 -0.3250
 6332TIP3   OH240410   4.198   3.018   3.316 -0.9163 -0.3827  0.1007
 6332TIP3    H140411   4.181   2.927   3.342  0.6510 -0.9038 -0.5823
 6332TIP3    H240412   4.112   3.052   3.292 -1.6471 -1.4441  1.1076
 6333TIP3   OH240413   0.456   4.921  11.886  0.1925  0.3842 -0.2188
 6333TIP3    H140414   0.401   4.973  11.827  0.2772  0.4581 -0.2332
 6333TIP3    H240415   0.528   4.980  11.909  0.9936 -0.1506 -1.2684
 6334TIP3   OH240416   3.894   2.806   1.495  0.1850  0.1506 -0.0743
 6334TIP3    H140417   3.952   2.745   1.541 -0.2024  0.5941  1.0457
 6334TIP3    H240418   3.953   2.866   1.449  0.5784 -0.3797 -0.2750
 6335TIP3   OH240419   3.821   5.678   4.997 -0.0829 -0.5294  0.2046
 6335TIP3    H140420   3.771   5.597   5.005 -0.7163 -0.3836 -1.7963
 6335TIP3    H240421   3.882   5.675   5.070  0.2454 -3.0680 -0.0649
 6336TIP3   OH240422   3.198   1.618  13.301  1.1921 -0.1614  0.3713
 6336TIP3    H140423   3.134   1.662  13.356  0.9617  0.5680 -0.4553
 6336TIP3    H240424   3.152   1.542  13.265  1.4904 -0.9291  1.5339
 6337TIP3   OH240425   5.630   4.972  13.008 -0.1310 -0.1084 -0.8398
 6337TIP3    H140426   5.694   5.023  12.959 -1.7238 -0.1711 -3.1112
 6337TIP3    H240427   5.552   5.026  13.009 -0.1545 -0.0377  1.8733
 6338TIP3   OH240428   1.120   4.624   0.317  0.2012 -0.3934  0.5060
 6338TIP3    H140429   1.112   4.544   0.369  0.8457 -0.5644  0.3548
 6338TIP3    H240430   1.159   4.687   0.377  0.7266 -0.5220  0.3056
 6339TIP3   OH240431   2.601   3.534   4.005  0.2221  0.1330 -0.0486
 6339TIP3    H140432   2.629   3.458   4.057 -0.7633  0.5687  1.1834
 6339TIP3    H240433   2.610   3.506   3.914  1.0444 -1.0263  0.3689
 6340TIP3   OH240434   1.292   1.440  12.528 -0.6010 -0.3736  0.3069
 6340TIP3    H140435   1.386   1.457  12.524 -0.6834 -0.0917 -1.8719
 6340TIP3    H240436   1.283   1.349  12.498 -1.0385 -0.3929  0.4848
 6341TIP3   OH240437   0.586   1.921  16.307  0.4011 -0.3815 -0.2693
 6341TIP3    H140438   0.678   1.948  16.296  0.6256 -1.1050 -0.2105
 6341TIP3    H240439   0.535   1.996  16.276  0.9864  0.8437  1.5087
 6342TIP3   OH240440   3.083   6.570   2.192 -0.4168 -0.1471 -0.5229
 6342TIP3    H140441   3.006   6.565   2.249 -2.3011  1.2742 -2.7530
 6342TIP3    H240442   3.063   6.508   2.121  0.2669  0.5806 -1.3663
 6343TIP3   OH240443   4.161   4.329  12.839 -0.2818 -0.0047  0.3959
 6343TIP3    H140444   4.202   4.266  12.781 -2.2206 -1.2940  0.3386
 6343TIP3    H240445   4.152   4.283  12.923 -0.7842  0.5352  0.6525
 6344TIP3   OH240446   1.013   3.153  11.798 -0.1781 -0.3340 -0.0558
 6344TIP3    H140447   0.957   3.224  11.766 -1.2572 -1.4924 -0.8390
 6344TIP3    H240448   0.978   3.132  11.885  0.8579  0.8083  0.6718
 6345TIP3   OH240449   3.855   1.763   3.349  0.1666 -0.2017 -0.1449
 6345TIP3    H140450   3.926   1.801   3.401 -0.7790  1.2481  0.1334
 6345TIP3    H240451   3.857   1.812   3.267 -0.5168 -0.1467 -0.1283
 6346TIP3   OH240452   3.870   0.339  13.812 -0.0578  0.8571 -0.7421
 6346TIP3    H140453   3.960   0.323  13.784  0.2832 -0.7065  1.0297
 6346TIP3    H240454   3.816   0.311  13.738  0.8653  1.9286 -1.8735
 6347TIP3   OH240455   2.270   4.929   4.257 -0.0956  0.3165 -0.3827
 6347TIP3    H140456   2.244   4.882   4.178  0.2969 -1.7978  0.6803
 6347TIP3    H240457   2.365   4.917   4.262 -0.0631  0.7578  0.2191
 6348TIP3   OH240458   1.324   6.646   1.724  0.4092  0.0626 -0.1506
 6348TIP3    H140459   1.308   6.560   1.764  0.3374  0.0052 -0.3007
 6348TIP3    H240460   1.392   6.685   1.779  1.5093 -0.6899 -0.9307
 6349TIP3   OH240461   6.531   5.496  12.463 -0.0946  0.1592 -0.1922
 6349TIP3    H140462   6.436   5.502  12.477  0.0266 -0.2226  0.8129
 6349TIP3    H240463   6.550   5.402  12.465 -0.1423 -0.0590 -3.6520
 6350TIP3   OH240464   5.555   3.048   0.777  0.1601 -0.2056 -0.1194
 6350TIP3    H140465   5.528   3.132   0.740 -0.0636 -0.6073 -0.9062
 6350TIP3    H240466   5.597   3.070   0.860 -1.2628  0.5610  0.4362
 6351TIP3   OH240467   2.645   1.988   5.001 -0.0271  0.5027  0.3632
 6351TIP3    H140468   2.622   2.027   4.917 -2.3352 -1.3320  0.0383
 6351TIP3    H240469   2.727   1.942   4.985 -0.9558 -0.6884 -1.2294
 6352TIP3   OH240470   1.189   4.449   3.184 -0.7862 -0.4743  0.3196
 6352TIP3    H140471   1.229   4.516   3.238  1.0824  0.0529 -1.5748
 6352TIP3    H240472   1.166   4.493   3.102 -1.7538 -1.6335 -0.0791
 6353TIP3   OH240473   3.546   3.751   2.760  0.0106  0.3109  0.7373
 6353TIP3    H140474   3.570   3.669   2.718  1.7265  1.9297 -1.7524
 6353TIP3    H240475   3.451   3.757   2.751 -0.0520 -1.0664  0.3770
 6354TIP3   OH240476   4.097   1.823   0.208  0.3489  0.0434  0.3189
 6354TIP3    H140477   4.017   1.873   0.224 -0.0376 -0.4690  0.0305
 6354TIP3    H240478   4.145   1.827   0.290 -0.8048 -1.1305  1.0916
 6355TIP3   OH240479   4.508   2.451  15.337 -0.2828  0.0931  0.3663
 6355TIP3    H140480   4.501   2.417  15.427 -0.5252 -0.3408  0.1829
 6355TIP3    H240481   4.583   2.405  15.300 -0.4955 -0.1104  0.1817
 6356TIP3   OH240482   5.737   3.940  11.220  0.7467 -0.2883  0.7722
 6356TIP3    H140483   5.684   3.990  11.282  0.5717 -0.7549  1.0074
 6356TIP3    H240484   5.680   3.926  11.145  0.7157 -0.3354  0.8044
 6357TIP3   OH240485   1.481   6.671   1.499  0.1286  0.0790  0.4485
 6357TIP3    H140486   1.462   6.607   1.431  0.0959  0.9440 -0.3768
 6357TIP3    H240487   1.413   6.656   1.565 -0.6552  0.1033 -0.3359
 6358TIP3   OH240488   2.240   6.100   0.591  0.0215  0.0333  0.3084
 6358TIP3    H140489   2.330   6.090   0.621 -0.4598 -0.4794  1.6606
 6358TIP3    H240490   2.234   6.191   0.563  1.3568 -0.3115 -1.2466
 6359TIP3   OH240491   0.523   2.311  10.897  0.6381 -0.2753 -0.4107
 6359TIP3    H140492   0.513   2.254  10.821 -2.1800 -1.2262  0.5212
 6359TIP3    H240493   0.512   2.400  10.862 -0.4255 -0.6904 -1.2029
 6360TIP3   OH240494   5.928   0.234   2.473 -0.3192 -0.3350 -0.5009
 6360TIP3    H140495   5.903   0.226   2.565 -1.2653 -0.4421 -0.7557
 6360TIP3    H240496   5.897   0.321   2.448  0.7845  0.0818 -0.4776
 6361TIP3   OH240497   2.715   1.310  11.191  0.1503  0.6205  0.0336
 6361TIP3    H140498   2.772   1.321  11.115  0.8883  2.0075  0.7482
 6361TIP3    H240499   2.729   1.220  11.218 -0.3304  0.0110 -1.6163
 6362TIP3   OH240500   4.575   2.172  12.999  0.1145 -0.3156  0.2198
 6362TIP3    H140501   4.625   2.238  13.048  0.0648  1.2158 -1.6996
 6362TIP3    H240502   4.625   2.158  12.919  0.9809 -3.8928  1.2032
 6363TIP3   OH240503   3.883   4.741   5.014 -0.1334 -0.4627 -0.0141
 6363TIP3    H140504   3.863   4.835   5.016 -0.0755 -0.4505 -0.0379
 6363TIP3    H240505   3.855   4.712   4.927  0.6818 -0.2895 -0.3452
 6364TIP3   OH240506   4.299   6.219   0.825  0.4864  0.6097 -0.6853
 6364TIP3    H140507   4.328   6.139   0.782  1.1936  0.4289  0.1038
 6364TIP3    H240508   4.208   6.202   0.850  1.2418 -0.7710  1.3567
 6365TIP3   OH240509   4.122   5.458   6.904 -0.1554 -0.1354  0.2972
 6365TIP3    H140510   4.034   5.426   6.926 -0.0211 -0.4183  0.4273
 6365TIP3    H240511   4.115   5.487   6.813 -0.7812  1.2742  0.7588
 6366TIP3   OH240512   1.626   0.901   5.130  0.0174  0.3326  0.2020
 6366TIP3    H140513   1.719   0.887   5.110  0.8860  0.9412  3.3226
 6366TIP3    H240514   1.580   0.873   5.051  2.7668 -1.2038 -0.9900
 6367TIP3   OH240515   2.895   5.983   0.155 -0.3415  0.3248  0.1393
 6367TIP3    H140516   2.988   6.005   0.151 -0.6486  2.2017  1.7605
 6367TIP3    H240517   2.885   5.911   0.094  2.2221 -0.0968  0.1022
 6368TIP3   OH240518   3.328   1.975   0.116 -0.1304  0.4015  0.5217
 6368TIP3    H140519   3.279   1.907   0.162  0.9395  0.4398  1.7580
 6368TIP3    H240520   3.273   2.053   0.123 -0.9248 -0.0875 -0.0808
 6369TIP3   OH240521   6.085   2.271   5.459 -0.2900 -0.0668 -0.0494
 6369TIP3    H140522   6.024   2.333   5.419 -1.5974 -0.3884  1.3605
 6369TIP3    H240523   6.059   2.186   5.424 -1.7115 -0.4049  1.6929
 6370TIP3   OH240524   6.061   2.903   1.064  0.3328  0.3651 -0.4190
 6370TIP3    H140525   6.103   2.937   1.143  0.8037 -1.1655  0.0305
 6370TIP3    H240526   6.110   2.824   1.043 -2.2596 -1.5499  0.1357
 6371TIP3   OH240527   4.501   5.296   5.045 -0.2551 -0.8051  0.4783
 6371TIP3    H140528   4.569   5.233   5.069  0.2713  0.1557  1.5886
 6371TIP3    H240529   4.442   5.296   5.120 -1.9916 -2.2267 -0.7962
 6372TIP3   OH240530   5.820   6.641   2.815 -0.4239 -0.2823 -0.4788
 6372TIP3    H140531   5.788   6.587   2.888  3.4486 -1.2523  0.7446
 6372TIP3    H240532   5.878   6.582   2.766  1.1363  1.7762 -1.2472
 6373TIP3   OH240533   0.559   4.773   0.129  0.1222  0.1013  0.9765
 6373TIP3    H140534   0.573   4.737   0.217  1.5018 -1.8454  0.0468
 6373TIP3    H240535   0.465   4.789   0.124 -0.1171 -0.6049  2.5125
 6374TIP3   OH240536   3.539   3.741  13.198  0.2515 -0.3094  0.5154
 6374TIP3    H140537   3.498   3.738  13.112  0.2491  3.0879  0.2696
 6374TIP3    H240538   3.632   3.751  13.180  0.0292  3.2202  0.6834
 6375TIP3   OH240539   5.595   5.456  15.024 -0.5971  0.3220 -0.5810
 6375TIP3    H140540   5.583   5.551  15.022  1.0040  0.5792 -2.9558
 6375TIP3    H240541   5.553   5.425  14.943  1.3586 -0.5572 -1.3427
 6376TIP3   OH240542   0.498   5.803  11.702 -1.0771  0.0188  0.1860
 6376TIP3    H140543   0.496   5.872  11.637 -2.4069  0.0195  0.2054
 6376TIP3    H240544   0.564   5.831  11.766  0.3083 -0.0234 -1.1611
 6377TIP3   OH240545   5.422   4.547   2.207 -0.8130  0.2926 -0.4223
 6377TIP3    H140546   5.410   4.573   2.298 -2.1653  0.4956 -0.6334
 6377TIP3    H240547   5.494   4.602   2.176 -0.1200 -0.0158  0.6079
 6378TIP3   OH240548   3.484   5.257   3.439  0.6460 -0.1469  0.2126
 6378TIP3    H140549   3.439   5.324   3.490 -0.6864 -0.5927 -0.3342
 6378TIP3    H240550   3.542   5.215   3.501 -1.2540 -0.9748  1.5217
 6379TIP3   OH240551   1.551   5.614   6.881  0.2625  0.1278 -0.6628
 6379TIP3    H140552   1.537   5.606   6.787 -1.6260  1.5644 -0.5606
 6379TIP3    H240553   1.562   5.708   6.895  1.2461 -0.1305  0.4912
 6380TIP3   OH240554   6.643   4.544  15.654 -0.6277  0.2024 -0.0564
 6380TIP3    H140555   6.686   4.539  15.739  0.3235  0.7364 -0.4774
 6380TIP3    H240556   6.696   4.488  15.597 -0.1488  1.2904 -0.7117
 6381TIP3   OH240557   2.580   3.091   3.234  0.2684  0.0838  0.1429
 6381TIP3    H140558   2.654   3.078   3.293  0.6275 -0.6944 -0.4628
 6381TIP3    H240559   2.551   3.181   3.252  2.2363  0.9194 -0.5645
 6382TIP3   OH240560   5.581   3.867   5.536  0.1332  0.1944 -1.2672
 6382TIP3    H140561   5.533   3.948   5.552 -1.3416 -0.7658 -0.6059
 6382TIP3    H240562   5.661   3.894   5.491  0.1409  2.0954 -0.1732
 6383TIP3   OH240563   4.538   5.810  13.488 -0.0245  0.6599  0.6329
 6383TIP3    H140564   4.623   5.797  13.531  0.5657 -0.7925 -0.8863
 6383TIP3    H240565   4.476   5.765  13.545  0.5270  0.0241  0.7470
 6384TIP3   OH240566   2.313   5.787   2.468 -0.1098 -0.5466  0.3067
 6384TIP3    H140567   2.245   5.721   2.451  0.7602 -1.4830  0.4001
 6384TIP3    H240568   2.352   5.805   2.382  0.6150 -1.2324  0.4808
 6385TIP3   OH240569   0.094   1.056  16.756 -0.1906 -0.3393 -0.0229
 6385TIP3    H140570   0.089   1.039  16.662 -0.8312  1.1431 -0.2905
 6385TIP3    H240571   0.098   1.152  16.763 -2.0312 -0.3076  1.5117
 6386TIP3   OH240572   1.078   1.268  11.973 -0.2548 -0.4695  0.5080
 6386TIP3    H140573   1.125   1.316  12.041  0.2127 -1.1585  0.6814
 6386TIP3    H240574   1.137   1.267  11.898 -0.4553 -0.3724  0.3460
 6387TIP3   OH240575   5.534   4.137  17.000 -0.1292  0.4531 -0.2641
 6387TIP3    H140576   5.620   4.179  17.008 -0.7635  1.9629 -0.9081
 6387TIP3    H240577   5.484   4.172  17.075 -0.1938 -0.4085  0.1014
 6388TIP3   OH240578   5.938   0.613  11.432 -0.2264 -0.3441  0.5551
 6388TIP3    H140579   5.965   0.647  11.346  0.2558  0.8747  1.1641
 6388TIP3    H240580   5.916   0.522  11.415  1.4169 -0.5935 -0.5669
 6389TIP3   OH240581   1.701   3.257   1.392 -0.3426 -0.2744 -0.8196
 6389TIP3    H140582   1.679   3.244   1.300  0.9417  0.1003 -1.1947
 6389TIP3    H240583   1.792   3.228   1.400  0.7461  2.8427 -0.4549
 6390TIP3   OH240584   2.295   3.760  11.814 -0.6738  0.1848 -0.0718
 6390TIP3    H140585   2.286   3.802  11.900 -1.1315 -0.7106  0.3272
 6390TIP3    H240586   2.371   3.803  11.775 -0.6643  0.8423  0.6389
 6391TIP3   OH240587   1.481   2.752  13.800 -0.0941  0.2066  0.1032
 6391TIP3    H140588   1.515   2.764  13.712 -3.6138  1.8531 -1.1844
 6391TIP3    H240589   1.462   2.840  13.831  1.9699 -0.2203  3.0491
 6392TIP3   OH240590   2.229   0.427   0.242 -0.2454 -0.5141 -0.0496
 6392TIP3    H140591   2.193   0.339   0.257  0.4307 -0.7447  0.2274
 6392TIP3    H240592   2.304   0.433   0.300  1.1789 -0.6455 -1.7896
 6393TIP3   OH240593   2.226   0.931   1.393 -0.2011 -0.1174 -0.0077
 6393TIP3    H140594   2.234   1.016   1.351  0.7192 -0.8564 -1.4009
 6393TIP3    H240595   2.289   0.934   1.465  0.2656  0.1802 -0.4196
 6394TIP3   OH240596   5.766   3.116  13.593  0.1482 -0.0429 -0.3525
 6394TIP3    H140597   5.757   3.038  13.539 -0.5972  0.8277 -1.5269
 6394TIP3    H240598   5.765   3.189  13.531  1.9564  0.8729  0.6109
 6395TIP3   OH240599   1.413   1.520   3.834 -0.2239 -0.9780 -0.0738
 6395TIP3    H140600   1.439   1.607   3.803  0.9074 -0.8303  1.1935
 6395TIP3    H240601   1.318   1.527   3.848 -0.4593 -0.5262 -1.7101
 6396TIP3   OH240602   0.167   4.961  11.144 -0.3846  0.3842 -0.3076
 6396TIP3    H140603   0.118   4.880  11.133 -0.8637  0.7323 -0.8202
 6396TIP3    H240604   0.236   4.940  11.206 -1.1837 -0.1258  0.4248
 6397TIP3   OH240605   5.583   4.106  14.789  0.0146  0.1419  0.0265
 6397TIP3    H140606   5.594   4.070  14.700  0.9429 -0.7054  0.4651
 6397TIP3    H240607   5.504   4.160  14.783 -0.4193 -0.5697 -1.1088
 6398TIP3   OH240608   0.538   1.625  15.054  0.3084 -0.3185 -0.1985
 6398TIP3    H140609   0.567   1.705  15.099  0.6709 -1.4535  1.7072
 6398TIP3    H240610   0.444   1.622  15.068  0.2328  0.0047 -0.6494
 6399TIP3   OH240611   0.564   5.105  16.531 -0.0509  0.0720 -0.4286
 6399TIP3    H140612   0.604   5.065  16.608 -0.1568 -0.5646 -0.6989
 6399TIP3    H240613   0.521   5.033  16.486 -2.2657  0.8343  0.2890
 6400TIP3   OH240614   5.985   1.155   5.906 -0.3867  0.5940  0.6396
 6400TIP3    H140615   5.892   1.137   5.893  0.0974 -1.6098 -0.1142
 6400TIP3    H240616   6.024   1.144   5.819  0.5357  1.9547  0.8411
 6401TIP3   OH240617   3.691   0.662   0.410  0.0762  0.3854 -0.2912
 6401TIP3    H140618   3.737   0.711   0.477  0.0478 -0.6958  0.5472
 6401TIP3    H240619   3.598   0.671   0.433  0.1408 -1.0937  0.6183
 6402TIP3   OH240620   0.868   3.242  15.025  0.3634 -0.8766  0.0812
 6402TIP3    H140621   0.878   3.153  15.059 -0.4259 -0.5935  1.0823
 6402TIP3    H240622   0.902   3.299  15.094 -3.3614 -0.1555  1.5699
 6403TIP3   OH240623   6.378   6.647   2.737  0.4770 -0.1695 -0.0442
 6403TIP3    H140624   6.459   6.690   2.763  0.3575 -0.8348  1.5413
 6403TIP3    H240625   6.338   6.618   2.819 -1.5407  0.4218 -0.7373
 6404TIP3   OH240626   0.153   2.224  15.717 -0.0098  0.5226 -0.0187
 6404TIP3    H140627   0.163   2.129  15.725  1.3109  0.6820  0.4820
 6404TIP3    H240628   0.130   2.253  15.805 -2.5134  0.4857 -0.5843
 6405TIP3   OH240629   0.599   2.841   6.079  0.5617 -0.7186  0.5794
 6405TIP3    H140630   0.585   2.751   6.108  1.2842 -1.1633 -0.4022
 6405TIP3    H240631   0.535   2.892   6.128 -0.4519 -1.8838  0.5230
 6406TIP3   OH240632   5.738   3.627   0.049 -0.6550  0.0230 -0.2055
 6406TIP3    H140633   5.690   3.605   0.129 -0.6112  1.4268  0.2308
 6406TIP3    H240634   5.828   3.638   0.077 -0.4985 -0.2243 -0.5980
 6407TIP3   OH240635   1.476   2.185   1.209 -0.1503  0.2374  0.0484
 6407TIP3    H140636   1.486   2.218   1.120  1.4145  0.1694  0.1812
 6407TIP3    H240637   1.565   2.175   1.241 -0.6492 -1.4202  1.0133
 6408TIP3   OH240638   1.307   5.292  13.177  0.9073 -0.0432 -0.1746
 6408TIP3    H140639   1.366   5.363  13.201 -0.0921  1.3819 -1.7677
 6408TIP3    H240640   1.226   5.310  13.225 -0.2832  1.5036 -2.5822
 6409TIP3   OH240641   3.446   2.772  14.659 -0.2159 -0.8878 -0.7761
 6409TIP3    H140642   3.447   2.678  14.645 -0.6687 -0.6283 -2.8327
 6409TIP3    H240643   3.527   2.791  14.706 -0.2915 -2.3245 -0.0260
 6410TIP3   OH240644   2.807   0.055   5.576 -0.3626  0.5041 -0.1134
 6410TIP3    H140645   2.828   0.099   5.494 -1.0197  0.5550 -0.2627
 6410TIP3    H240646   2.809  -0.038   5.555 -0.4793  0.5156 -0.1764
 6411TIP3   OH240647   1.189   2.037   3.575  0.5492  0.1818 -0.3094
 6411TIP3    H140648   1.158   2.128   3.575  1.4944  0.5444 -1.6605
 6411TIP3    H240649   1.277   2.043   3.536  0.6929 -1.2946 -0.2408
 6412TIP3   OH240650   5.421   2.746   6.233 -0.6297  0.0116  0.6505
 6412TIP3    H140651   5.467   2.662   6.237 -0.4295  0.1324  1.0074
 6412TIP3    H240652   5.484   2.809   6.268 -0.8927  0.2589  0.6825
 6413TIP3   OH240653   4.176   6.252   3.538 -0.1288  0.0850  0.2818
 6413TIP3    H140654   4.245   6.239   3.603  0.0742 -0.2280  0.0031
 6413TIP3    H240655   4.128   6.328   3.570  0.9130  0.8905 -0.0072
 6414TIP3   OH240656   1.485   5.555   1.195  0.3614  0.3835  0.6576
 6414TIP3    H140657   1.484   5.481   1.257 -1.3028  0.0022  0.2078
 6414TIP3    H240658   1.502   5.515   1.110  0.5078  0.6580  0.5558
 6415TIP3   OH240659   6.664   0.451   3.264 -0.0381 -0.1805 -0.4170
 6415TIP3    H140660   6.715   0.498   3.330 -1.2523  1.7878 -0.8029
 6415TIP3    H240661   6.584   0.425   3.309 -0.1759 -0.2484 -0.6977
 6416TIP3   OH240662   5.787   6.000   5.411 -0.0239 -1.1450 -0.1492
 6416TIP3    H140663   5.701   5.985   5.448 -0.1043  0.6247  0.4641
 6416TIP3    H240664   5.772   6.001   5.316 -0.9874  0.5735 -0.0295
 6417TIP3   OH240665   2.032   3.441   5.174 -0.5681 -0.2454 -0.6849
 6417TIP3    H140666   1.975   3.451   5.250  1.8137  0.3548  1.1372
 6417TIP3    H240667   2.079   3.359   5.190 -0.9219 -0.7783 -2.2023
 6418TIP3   OH240668   2.297   2.590  15.037  0.0764 -0.7203 -0.3829
 6418TIP3    H140669   2.239   2.523  15.076  1.1441 -0.1773  2.4118
 6418TIP3    H240670   2.385   2.560  15.059  0.5773  1.6425  1.1313
 6419TIP3   OH240671   4.589   0.423  14.896 -0.7258 -0.0743  1.2309
 6419TIP3    H140672   4.528   0.362  14.939 -0.0836 -0.5481  1.4857
 6419TIP3    H240673   4.656   0.367  14.857 -0.8326  0.4024  0.3312
 6420TIP3   OH240674   4.686   2.549  12.551  0.4738  0.4681 -0.4276
 6420TIP3    H140675   4.624   2.621  12.543  1.1056  1.2580  1.2463
 6420TIP3    H240676   4.769   2.591  12.572  0.9107 -0.7231  0.3225
 6421TIP3   OH240677   0.386   3.208   0.759 -0.0038  0.1369 -0.1981
 6421TIP3    H140678   0.413   3.126   0.798 -0.0384  0.7014  1.0509
 6421TIP3    H240679   0.444   3.220   0.684  1.3665 -0.0349  0.8032
 6422TIP3   OH240680   0.991   4.973   3.388  0.1842 -0.8790  0.0130
 6422TIP3    H140681   1.048   5.019   3.450  2.1234 -2.9567 -0.0739
 6422TIP3    H240682   1.051   4.931   3.327 -1.6440  0.5119 -2.9505
 6423TIP3   OH240683   2.736   4.819   1.094 -0.6988 -0.8781 -0.9759
 6423TIP3    H140684   2.741   4.727   1.122 -1.6996 -0.3800  0.9447
 6423TIP3    H240685   2.661   4.855   1.141 -0.1146  1.0380 -1.4261
 6424TIP3   OH240686   0.269   4.739  15.078 -0.8531  0.0404 -0.3049
 6424TIP3    H140687   0.335   4.761  15.144  0.6957 -0.1778 -1.7387
 6424TIP3    H240688   0.261   4.818  15.025  1.5338 -1.2643 -2.8085
 6425TIP3   OH240689   0.733   2.564  12.864 -0.5157  0.0137  0.7655
 6425TIP3    H140690   0.786   2.635  12.828  0.0531 -0.6841  0.1843
 6425TIP3    H240691   0.739   2.575  12.959  1.0120 -0.2719  0.7222
 6426TIP3   OH240692   2.342   1.059  16.138  0.4100  0.2338  0.1186
 6426TIP3    H140693   2.376   0.976  16.104 -0.1453 -0.6394  1.5635
 6426TIP3    H240694   2.388   1.072  16.221 -0.1349  0.9232  0.3285
 6427TIP3   OH240695   1.225   1.635  16.450  0.4939  0.8030 -0.1511
 6427TIP3    H140696   1.270   1.608  16.370 -1.1599 -1.4999 -0.3822
 6427TIP3    H240697   1.270   1.589  16.520 -0.4646 -0.2637 -0.2145
 6428TIP3   OH240698   0.104   2.955  12.375 -0.5298 -0.0722 -0.3831
 6428TIP3    H140699   0.151   3.035  12.397  1.0488 -0.9680 -0.3114
 6428TIP3    H240700   0.058   2.976  12.294  2.0041  0.1890 -1.8779
 6429TIP3   OH240701   2.094   6.468  14.975  0.2054  0.3683  0.4257
 6429TIP3    H140702   2.103   6.537  15.040 -1.2854  0.0750  0.9813
 6429TIP3    H240703   2.062   6.513  14.896 -1.0336  0.3022  0.8711
 6430TIP3   OH240704   1.213   0.710  13.811 -0.1002 -0.0662 -0.0379
 6430TIP3    H140705   1.226   0.701  13.717  1.3802 -2.1140  0.2852
 6430TIP3    H240706   1.301   0.724  13.847 -0.8898  3.7328  0.8880
 6431TIP3   OH240707   4.026   5.164   2.426  0.0926 -0.5858 -0.1113
 6431TIP3    H140708   4.016   5.113   2.345 -0.7838 -0.1779 -0.2671
 6431TIP3    H240709   4.010   5.100   2.496 -4.2023 -0.0177 -0.3093
 6432TIP3   OH240710   6.089   2.640  14.965  0.0768  0.3137  0.4457
 6432TIP3    H140711   6.147   2.614  15.037 -2.4304 -1.9801  1.8068
 6432TIP3    H240712   6.054   2.557  14.932 -0.6879  1.4752 -1.8415
 6433TIP3   OH240713   5.357   6.590  13.824 -0.1212 -1.0673  0.0677
 6433TIP3    H140714   5.327   6.558  13.739 -3.5525  1.9542 -0.1048
 6433TIP3    H240715   5.344   6.515  13.883 -2.7081 -1.7476 -1.1832
 6434TIP3   OH240716   0.547   0.013  15.753  0.1296  0.3459  0.1258
 6434TIP3    H140717   0.618   0.077  15.753 -0.1786  0.7045  1.2443
 6434TIP3    H240718   0.485   0.045  15.688  0.1867  0.9523  0.3665
 6435TIP3   OH240719   0.578   5.709  13.795  0.0945 -0.2277 -0.0629
 6435TIP3    H140720   0.617   5.744  13.715 -0.2878 -0.1474 -0.2164
 6435TIP3    H240721   0.643   5.648  13.829  1.2082  1.3292  0.7438
 6436TIP3   OH240722   4.681   3.329  13.789 -0.1008 -0.5002 -0.0704
 6436TIP3    H140723   4.679   3.290  13.877 -1.4016 -1.5547 -0.5354
 6436TIP3    H240724   4.592   3.360  13.774  0.3890  0.7225 -0.5916
 6437TIP3   OH240725   0.551   3.016   5.829  0.3536 -0.3024  0.1854
 6437TIP3    H140726   0.476   2.998   5.886 -0.9245  0.9030 -1.0260
 6437TIP3    H240727   0.580   2.929   5.800 -0.7883 -0.7839  0.4189
 6438TIP3   OH240728   6.513   0.266  16.994  0.0505  0.3090  0.0463
 6438TIP3    H140729   6.591   0.299  16.949 -0.1647 -0.3264 -0.8056
 6438TIP3    H240730   6.445   0.264  16.927 -0.8791  1.4083  0.9102
 6439TIP3   OH240731   1.834   6.771  15.526 -0.5302 -0.2239 -0.7117
 6439TIP3    H140732   1.857   6.721  15.447 -1.1584 -0.6761 -0.6232
 6439TIP3    H240733   1.893   6.738  15.593  0.3085  0.4762 -1.0856
 6440TIP3   OH240734   6.755   2.154  17.021 -0.3766  0.1076  0.2716
 6440TIP3    H140735   6.780   2.075  16.974 -1.0247 -0.2598  0.5287
 6440TIP3    H240736   6.748   2.127  17.112 -0.1102  0.5835  0.4378
 6441TIP3   OH240737   2.247   3.800  16.277 -0.5904 -0.1529  0.3870
 6441TIP3    H140738   2.250   3.865  16.206 -1.4093 -0.5228 -0.0062
 6441TIP3    H240739   2.324   3.745  16.262 -0.3046  0.2732  0.2768
 6442TIP3   OH240740   0.444   2.936  15.818  0.1269 -0.6094 -0.1296
 6442TIP3    H140741   0.358   2.913  15.782 -0.0180  1.2421 -1.0891
 6442TIP3    H240742   0.485   2.852  15.839 -1.7642 -1.5441  0.0068
 6443TIP3   OH240743   2.572   2.322   0.948  0.0055  0.5810  0.9143
 6443TIP3    H140744   2.527   2.268   0.882 -1.0360  1.1032  1.1650
 6443TIP3    H240745   2.657   2.280   0.960 -0.9001 -1.2249  1.3807
 6444TIP3   OH240746   3.517   6.359   2.284 -0.0004  0.0501 -0.7383
 6444TIP3    H140747   3.581   6.288   2.276  0.4981  0.3793  0.0858
 6444TIP3    H240748   3.465   6.336   2.361  0.1869  0.5834 -0.4461
 6445TIP3   OH240749   5.828   0.546  13.416  0.1151 -0.1492  0.5127
 6445TIP3    H140750   5.807   0.626  13.465  0.3126  0.4757 -0.3942
 6445TIP3    H240751   5.846   0.577  13.327  1.4091 -1.0623  0.4408
 6446TIP3   OH240752   1.710   4.392   5.833 -0.1815  0.4403  0.6370
 6446TIP3    H140753   1.732   4.471   5.784  0.5074 -0.2325 -0.1727
 6446TIP3    H240754   1.752   4.403   5.918  1.2800  0.2563 -0.0341
 6447TIP3   OH240755   0.104   6.212   0.594 -0.1187  0.0409 -0.3922
 6447TIP3    H140756   0.020   6.229   0.636  0.1509  0.1036  0.1358
 6447TIP3    H240757   0.109   6.275   0.523  0.1207  1.0424  0.4872
 6448TIP3   OH240758   2.850   6.376   0.294  0.0578 -0.2095 -0.5830
 6448TIP3    H140759   2.813   6.355   0.379 -0.6103  1.2876 -0.4630
 6448TIP3    H240760   2.941   6.402   0.313  0.1712 -0.7112 -0.4430
 6449TIP3   OH240761   1.318   3.275  15.950  0.2439 -0.4572  0.1402
 6449TIP3    H140762   1.289   3.213  16.017 -0.7995  0.6568  0.7757
 6449TIP3    H240763   1.237   3.299  15.904  0.5572  0.7297  0.1894
 6450TIP3   OH240764   2.500   4.843   5.165 -0.3684  0.0337 -0.1285
 6450TIP3    H140765   2.465   4.853   5.254  0.6394 -1.1505  0.4412
 6450TIP3    H240766   2.432   4.798   5.117 -0.5725 -0.1254  0.3030
 6451TIP3   OH240767   3.169   5.296   2.975  0.4802 -0.1430 -0.4128
 6451TIP3    H140768   3.142   5.242   3.048 -0.1142  0.4883 -0.1534
 6451TIP3    H240769   3.202   5.234   2.910  2.8863 -0.6017  1.1203
 6452TIP3   OH240770   3.673   6.630  16.277  0.0631  0.3845  0.2152
 6452TIP3    H140771   3.692   6.707  16.224  0.2301  0.0844 -0.1594
 6452TIP3    H240772   3.752   6.577  16.272 -0.7457 -0.7422 -1.1453
 6453TIP3   OH240773   5.071   5.645   1.904 -0.6466  0.2499 -0.1368
 6453TIP3    H140774   5.154   5.656   1.857  0.6310  0.7696  2.1071
 6453TIP3    H240775   5.011   5.609   1.839  1.9909 -2.5486 -1.2227
 6454TIP3   OH240776   5.773   6.751  14.786 -0.1470 -0.0493 -0.2204
 6454TIP3    H140777   5.782   6.839  14.749 -0.2420  0.1165  0.1417
 6454TIP3    H240778   5.695   6.716  14.745  0.4233 -0.3345 -1.0932
 6455TIP3   OH240779   3.092   4.655  11.513 -0.3261  0.2433 -0.2522
 6455TIP3    H140780   3.144   4.735  11.510  0.3896 -0.2380 -1.0013
 6455TIP3    H240781   3.074   4.634  11.421 -0.6165 -0.3791 -0.0597
 6456TIP3   OH240782   6.065   4.942  16.187 -0.2222 -0.6621 -0.4127
 6456TIP3    H140783   6.004   4.938  16.261 -0.6991 -0.5040 -0.7979
 6456TIP3    H240784   6.134   4.880  16.210 -1.6255 -2.4983 -0.9770
 6457TIP3   OH240785   6.770   2.779   4.028  0.0024 -0.0255  0.6593
 6457TIP3    H140786   6.824   2.739   4.096 -1.4159 -0.8870  1.3351
 6457TIP3    H240787   6.756   2.869   4.059  1.3442  0.3436  0.2655
 6458TIP3   OH240788   4.854   5.644  14.637 -0.4691  0.0735  0.0460
 6458TIP3    H140789   4.906   5.615  14.562  0.6063 -2.2833  1.5663
 6458TIP3    H240790   4.862   5.572  14.700  0.0538  2.6017  3.1132
 6459TIP3   OH240791   0.809   2.608  13.112  0.2324  0.1488  0.2501
 6459TIP3    H140792   0.840   2.688  13.155  1.7701 -0.8667  1.1540
 6459TIP3    H240793   0.810   2.542  13.181 -1.6979 -0.5304 -0.3082
 6460TIP3   OH240794   3.424   6.039   3.146  0.7066 -0.5210  0.1576
 6460TIP3    H140795   3.412   5.953   3.185  0.8354 -0.0066  1.3882
 6460TIP3    H240796   3.505   6.073   3.186  2.2079 -0.8988 -2.3480
 6461TIP3   OH240797   5.259   6.465  13.000 -0.4991 -0.4841  0.3561
 6461TIP3    H140798   5.216   6.455  13.085 -2.8607  0.3648 -0.6527
 6461TIP3    H240799   5.237   6.554  12.972  0.7918 -0.5136 -0.8489
 6462TIP3   OH240800   4.987   4.746  11.852  0.4238  0.0548 -0.0966
 6462TIP3    H140801   5.008   4.676  11.914 -2.6438 -0.1109  0.9231
 6462TIP3    H240802   4.969   4.702  11.770  0.2468 -0.1632  0.0604
 6463TIP3   OH240803   0.164   1.331   0.730 -0.2247  0.5808  0.5758
 6463TIP3    H140804   0.250   1.373   0.741  1.2291 -1.4360 -1.8874
 6463TIP3    H240805   0.133   1.364   0.645 -0.7319 -0.5058  0.3229
 6464TIP3   OH240806   3.877   1.336   4.460  0.5535  0.0664  0.1244
 6464TIP3    H140807   3.815   1.408   4.453  0.4581 -0.1168 -1.0908
 6464TIP3    H240808   3.956   1.368   4.416  1.3555  0.3014  1.6513
 6465TIP3   OH240809   6.036   4.842   2.099  0.5612  0.0120  0.1058
 6465TIP3    H140810   6.130   4.858   2.111  0.9996 -1.2932 -1.2586
 6465TIP3    H240811   6.019   4.865   2.008 -0.5492  0.6118  0.4449
 6466TIP3   OH240812   4.238   6.278  12.795 -0.0117  0.2511 -0.3264
 6466TIP3    H140813   4.217   6.201  12.848 -3.1905  2.4345  1.9406
 6466TIP3    H240814   4.187   6.266  12.715 -1.7263  0.5780  0.6596
 6467TIP3   OH240815   2.093   1.088  15.009  0.3495 -0.6324  0.2436
 6467TIP3    H140816   2.021   1.027  14.996  0.0347 -0.4012  0.8823
 6467TIP3    H240817   2.141   1.086  14.926 -0.5249 -0.6131 -0.2728
 6468TIP3   OH240818   5.536   0.714  10.961 -0.4462  0.2382 -0.0346
 6468TIP3    H140819   5.553   0.770  10.886 -0.1397  0.0367 -0.1177
 6468TIP3    H240820   5.621   0.676  10.983 -0.3793  0.8786  0.8879
 6469TIP3   OH240821   2.802   2.719   3.132 -0.0457 -0.1699 -0.2416
 6469TIP3    H140822   2.790   2.799   3.081 -0.7550 -0.2971 -0.2875
 6469TIP3    H240823   2.721   2.710   3.183 -0.3470 -1.2903 -0.8589
 6470TIP3   OH240824   3.279   4.856   1.368  0.2828  0.1485 -0.2741
 6470TIP3    H140825   3.294   4.947   1.393  2.6006  0.4185 -2.2555
 6470TIP3    H240826   3.323   4.804   1.435  1.0722  0.5917 -0.4477
 6471TIP3   OH240827   6.720   2.067   3.856  0.2794 -0.3655  0.2168
 6471TIP3    H140828   6.649   2.026   3.905  0.5566  1.2206  2.0935
 6471TIP3    H240829   6.678   2.100   3.776 -1.0234  0.1379  1.0742
 6472TIP3   OH240830   3.772   0.233  11.631 -0.3705  0.2171 -0.4364
 6472TIP3    H140831   3.765   0.239  11.726 -1.3614 -1.7416 -0.3146
 6472TIP3    H240832   3.757   0.322  11.599  0.0008  0.9049  1.2355
 6473TIP3   OH240833   4.806   0.963   1.942 -0.1053 -0.3870  0.1604
 6473TIP3    H140834   4.726   0.940   1.990 -0.8708  0.3123 -0.7360
 6473TIP3    H240835   4.794   1.055   1.920  1.7787  0.2643  1.5747
 6474TIP3   OH240836   5.790   0.895   4.860  0.0889  0.0114  0.9614
 6474TIP3    H140837   5.858   0.861   4.918  0.1205  1.2249  1.6612
 6474TIP3    H240838   5.834   0.908   4.776  0.5073 -0.0070  1.1782
 6475TIP3   OH240839   5.305   5.079   6.060 -0.3663  0.4244  0.0700
 6475TIP3    H140840   5.240   5.008   6.060 -0.6075  0.4720 -3.3968
 6475TIP3    H240841   5.254   5.157   6.079 -0.7546  0.0864  0.4432
 6476TIP3   OH240842   5.523   0.963  13.299 -0.5125 -0.8077  0.2638
 6476TIP3    H140843   5.488   0.942  13.385 -2.4591  0.5820 -0.1406
 6476TIP3    H240844   5.487   1.049  13.278  0.0731 -1.0218 -1.8648
 6477TIP3   OH240845   3.590   3.689   5.045  0.1678  0.0035 -0.4606
 6477TIP3    H140846   3.681   3.694   5.015  0.9007 -0.5656  1.5437
 6477TIP3    H240847   3.556   3.609   5.004  1.6081 -1.5814  1.2510
 6478TIP3   OH240848   0.421   1.092  12.992 -0.3121  0.7500 -0.3496
 6478TIP3    H140849   0.404   1.072  12.900 -0.7922 -0.6804  0.0394
 6478TIP3    H240850   0.335   1.104  13.031 -0.4712 -2.9360  0.8255
 6479TIP3   OH240851   2.648   4.294  11.103  0.1390 -0.1773 -0.0176
 6479TIP3    H140852   2.566   4.255  11.072 -0.3444 -0.3207  1.3799
 6479TIP3    H240853   2.638   4.387  11.085  0.4725 -0.4109 -1.5623
 6480TIP3   OH240854   4.118   0.659  15.941  0.4600  0.0290  0.1860
 6480TIP3    H140855   4.128   0.569  15.910  1.0478 -0.3765  1.4929
 6480TIP3    H240856   4.081   0.650  16.028 -0.9160  1.1318 -0.2464
 6481TIP3   OH240857   0.219   2.248  11.597  0.6063  0.1176 -0.0241
 6481TIP3    H140858   0.135   2.286  11.570 -0.2677 -2.3156 -1.0577
 6481TIP3    H240859   0.196   2.187  11.667  1.4528 -0.6922 -0.4176
 6482TIP3   OH240860   2.196   6.718   2.815 -0.3953 -0.6822 -0.4327
 6482TIP3    H140861   2.152   6.733   2.899 -1.5532 -3.0577 -0.5217
 6482TIP3    H240862   2.255   6.792   2.805 -1.8569  0.8380  1.4009
 6483TIP3   OH240863   0.509   0.958  14.735  0.3123  0.3659 -0.2859
 6483TIP3    H140864   0.474   0.946  14.647 -0.1184 -1.5860  0.0983
 6483TIP3    H240865   0.432   0.976  14.789  0.5592  1.4297 -0.2745
 6484TIP3   OH240866   4.360   6.746  13.285  0.2997  0.4879  0.1970
 6484TIP3    H140867   4.391   6.761  13.195  0.8249  3.2157  0.7342
 6484TIP3    H240868   4.273   6.785  13.286  1.3561  3.0287  1.4839
 6485TIP3   OH240869   1.709   4.101  16.648 -0.4148 -0.7156 -0.0508
 6485TIP3    H140870   1.792   4.058  16.672 -1.4221 -2.8133 -0.0563
 6485TIP3    H240871   1.704   4.091  16.553  0.1192  1.0246 -0.3016
 6486TIP3   OH240872   3.296   1.980  14.468  0.0291  0.4412 -0.3999
 6486TIP3    H140873   3.259   2.024  14.545 -1.3313  0.2419 -0.9179
 6486TIP3    H240874   3.282   1.887  14.485  1.7522  0.2419  0.1049
 6487TIP3   OH240875   0.801   5.493   2.548  0.1520 -0.5296  0.1003
 6487TIP3    H140876   0.787   5.572   2.495 -1.1704  0.4233  1.7947
 6487TIP3    H240877   0.865   5.520   2.615 -1.5398 -0.3420  1.7096
 6488TIP3   OH240878   4.325   5.857   1.394 -0.1693  0.1965 -0.2468
 6488TIP3    H140879   4.239   5.814   1.400 -0.4453  0.9057  1.7589
 6488TIP3    H240880   4.338   5.896   1.481  1.7104  1.0316 -0.8543
 6489TIP3   OH240881   3.841   2.115   2.792  0.2480  0.3553 -0.4690
 6489TIP3    H140882   3.826   2.022   2.776 -1.7137  1.0293 -3.1592
 6489TIP3    H240883   3.755   2.155   2.782  1.0095  2.4913  0.8051
 6490TIP3   OH240884   6.225   4.736  14.120 -0.0669  0.0305 -0.1096
 6490TIP3    H140885   6.313   4.767  14.137  0.2011  0.0644 -1.4205
 6490TIP3    H240886   6.178   4.748  14.202  0.4983  2.2674 -0.0669
 6491TIP3   OH240887   3.751   5.798  16.889 -0.3571 -0.3279  0.4256
 6491TIP3    H140888   3.734   5.892  16.890  0.0654 -0.2458  0.3490
 6491TIP3    H240889   3.679   5.761  16.838 -1.1678 -0.1849  1.4314
 6492TIP3   OH240890   0.589   2.291   4.537 -0.2270 -0.5327  0.4363
 6492TIP3    H140891   0.677   2.288   4.574 -0.7829  2.0987  2.2945
 6492TIP3    H240892   0.557   2.201   4.544  2.0364 -1.4230  0.3088
 6493TIP3   OH240893   3.001   5.687   1.994 -0.0478 -0.0054  1.1753
 6493TIP3    H140894   3.066   5.627   2.030  1.2311  0.6329  0.0169
 6493TIP3    H240895   3.008   5.675   1.899  0.0548  1.7652  0.9281
 6494TIP3   OH240896   3.527   2.404  15.638 -0.1388  0.1140  0.0706
 6494TIP3    H140897   3.618   2.389  15.616 -0.0023 -0.9918  1.3187
 6494TIP3    H240898   3.510   2.494  15.607  1.4529  0.4729  0.1502
 6495TIP3   OH240899   1.635   1.255  12.861  0.1210  0.3098  0.4552
 6495TIP3    H140900   1.730   1.264  12.851  0.5160 -2.8371  0.5770
 6495TIP3    H240901   1.624   1.192  12.932 -2.0396 -0.2387 -0.3029
 6496TIP3   OH240902   6.382   1.807   2.322 -0.5574  0.0402 -0.1923
 6496TIP3    H140903   6.296   1.849   2.316 -0.7156 -0.2617 -0.0755
 6496TIP3    H240904   6.382   1.765   2.408 -1.2730 -2.0507 -1.1433
 6497TIP3   OH240905   5.768   2.557   1.769 -0.9472  0.5041 -0.3300
 6497TIP3    H140906   5.745   2.567   1.676 -1.6590 -0.3048 -0.2505
 6497TIP3    H240907   5.855   2.597   1.776 -0.1980 -0.7861 -1.6705
 6498TIP3   OH240908   2.095   2.525   6.300  0.2974  0.2598  0.5609
 6498TIP3    H140909   2.026   2.529   6.234  0.2654 -0.6408  0.5294
 6498TIP3    H240910   2.167   2.574   6.261  0.8471 -1.5664 -0.8802
 6499TIP3   OH240911   1.852   4.734  12.734 -0.3072  0.2796  0.0584
 6499TIP3    H140912   1.840   4.758  12.826 -0.4151  1.1762 -0.1833
 6499TIP3    H240913   1.915   4.797  12.701 -0.8358  0.4351 -0.6736
 6500TIP3   OH240914   0.176   0.661   5.967 -0.4586  0.2552 -0.0000
 6500TIP3    H140915   0.192   0.710   6.048 -0.0212  0.1305 -0.0103
 6500TIP3    H240916   0.174   0.728   5.899 -3.0981  0.6675  0.3595
 6501TIP3   OH240917   5.449   4.463  13.322  0.0163  0.0551  0.3929
 6501TIP3    H140918   5.430   4.379  13.282 -0.8937  0.7502 -0.7111
 6501TIP3    H240919   5.521   4.499  13.270 -0.3905  0.4567  0.0939
 6502TIP3   OH240920   5.418   0.966  15.438 -0.5761 -0.6290  0.8049
 6502TIP3    H140921   5.395   0.895  15.497 -2.3322 -0.3280  0.5308
 6502TIP3    H240922   5.425   0.925  15.352 -2.0614 -0.4363  0.5642
 6503TIP3   OH240923   1.482   5.119   1.078  0.2616  0.6084  0.2415
 6503TIP3    H140924   1.554   5.062   1.050 -0.9569 -0.2529 -1.3574
 6503TIP3    H240925   1.466   5.096   1.169  1.3387  0.0938  0.3107
 6504TIP3   OH240926   1.597   5.365   5.260  0.0802 -0.1662  0.8252
 6504TIP3    H140927   1.515   5.331   5.223  1.3130 -2.8005  0.3486
 6504TIP3    H240928   1.664   5.345   5.195  1.0865  2.7073  0.8089
 6505TIP3   OH240929   1.222   4.094   5.596  0.6366  0.4823 -0.2069
 6505TIP3    H140930   1.283   4.137   5.537 -0.0546  2.3827  0.3810
 6505TIP3    H240931   1.135   4.120   5.564  0.2126  0.0815  0.5795
 6506TIP3   OH240932   1.764   3.565   1.402  0.1979  0.2165  0.0763
 6506TIP3    H140933   1.756   3.475   1.431  1.1501 -0.0531 -0.4395
 6506TIP3    H240934   1.707   3.572   1.326 -1.1620  0.5240  1.0858
 6507TIP3   OH240935   6.406   5.508   4.424  0.2200 -0.2415 -0.4754
 6507TIP3    H140936   6.331   5.568   4.421  1.0195  0.8604  0.5437
 6507TIP3    H240937   6.371   5.425   4.391 -1.5359  0.1569  0.2321
 6508TIP3   OH240938   3.847   2.299  12.953 -0.0546 -0.0018  0.1729
 6508TIP3    H140939   3.809   2.358  13.019 -1.2860  1.5428 -1.8218
 6508TIP3    H240940   3.789   2.224  12.952 -0.5803  0.3996  0.1826
 6509TIP3   OH240941   1.606   4.342  14.812 -0.0039 -0.1647  0.4226
 6509TIP3    H140942   1.592   4.341  14.717 -1.4949  0.9086  0.6044
 6509TIP3    H240943   1.699   4.361  14.822  0.0576  0.2844 -0.8303
 6510TIP3   OH240944   3.996   1.962   4.846 -0.3701  0.8148 -0.3295
 6510TIP3    H140945   3.931   1.985   4.913 -1.2943 -0.2788 -0.8143
 6510TIP3    H240946   4.053   1.898   4.888  1.0427  2.4715  0.4086
 6511TIP3   OH240947   6.585   0.506  15.302 -0.1945 -0.5245  0.1043
 6511TIP3    H140948   6.588   0.547  15.216 -0.6855 -0.3210  0.1838
 6511TIP3    H240949   6.586   0.579  15.364  0.2897 -0.6725  0.2786
 6512TIP3   OH240950   1.146   0.903  17.163  0.3810  0.8361  0.6396
 6512TIP3    H140951   1.058   0.865  17.157  1.0045 -0.5104 -0.2021
 6512TIP3    H240952   1.166   0.903  17.257 -1.5604  3.7125  1.2003
 6513TIP3   OH240953   0.549   1.392   4.254  0.2643 -0.1895  0.4725
 6513TIP3    H140954   0.544   1.422   4.163  2.6192  1.2713  0.7419
 6513TIP3    H240955   0.505   1.461   4.305 -0.0442 -0.4394  0.5481
 6514TIP3   OH240956   5.073   1.062  11.866  0.3595 -0.1475 -0.2044
 6514TIP3    H140957   5.056   1.102  11.780  0.0512  0.4811  0.1457
 6514TIP3    H240958   5.164   1.031  11.860  1.6170  3.0223  0.4018
 6515TIP3   OH240959   1.853   0.537   0.912 -0.5232  0.0236  0.7370
 6515TIP3    H140960   1.778   0.595   0.926 -0.1903  0.8027 -0.6242
 6515TIP3    H240961   1.883   0.556   0.823  0.9561 -0.6703  1.0527
 6516TIP3   OH240962   3.206   4.023  10.805  0.4509  0.3246  0.3549
 6516TIP3    H140963   3.287   3.984  10.772 -0.1752  0.3660 -1.3382
 6516TIP3    H240964   3.137   3.981  10.755 -0.5345  0.7584  1.3125
 6517TIP3   OH240965   5.547   5.432   0.245  0.2246 -0.1931 -0.3895
 6517TIP3    H140966   5.539   5.343   0.279 -2.2083  0.2308  0.3218
 6517TIP3    H240967   5.637   5.458   0.266  0.1678 -1.5338  1.8082
 6518TIP3   OH240968   3.431   5.574  12.695  0.2828  0.5348  0.2676
 6518TIP3    H140969   3.508   5.588  12.749  0.8042 -0.4238 -0.2028
 6518TIP3    H240970   3.453   5.499  12.639 -0.4842  1.0734 -0.8061
 6519TIP3   OH240971   5.745   5.956  17.179  0.1134  0.1231  0.6541
 6519TIP3    H140972   5.838   5.976  17.184 -0.0738  0.7091  2.5028
 6519TIP3    H240973   5.709   5.986  17.263 -1.9197  0.8440 -0.3877
 6520TIP3   OH240974   4.723   2.693   0.361 -0.4241 -0.1563 -0.4136
 6520TIP3    H140975   4.762   2.605   0.360 -1.4765 -0.6974  1.2344
 6520TIP3    H240976   4.700   2.708   0.453 -2.9786  0.5885 -1.0806
 6521TIP3   OH240977   4.139   5.227   6.035 -0.2160 -0.4702 -0.1679
 6521TIP3    H140978   4.100   5.288   6.099  1.3923  0.5000 -0.0514
 6521TIP3    H240979   4.158   5.149   6.086  1.5998  0.5105  0.7536
 6522TIP3   OH240980   1.467   6.386   3.404 -0.1837 -0.1068 -0.3824
 6522TIP3    H140981   1.393   6.363   3.459  1.0796  0.0789  1.4862
 6522TIP3    H240982   1.513   6.303   3.389  0.2008  0.0333 -0.0124
 6523TIP3   OH240983   2.659   1.253   4.832  0.4295  0.0790  0.3860
 6523TIP3    H140984   2.621   1.167   4.848 -1.9638  0.6465 -1.5660
 6523TIP3    H240985   2.614   1.311   4.893 -1.2384  0.5849 -1.2355
 6524TIP3   OH240986   5.482   2.140   1.009  0.4409 -0.5678 -0.3188
 6524TIP3    H140987   5.477   2.208   0.941 -1.3938 -0.3284  0.0087
 6524TIP3    H240988   5.473   2.188   1.091  1.6245 -0.9698  0.0604
 6525TIP3   OH240989   2.524   2.345  13.222 -0.3236 -0.5427  0.6092
 6525TIP3    H140990   2.447   2.346  13.278  1.4017  0.4715  3.1233
 6525TIP3    H240991   2.531   2.254  13.192 -2.6071 -0.5792  0.0434
 6526TIP3   OH240992   0.762   4.628   2.038  0.2133  0.1057  0.0251
 6526TIP3    H140993   0.793   4.709   1.998  1.6711  0.3561  1.5252
 6526TIP3    H240994   0.729   4.654   2.124  1.7579 -0.9914  1.0041
 6527TIP3   OH240995   0.068   6.405  12.917  0.1203 -0.1045  0.6478
 6527TIP3    H140996   0.067   6.312  12.941  1.7996  0.0822  1.6200
 6527TIP3    H240997   0.151   6.416  12.870 -1.6088  0.2502 -2.5478
 6528TIP3   OH240998   1.548   1.125   3.290 -0.1748 -0.0372 -0.5371
 6528TIP3    H140999   1.591   1.188   3.348 -0.1914 -0.8237  0.3430
 6528TIP3    H241000   1.566   1.040   3.329 -4.4636 -0.3914  1.3472
 6529TIP3   OH241001   6.758   4.750   4.024  0.6094 -0.0731  0.0128
 6529TIP3    H141002   6.842   4.750   3.977  1.0749 -1.2992  0.7871
 6529TIP3    H241003   6.780   4.782   4.111  0.9521 -3.3464  1.2402
 6530TIP3   OH241004   3.853   5.105  14.326  0.7905  0.4423 -0.7210
 6530TIP3    H141005   3.787   5.083  14.260  0.7078  0.1232 -0.5350
 6530TIP3    H241006   3.871   5.198  14.313 -2.7795  1.7050  1.9058
 6531TIP3   OH241007   6.690   0.912   6.083  0.1615  0.0037 -0.6544
 6531TIP3    H141008   6.607   0.864   6.085  0.2128 -0.1291 -1.3188
 6531TIP3    H241009   6.748   0.862   6.140  0.2389 -0.7859 -1.4048
 6532TIP3   OH241010   2.638   4.591   2.046 -0.1693  0.2848  0.4425
 6532TIP3    H141011   2.554   4.570   2.005 -1.3558 -1.2616  3.3710
 6532TIP3    H241012   2.634   4.685   2.062 -0.7384  0.4573 -0.5979
 6533TIP3   OH241013   4.547   5.352   0.497 -0.1178 -0.3408  0.4971
 6533TIP3    H141014   4.601   5.294   0.443  1.3443  1.4862 -0.1190
 6533TIP3    H241015   4.463   5.307   0.504  1.2211 -2.9812  0.9042
 6534TIP3   OH241016   0.244   3.258   0.490  0.0302 -0.0674 -0.0993
 6534TIP3    H141017   0.205   3.175   0.515  0.0775 -0.2034 -0.4707
 6534TIP3    H241018   0.248   3.308   0.571 -1.3655  0.1306 -0.1182
 6535TIP3   OH241019   0.004   4.123  10.616  0.4006 -0.1975  0.6140
 6535TIP3    H141020   0.023   4.216  10.605  0.0737  0.1163  2.4058
 6535TIP3    H241021  -0.077   4.121  10.666  0.6899 -1.4344  1.0712
 6536TIP3   OH241022   5.625   1.843   5.197 -0.6322  0.1930  0.2199
 6536TIP3    H141023   5.579   1.808   5.121 -1.1676  1.1387  0.0838
 6536TIP3    H241024   5.683   1.911   5.162  2.7169 -2.4872  0.0739
 6537TIP3   OH241025   3.050   3.174  11.240  0.1422 -0.3619  0.7742
 6537TIP3    H141026   3.064   3.112  11.168 -1.5608  0.3765 -0.2677
 6537TIP3    H241027   2.956   3.172  11.255  0.2988  0.5714  2.0235
 6538TIP3   OH241028   2.034   4.122  15.625  0.0219 -0.1030  0.4873
 6538TIP3    H141029   2.079   4.166  15.698 -1.4004 -0.4500  1.6248
 6538TIP3    H241030   2.032   4.030  15.651  1.1799 -0.5578 -0.9247
 6539TIP3   OH241031   1.178   5.925   3.655  0.2168  0.0005  0.2772
 6539TIP3    H141032   1.161   5.980   3.731 -0.1404  1.0805 -0.5537
 6539TIP3    H241033   1.126   5.846   3.670  0.4705  0.0258  1.3317
 6540TIP3   OH241034   4.398   6.334  15.082 -0.6517  0.1881 -0.0391
 6540TIP3    H141035   4.315   6.315  15.039  0.1370 -0.7729 -1.2181
 6540TIP3    H241036   4.430   6.413  15.039  0.1986 -0.8438 -1.4170
 6541TIP3   OH241037   1.746   0.833  14.559  0.2130 -0.1670 -0.3750
 6541TIP3    H141038   1.803   0.869  14.492  1.2927  2.0086  1.5776
 6541TIP3    H241039   1.700   0.909  14.596 -0.7965 -1.3489  0.9348
 6542TIP3   OH241040   1.542   1.348   5.494  0.3920  0.0377  0.4143
 6542TIP3    H141041   1.608   1.406   5.457  0.1073 -0.1915 -0.4770
 6542TIP3    H241042   1.506   1.301   5.419 -1.0345  0.4139  0.8217
 6543TIP3   OH241043   6.779   0.052  15.345 -0.1439  0.4287 -0.4042
 6543TIP3    H141044   6.847   0.107  15.383 -2.1311  3.1640 -0.5787
 6543TIP3    H241045   6.699   0.076  15.391 -1.1351 -2.5074 -0.3742
 6544TIP3   OH241046   4.197   1.759  14.078  0.1693  0.5340 -0.0980
 6544TIP3    H141047   4.153   1.724  14.155 -0.7581  0.5058 -0.6291
 6544TIP3    H241048   4.239   1.840  14.109  0.6802 -0.0125  0.6667
 6545TIP3   OH241049   3.242   5.922  16.710 -0.3009  0.8850 -0.3977
 6545TIP3    H141050   3.284   5.840  16.684  1.8315  1.2020  1.7100
 6545TIP3    H241051   3.312   5.974  16.749 -2.3083  2.1927  1.7548
 6546TIP3   OH241052   1.997   3.821  10.621 -0.4772 -0.4059 -0.3914
 6546TIP3    H141053   2.033   3.739  10.655 -1.0019 -0.9588 -1.1401
 6546TIP3    H241054   1.922   3.794  10.569 -4.0783  0.8898  3.6055
 6547TIP3   OH241055   5.070   4.073  14.671  0.1839 -0.0712  0.1843
 6547TIP3    H141056   5.037   4.126  14.599  2.6160  0.6449 -0.4939
 6547TIP3    H241057   5.097   4.137  14.737 -0.0648 -0.6360  0.8451
 6548TIP3   OH241058   4.789   0.303   5.915  0.5904 -0.2220 -0.4645
 6548TIP3    H141059   4.784   0.369   5.984  0.2433  1.0333 -1.6545
 6548TIP3    H241060   4.806   0.221   5.962  1.8350  0.8073  0.9914
 6549TIP3   OH241061   0.613   4.438   0.145  0.0852  0.4083 -0.3556
 6549TIP3    H141062   0.653   4.399   0.067  1.7349  0.9274  0.2007
 6549TIP3    H241063   0.663   4.518   0.160 -1.1132  1.0342  0.4505
 6550TIP3   OH241064   4.867   1.060   2.439 -0.2882 -0.7463  0.4860
 6550TIP3    H141065   4.910   1.081   2.356 -3.2346 -0.1284 -1.0159
 6550TIP3    H241066   4.789   1.010   2.414 -0.0930 -2.5629  3.1074
 6551TIP3   OH241067   2.290   1.864   3.205 -0.0731 -0.1546  0.7588
 6551TIP3    H141068   2.258   1.943   3.160  1.8617  0.9528  1.2188
 6551TIP3    H241069   2.334   1.897   3.283  0.7976 -1.6930  0.9524
 6552TIP3   OH241070   6.193   5.958  12.295 -0.5904  0.6936 -0.0094
 6552TIP3    H141071   6.266   5.976  12.236 -1.9622  0.2058 -1.9424
 6552TIP3    H241072   6.116   5.954  12.238 -1.6356 -2.5278  1.3905
 6553TIP3   OH241073   3.761   6.075   0.882 -0.1727  0.0122  0.2326
 6553TIP3    H141074   3.737   6.119   0.800  0.4765 -1.5087 -0.8085
 6553TIP3    H241075   3.708   6.120   0.949 -0.6937  1.3125 -0.9898
 6554TIP3   OH241076   6.726   2.974   3.744 -0.3489  0.2254  0.2454
 6554TIP3    H141077   6.701   2.987   3.835 -0.5492  1.5513  0.0156
 6554TIP3    H241078   6.644   2.953   3.699 -0.6237  1.7182  0.0048
 6555TIP3   OH241079   6.759   5.454   2.391 -0.3739  0.3215  0.0943
 6555TIP3    H141080   6.768   5.359   2.387 -2.7066 -0.0077  1.1681
 6555TIP3    H241081   6.798   5.485   2.310 -0.3023 -1.6198 -0.6633
 6556TIP3   OH241082   4.308   3.925   6.161 -0.2812  0.3678 -0.0347
 6556TIP3    H141083   4.316   3.937   6.255  0.2572  0.8711 -0.1329
 6556TIP3    H241084   4.397   3.937   6.128 -0.2266 -1.0537 -0.4849
 6557TIP3   OH241085   3.483   0.177   3.678 -0.6772  0.0098 -0.0350
 6557TIP3    H141086   3.527   0.200   3.760 -0.0108 -0.9531 -0.0973
 6557TIP3    H241087   3.433   0.255   3.655 -0.4676  0.4797  1.0178
 6558TIP3   OH241088   2.291   0.523   4.406 -0.1544  0.1969 -0.3781
 6558TIP3    H141089   2.214   0.499   4.354 -0.3413 -0.9632  0.3990
 6558TIP3    H241090   2.314   0.443   4.454  0.6270  0.9436  0.5393
 6559TIP3   OH241091   5.368   3.846   2.829  0.4851  0.2938  0.3900
 6559TIP3    H141092   5.433   3.776   2.821 -0.4933 -0.4725 -1.4573
 6559TIP3    H241093   5.418   3.927   2.817  1.2031 -0.2533 -0.4508
 6560TIP3   OH241094   4.340   4.570   5.193  0.3062 -0.1747 -0.0205
 6560TIP3    H141095   4.263   4.519   5.169 -0.2190  1.1447 -1.3705
 6560TIP3    H241096   4.345   4.564   5.288 -1.7184  0.0359  0.1438
 6561TIP3   OH241097   1.810   4.284   1.983  0.4596 -0.4045  0.2243
 6561TIP3    H141098   1.792   4.372   2.016  0.5034  0.2909 -1.5014
 6561TIP3    H241099   1.893   4.292   1.936 -0.5440 -0.8412 -1.7268
 6562TIP3   OH241100   2.132   3.210  15.836  0.3698 -0.3134 -0.4401
 6562TIP3    H141101   2.128   3.162  15.918 -2.9507 -2.5879 -1.6767
 6562TIP3    H241102   2.050   3.261  15.834 -0.1722 -1.1450 -2.6877
 6563TIP3   OH241103   3.758   6.422   0.632  0.0866 -0.5955  0.4553
 6563TIP3    H141104   3.753   6.330   0.610  0.3239 -0.1165 -1.8700
 6563TIP3    H241105   3.800   6.463   0.556 -1.9490  1.7221  0.4283
 6564TIP3   OH241106   1.782   6.303   4.892  0.0234  0.2021  0.5972
 6564TIP3    H141107   1.689   6.315   4.871 -0.1580  0.6535  1.6228
 6564TIP3    H241108   1.827   6.361   4.830 -0.4637  0.9291  0.9010
 6565TIP3   OH241109   2.216   3.752   3.601  0.7851 -0.2745 -0.1315
 6565TIP3    H141110   2.199   3.845   3.610 -0.8735 -0.5689  0.2111
 6565TIP3    H241111   2.146   3.720   3.544  0.7092 -1.4623  0.5835
 6566TIP3   OH241112   4.204   3.326  14.983 -0.4467 -0.3114  0.4229
 6566TIP3    H141113   4.268   3.365  14.923 -1.7041  0.9835 -0.1090
 6566TIP3    H241114   4.234   3.351  15.070 -0.5988  0.9054  0.1414
 6567TIP3   OH241115   4.883   4.587   1.667 -0.5643  0.1173 -0.1126
 6567TIP3    H141116   4.940   4.514   1.693 -1.8437 -0.1641  2.1998
 6567TIP3    H241117   4.815   4.546   1.613 -0.5047 -0.1721  0.0280
 6568TIP3   OH241118   1.798   4.527   1.199 -0.4553  0.0169 -0.2376
 6568TIP3    H141119   1.775   4.438   1.225  0.4266 -0.2734 -0.4094
 6568TIP3    H241120   1.728   4.581   1.235 -1.7417 -0.8798 -1.3043
 6569TIP3   OH241121   4.321   4.234   2.522 -0.4258 -0.3099  0.2465
 6569TIP3    H141122   4.226   4.250   2.530 -0.0273  2.7426  0.1337
 6569TIP3    H241123   4.351   4.302   2.461  2.1204  0.0761  1.7968
 6570TIP3   OH241124   5.374   5.230   1.412  0.5131  0.0066 -0.6632
 6570TIP3    H141125   5.283   5.256   1.428  0.2701 -0.2839 -1.5564
 6570TIP3    H241126   5.373   5.191   1.325  1.8124  1.6379 -1.4734
 6571TIP3   OH241127   6.041   3.188  11.592  0.0224  0.4690 -0.0201
 6571TIP3    H141128   5.992   3.108  11.577  1.1832 -0.0238 -1.3161
 6571TIP3    H241129   6.054   3.190  11.687  0.9313 -1.4775 -0.0557
 6572TIP3   OH241130   1.800   2.093   2.014 -0.1523  0.1948  0.0651
 6572TIP3    H141131   1.884   2.113   2.055  0.5705 -0.6226 -0.9285
 6572TIP3    H241132   1.736   2.145   2.061  0.7854  0.1203  1.4673
 6573TIP3   OH241133   5.058   0.544   5.547  0.3427 -0.2978 -0.4760
 6573TIP3    H141134   5.095   0.631   5.556  0.7094 -0.5984  1.1415
 6573TIP3    H241135   5.065   0.505   5.634 -0.4972 -1.6735 -0.9854
 6574TIP3   OH241136   6.319   2.252  16.329  0.0160  0.3534  0.4724
 6574TIP3    H141137   6.381   2.283  16.263  1.4743 -2.6329  0.2712
 6574TIP3    H241138   6.235   2.248  16.284  0.1845  1.9073 -0.0452
 6575TIP3   OH241139   0.900   5.300   3.715 -0.2306  0.1741  0.3480
 6575TIP3    H141140   0.884   5.212   3.749 -2.1445  0.4437  0.2256
 6575TIP3    H241141   0.994   5.301   3.697 -0.4359 -2.4924 -1.4762
 6576TIP3   OH241142   5.205   2.126   5.988  0.0278 -0.8368  0.3153
 6576TIP3    H141143   5.113   2.105   5.971 -0.3196  0.7489  0.0718
 6576TIP3    H241144   5.224   2.084   6.072 -0.6968 -1.7792  0.0220
 6577TIP3   OH241145   1.056   0.179   0.739  0.6159 -0.0116 -0.0266
 6577TIP3    H141146   1.134   0.168   0.684  0.7042  1.4650 -0.2502
 6577TIP3    H241147   1.046   0.274   0.746  1.1476 -0.0651  3.2892
 6578TIP3   OH241148   5.018   3.633  12.831 -0.0273  0.7075  0.5762
 6578TIP3    H141149   5.103   3.588  12.833 -0.1637  0.4288  0.0478
 6578TIP3    H241150   4.969   3.590  12.761 -0.3636  1.3124  0.4330
 6579TIP3   OH241151   6.583   4.708  15.067 -0.1800 -0.3230 -0.0938
 6579TIP3    H141152   6.641   4.643  15.028  0.5051 -0.2836  0.8214
 6579TIP3    H241153   6.617   4.719  15.156  0.6641  2.3829 -0.6623
 6580TIP3   OH241154   0.978   1.934   0.722 -0.1451  0.3789  0.3765
 6580TIP3    H141155   0.897   1.897   0.758 -0.9977 -0.9117 -2.5916
 6580TIP3    H241156   0.956   2.025   0.702 -0.3703  0.4583  0.9632
 6581TIP3   OH241157   1.194   3.669   2.466  0.1817  0.0070 -0.3218
 6581TIP3    H141158   1.168   3.609   2.396 -0.9065 -0.0501  0.1028
 6581TIP3    H241159   1.142   3.748   2.450  1.6434  0.8933 -0.9074
 6582TIP3   OH241160   0.187   0.689  14.446  0.0257  0.7713 -0.7831
 6582TIP3    H141161   0.178   0.703  14.540 -1.9429  0.1153 -0.8288
 6582TIP3    H241162   0.221   0.600  14.439 -2.0703 -0.1016 -0.6628
 6583TIP3   OH241163   3.860   6.655  12.323  0.1933 -0.0963  0.0301
 6583TIP3    H141164   3.844   6.590  12.254  0.9505  1.5303 -1.7576
 6583TIP3    H241165   3.782   6.711  12.322  0.3718  0.1554  0.2446
 6584TIP3   OH241166   0.345   3.204   4.537  0.2243 -0.1704 -0.4929
 6584TIP3    H141167   0.281   3.139   4.566  0.0418 -0.0680 -0.6654
 6584TIP3    H241168   0.352   3.265   4.611  0.5763 -0.5204 -0.2357
 6585TIP3   OH241169   6.319   1.830   4.969 -0.2588  0.4075 -0.1313
 6585TIP3    H141170   6.407   1.793   4.977 -0.2743  0.1113 -1.1458
 6585TIP3    H241171   6.333   1.923   4.952 -0.1198  0.2958 -0.6564
 6586TIP3   OH241172   5.899   4.232  11.881 -0.1614  0.2860  0.2513
 6586TIP3    H141173   5.884   4.325  11.864 -2.2746 -0.0883 -0.2556
 6586TIP3    H241174   5.891   4.189  11.796 -2.5786 -0.6792  0.8681
 6587TIP3   OH241175   5.030   4.805   0.032 -1.0884 -0.0674 -0.1163
 6587TIP3    H141176   5.040   4.748   0.108  0.1431 -0.4581 -0.5369
 6587TIP3    H241177   5.039   4.746  -0.043  0.6564  0.7179 -0.5652
 6588TIP3   OH241178   1.373   2.285  16.124 -0.3206 -0.0912  0.1387
 6588TIP3    H141179   1.339   2.330  16.201  2.3148  0.4487  1.0959
 6588TIP3    H241180   1.399   2.199  16.156 -0.0269 -0.1909 -0.3609
 6589TIP3   OH241181   5.643   6.749  12.557 -0.1410 -0.0953  0.7962
 6589TIP3    H141182   5.665   6.820  12.618  0.0609  0.8514 -0.3604
 6589TIP3    H241183   5.609   6.793  12.479  0.0963 -1.2701  0.0085
 6590TIP3   OH241184   5.509   1.298   0.129  0.1235  0.3056  0.7753
 6590TIP3    H141185   5.518   1.207   0.104  0.7526  0.9294 -1.4745
 6590TIP3    H241186   5.587   1.317   0.180  0.2313 -0.2784  0.8315
 6591TIP3   OH241187   5.041   5.665  15.628 -0.0165  0.0665 -0.5261
 6591TIP3    H141188   4.975   5.655  15.697 -0.3933 -0.0107 -0.8919
 6591TIP3    H241189   5.018   5.747  15.585 -0.6608 -0.5888 -1.4785
 6592TIP3   OH241190   6.389   1.934   1.548  0.0600 -0.4366  0.2193
 6592TIP3    H141191   6.434   2.012   1.517  1.0919 -1.2300 -0.3181
 6592TIP3    H241192   6.403   1.934   1.643  0.0217  0.0470  0.2247
 6593TIP3   OH241193   5.113   3.690   5.093 -0.2685 -0.6125  0.4371
 6593TIP3    H141194   5.206   3.699   5.117 -0.2583 -0.5085  0.3592
 6593TIP3    H241195   5.069   3.760   5.140 -0.1389  0.0728 -0.4390
 6594TIP3   OH241196   4.318   4.177   3.766  0.0612 -0.0498 -0.1767
 6594TIP3    H141197   4.409   4.186   3.795  0.4949 -1.0888 -1.1271
 6594TIP3    H241198   4.283   4.105   3.818  0.2155 -0.5615 -0.7702
 6595TIP3   OH241199   6.657   3.809  13.282 -0.0893 -0.2864  0.3396
 6595TIP3    H141200   6.680   3.754  13.357  1.6116 -0.4329 -0.2316
 6595TIP3    H241201   6.638   3.747  13.211  0.1389 -0.1475  0.1564
 6596TIP3   OH241202   4.227   5.496   2.179 -0.0599  0.9802 -0.2582
 6596TIP3    H141203   4.286   5.437   2.133 -1.5053 -0.3221 -0.5289
 6596TIP3    H241204   4.206   5.451   2.261 -0.6209  1.4334 -0.1438
 6597TIP3   OH241205   2.597   6.734  14.621  0.0973 -0.5672 -0.5445
 6597TIP3    H141206   2.648   6.659  14.591 -0.7573 -0.7416 -1.6274
 6597TIP3    H241207   2.514   6.727  14.574 -0.6116  0.1798  0.5297
 6598TIP3   OH241208   5.765   3.871  15.585 -0.2644  0.0504 -0.1895
 6598TIP3    H141209   5.855   3.847  15.561 -1.2281 -3.1743 -1.2067
 6598TIP3    H241210   5.762   3.862  15.680  0.8120  1.6476  0.0242
 6599TIP3   OH241211   4.676   1.330   4.973  0.0829  0.3898 -0.0076
 6599TIP3    H141212   4.725   1.350   5.052  1.3160 -1.5050 -0.2390
 6599TIP3    H241213   4.735   1.277   4.920 -0.5790  1.8340 -2.3811
 6600TIP3   OH241214   0.644   1.550  16.262  0.1986 -0.0165  0.1819
 6600TIP3    H141215   0.574   1.535  16.198 -0.9106  0.5341  1.2360
 6600TIP3    H241216   0.716   1.585  16.210 -0.7812  0.7106 -0.7384
 6601TIP3   OH241217   0.434   5.498  12.334 -0.0749  0.5884 -0.2382
 6601TIP3    H141218   0.426   5.590  12.310 -0.2421  0.0440 -2.4394
 6601TIP3    H241219   0.349   5.460  12.310  0.4382 -0.3809 -0.5464
 6602TIP3   OH241220   3.875   0.658  14.447 -0.5502  0.4034 -0.3886
 6602TIP3    H141221   3.831   0.734  14.409 -1.6347  0.3118  0.6144
 6602TIP3    H241222   3.835   0.583  14.402  0.4127  0.3861 -1.2708
 6603TIP3   OH241223   1.259   2.444  15.904  0.2882  0.0936 -0.0155
 6603TIP3    H141224   1.285   2.353  15.921  0.6127  0.3925  1.2327
 6603TIP3    H241225   1.320   2.496  15.956 -1.0939  0.9295  0.8334
 6604TIP3   OH241226   2.092   3.776  14.644  0.2994 -0.1936  0.4888
 6604TIP3    H141227   2.060   3.722  14.571  0.2935  1.0603 -0.4730
 6604TIP3    H241228   2.013   3.806  14.688  0.1155  1.6645 -0.9737
 6605TIP3   OH241229   4.041   3.506   2.387  0.0141 -0.0212  0.0885
 6605TIP3    H141230   3.955   3.545   2.373 -0.2124 -0.9603 -1.4151
 6605TIP3    H241231   4.092   3.574   2.431 -1.2715  0.8114  0.3333
 6606TIP3   OH241232   0.783   3.821   2.766  0.1681 -0.0998 -0.1340
 6606TIP3    H141233   0.767   3.902   2.814 -0.5649 -1.2335  1.6573
 6606TIP3    H241234   0.839   3.769   2.824 -1.5823 -1.9350  0.0180
 6607TIP3   OH241235   5.933   2.857  14.825 -0.0928  0.2934  0.0207
 6607TIP3    H141236   5.968   2.852  14.736 -0.1445  0.4644 -0.0107
 6607TIP3    H241237   5.987   2.796  14.875 -0.7236 -0.5532 -0.3309
 6608TIP3   OH241238   1.645   1.321   2.983 -0.3575  0.0131 -0.3653
 6608TIP3    H141239   1.711   1.371   3.032  0.3759 -1.0591 -0.2374
 6608TIP3    H241240   1.564   1.334   3.033  0.4740 -1.4836  1.4864
 6609TIP3   OH241241   2.840   6.039   2.049 -0.2041 -0.1352 -0.5783
 6609TIP3    H141242   2.908   6.062   1.986  0.7567 -0.8084  0.1595
 6609TIP3    H241243   2.887   5.988   2.116 -1.1398  0.6948  0.7609
 6610TIP3   OH241244   5.643   5.096   4.148  0.0734  0.3879 -0.2145
 6610TIP3    H141245   5.662   5.020   4.092  0.1722  0.4741 -0.2999
 6610TIP3    H241246   5.716   5.156   4.132 -0.4856  0.9076 -0.8608
 6611TIP3   OH241247   1.433   2.106  14.186 -0.2375 -0.3193 -0.4225
 6611TIP3    H141248   1.470   2.152  14.111  0.2152 -0.7018 -0.4432
 6611TIP3    H241249   1.424   2.015  14.156 -1.4982 -0.1853 -0.5188
 6612TIP3   OH241250   2.858   4.179  14.219 -0.1394 -0.0863  0.1252
 6612TIP3    H141251   2.851   4.224  14.304  1.8319 -0.3579  0.4765
 6612TIP3    H241252   2.949   4.149  14.215 -0.3759 -0.6843 -1.8042
 6613TIP3   OH241253   5.696   2.162  12.893  0.6599  0.2881  0.0237
 6613TIP3    H141254   5.643   2.224  12.844 -0.0805 -1.2390 -1.2150
 6613TIP3    H241255   5.779   2.158  12.846 -0.3141 -1.7336 -1.6697
 6614TIP3   OH241256   1.789   6.656  16.671 -0.3486  0.1494 -0.1297
 6614TIP3    H141257   1.727   6.584  16.663 -2.1660  1.5159  0.9962
 6614TIP3    H241258   1.752   6.726  16.617  1.5122  0.2323 -1.4075
 6615TIP3   OH241259   0.485   6.566   5.259 -0.0547 -0.2517  0.8552
 6615TIP3    H141260   0.390   6.573   5.248 -0.1269 -1.2806  0.6517
 6615TIP3    H241261   0.508   6.634   5.322 -0.6085  1.4780 -0.7312
 6616TIP3   OH241262   5.566   0.729  15.814  0.3925  0.2175  0.0183
 6616TIP3    H141263   5.488   0.779  15.837  0.4155 -1.1492  3.9187
 6616TIP3    H241264   5.636   0.794  15.812  0.0995  0.7885  2.9984
 6617TIP3   OH241265   6.398   5.876  12.487 -0.2169 -0.1237 -0.0389
 6617TIP3    H141266   6.405   5.971  12.500 -3.5916  0.2323 -0.0882
 6617TIP3    H241267   6.333   5.866  12.418 -0.9392 -2.5009  0.9052
 6618TIP3   OH241268   6.058   1.909   3.376 -0.2125 -0.7582 -0.0086
 6618TIP3    H141269   6.127   1.946   3.321 -1.2471 -1.0543 -1.5945
 6618TIP3    H241270   5.991   1.881   3.313 -0.8390 -2.4260  1.3452
 6619TIP3   OH241271   3.855   2.763   4.609 -0.6475 -0.1185  0.2937
 6619TIP3    H141272   3.888   2.827   4.546 -1.6901 -0.3858 -0.5602
 6619TIP3    H241273   3.901   2.783   4.690  0.5410  0.3995 -0.4851
 6620TIP3   OH241274   1.175   4.182   1.730  0.3114  0.4222 -0.5126
 6620TIP3    H141275   1.107   4.184   1.662  1.0691 -2.3554 -1.5069
 6620TIP3    H241276   1.253   4.216   1.686  0.2304  0.9276 -0.2650
 6621TIP3   OH241277   0.240   3.394  12.903  0.8702  0.6465 -0.0790
 6621TIP3    H141278   0.195   3.382  12.987  0.7817 -1.9005 -0.4207
 6621TIP3    H241279   0.327   3.427  12.927  0.7768  0.1419  1.0101
 6622TIP3   OH241280   1.387   4.457   1.260 -0.1843  0.3429 -0.1141
 6622TIP3    H141281   1.423   4.489   1.343 -0.2499 -0.3867  0.2020
 6622TIP3    H241282   1.296   4.489   1.260 -1.5302 -2.9219  2.0127
 6623TIP3   OH241283   6.483   1.006  13.630 -0.1747  0.0819  0.1748
 6623TIP3    H141284   6.501   0.912  13.625  1.2839  0.3254  0.3779
 6623TIP3    H241285   6.451   1.019  13.719 -1.4467 -0.3808 -0.2046
 6624TIP3   OH241286   2.591   3.172  15.321  0.1177 -0.2582 -0.0032
 6624TIP3    H141287   2.555   3.145  15.406  1.3955 -1.4320  0.1966
 6624TIP3    H241288   2.516   3.170  15.261 -0.6608 -0.0762  0.9439
 6625TIP3   OH241289   6.302   1.315  14.692 -0.4661  0.0370 -0.0261
 6625TIP3    H141290   6.353   1.296  14.613  5.0734  0.3667  2.9620
 6625TIP3    H241291   6.307   1.235  14.745  3.0800  1.9601  3.0521
 6626TIP3   OH241292   6.018   3.327   4.831 -0.3074 -0.1512  0.1950
 6626TIP3    H141293   5.958   3.353   4.762  2.7678  2.5319 -1.7400
 6626TIP3    H241294   6.092   3.287   4.785  0.5755 -0.9607  2.2007
 6627TIP3   OH241295   3.033   4.901  11.306 -0.4848 -0.6876 -0.6464
 6627TIP3    H141296   3.114   4.907  11.255 -0.7216  1.0512 -0.8919
 6627TIP3    H241297   3.037   4.975  11.366 -1.6741 -0.8447 -0.3415
 6628TIP3   OH241298   6.637   5.057  13.447 -0.3485 -0.6823 -0.5595
 6628TIP3    H141299   6.696   5.127  13.419  0.7152 -1.2113  0.2940
 6628TIP3    H241300   6.693   4.995  13.492 -1.4595 -1.5509 -0.3256
 6629TIP3   OH241301   4.493   1.270  13.763  0.6893  0.2942  0.1013
 6629TIP3    H141302   4.478   1.277  13.669 -0.2182  1.5876  0.3136
 6629TIP3    H241303   4.585   1.293  13.775  1.3729 -1.8511 -0.6375
 6630TIP3   OH241304   2.478   2.503   3.942 -0.2335 -0.0306  0.3618
 6630TIP3    H141305   2.526   2.448   3.880 -0.8087  0.8104 -0.8569
 6630TIP3    H241306   2.507   2.472   4.028  3.0749  0.9374 -0.2624
 6631TIP3   OH241307   3.903   3.554   3.305 -0.7053 -0.1487  0.1348
 6631TIP3    H141308   3.992   3.579   3.330 -0.7685 -0.3564  0.5784
 6631TIP3    H241309   3.854   3.636   3.303 -0.8345 -0.1847  1.2504
 6632TIP3   OH241310   2.798   1.604  13.624 -0.4391  0.5265  0.4990
 6632TIP3    H141311   2.868   1.649  13.576 -1.1575  0.5013 -0.5952
 6632TIP3    H241312   2.830   1.600  13.714  1.3996 -0.3081 -0.1443
 6633TIP3   OH241313   4.440   5.867  15.322 -0.2470 -0.0232  0.1051
 6633TIP3    H141314   4.349   5.872  15.352 -0.1789  0.5229  0.2320
 6633TIP3    H241315   4.461   5.956  15.296 -0.2403 -0.4501 -1.4175
 6634TIP3   OH241316   1.107   4.859  13.742  0.2335  0.5961  0.3450
 6634TIP3    H141317   1.180   4.803  13.716  0.4675  1.1142 -0.1395
 6634TIP3    H241318   1.148   4.944  13.760 -0.2313  0.8403  0.2414
 6635TIP3   OH241319   1.678   5.259   3.490  0.9871  0.4846  0.4636
 6635TIP3    H141320   1.703   5.184   3.544 -2.7843  0.8156  3.0049
 6635TIP3    H241321   1.722   5.334   3.530 -0.5218  0.4935  2.1974
 6636TIP3   OH241322   3.277   6.657  14.759 -0.3545 -0.5525  0.4394
 6636TIP3    H141323   3.222   6.731  14.733 -1.4080 -1.6342 -0.5233
 6636TIP3    H241324   3.363   6.677  14.722 -1.1281 -0.7221 -1.5734
 6637TIP3   OH241325   3.029   3.142   5.774 -0.2642  0.5002 -0.0318
 6637TIP3    H141326   3.082   3.106   5.704 -2.2847  0.9421 -1.8896
 6637TIP3    H241327   3.059   3.233   5.784 -0.9198  0.8828 -1.3754
 6638TIP3   OH241328   1.200   2.829  15.955  0.9123  0.0074  0.1765
 6638TIP3    H141329   1.119   2.878  15.970  0.8175  0.3866 -1.4052
 6638TIP3    H241330   1.184   2.780  15.875  1.5103 -1.5795  0.9700
 6639TIP3   OH241331   4.295   5.256   5.542 -1.2853  0.1041 -0.5289
 6639TIP3    H141332   4.353   5.319   5.500 -2.3718  1.2043 -0.4362
 6639TIP3    H241333   4.208   5.276   5.506 -1.7468 -0.9569 -0.0522
 6640TIP3   OH241334   0.193   2.875   3.714  0.2139 -0.3250  0.7224
 6640TIP3    H141335   0.238   2.902   3.794  0.1223 -1.5921  1.2289
 6640TIP3    H241336   0.108   2.920   3.718  0.9521  1.1618  0.3359
 6641TIP3   OH241337   0.323   0.749   5.180 -0.4406  0.2803  0.2290
 6641TIP3    H141338   0.257   0.700   5.130  1.0693 -1.4864 -0.1779
 6641TIP3    H241339   0.389   0.774   5.115 -0.1845  1.0876  0.7853
 6642TIP3   OH241340   5.136   2.625   0.445 -0.1734  0.1324  0.1609
 6642TIP3    H141341   5.165   2.585   0.363 -1.4867 -0.3668 -0.0820
 6642TIP3    H241342   5.215   2.627   0.500  0.1055 -2.2718 -0.0356
 6643TIP3   OH241343   2.520   2.829   1.905  0.2781 -0.8054 -0.4152
 6643TIP3    H141344   2.597   2.833   1.850  0.3740 -1.3758 -0.3309
 6643TIP3    H241345   2.447   2.821   1.844  0.5618 -4.1652 -0.4807
 6644TIP3   OH241346   0.252   1.883  13.958  0.0936  0.0506  0.5694
 6644TIP3    H141347   0.291   1.846  13.879 -1.1633 -0.5057  0.1874
 6644TIP3    H241348   0.165   1.912  13.931 -0.4025 -0.2596  1.7643
 6645TIP3   OH241349   5.313   4.203   3.764 -0.2309 -0.0207 -0.7369
 6645TIP3    H141350   5.318   4.252   3.682 -0.3729  0.6802 -0.3314
 6645TIP3    H241351   5.288   4.268   3.829  0.4478 -0.4564 -0.0287
 6646TIP3   OH241352   1.583   3.113  11.937  0.3143 -0.2487 -0.5602
 6646TIP3    H141353   1.628   3.190  11.901  0.7755 -0.2423  0.0066
 6646TIP3    H241354   1.654   3.051  11.956 -0.1552 -1.3129 -2.1556
 6647TIP3   OH241355   6.318   4.067  14.015  0.2130 -0.3615 -0.0195
 6647TIP3    H141356   6.324   4.157  14.048 -2.1391 -0.9519  2.3792
 6647TIP3    H241357   6.331   4.075  13.921 -2.3385  2.8839 -0.2822
 6648TIP3   OH241358   0.755   5.684  14.289 -0.5467 -0.5984 -0.0501
 6648TIP3    H141359   0.836   5.729  14.263 -0.1267 -1.1103  0.3411
 6648TIP3    H241360   0.686   5.728  14.238 -0.0833  0.1153 -0.0876
 6649TIP3   OH241361   0.677   6.604  16.707 -0.1246 -0.0035 -0.2306
 6649TIP3    H141362   0.735   6.623  16.633 -0.0873 -1.1273 -0.5109
 6649TIP3    H241363   0.603   6.557  16.668 -1.0149  1.0278  0.1945
 6650TIP3   OH241364   1.534   2.572   1.965 -0.2846  0.1482  0.4366
 6650TIP3    H141365   1.440   2.593   1.957 -0.3974 -0.7073 -0.8462
 6650TIP3    H241366   1.576   2.658   1.973 -1.1815  0.5425  1.1281
 6651TIP3   OH241367   4.169   1.539   1.341  0.4622 -0.2478 -0.3115
 6651TIP3    H141368   4.238   1.473   1.343  2.3373  1.6202  1.5649
 6651TIP3    H241369   4.193   1.601   1.409 -2.5264  1.1088 -0.3265
 6652TIP3   OH241370   4.053   1.879  13.399 -0.1041  0.0467 -0.2190
 6652TIP3    H141371   4.124   1.866  13.336 -0.2905 -2.0843 -0.0631
 6652TIP3    H241372   4.098   1.896  13.482  0.1418  2.7644 -0.8259
 6653TIP3   OH241373   1.958   6.314   3.400 -0.3260 -0.1329 -0.2058
 6653TIP3    H141374   2.035   6.348   3.354 -1.1096  0.0831 -1.4030
 6653TIP3    H241375   1.993   6.276   3.481  0.8898  1.0891 -0.1113
 6654TIP3   OH241376   0.470   6.512  15.098 -0.3143 -0.0266  0.4132
 6654TIP3    H141377   0.459   6.563  15.018 -0.5619  0.1110  0.5341
 6654TIP3    H241378   0.563   6.520  15.119 -0.0905 -0.7243 -0.2983
 6655TIP3   OH241379   1.702   6.325  16.878  0.0378 -0.1317  0.1623
 6655TIP3    H141380   1.614   6.347  16.907 -0.1875 -3.5019  2.5136
 6655TIP3    H241381   1.759   6.364  16.944 -0.2465 -3.9151  2.9495
 6656TIP3   OH241382   4.536   4.765  16.593  0.4762  0.6383  0.2056
 6656TIP3    H141383   4.535   4.734  16.502  0.4382  2.0765 -0.3129
 6656TIP3    H241384   4.464   4.719  16.635  1.1773 -0.8843 -0.1814
 6657TIP3   OH241385   0.788   2.602  16.181 -0.0233  0.3751 -0.3038
 6657TIP3    H141386   0.848   2.553  16.125  0.9528 -0.3468  1.2743
 6657TIP3    H241387   0.847   2.652  16.239 -0.9691  0.2748  0.7616
 6658TIP3   OH241388   5.185   6.010   0.669 -0.3069 -0.2303  0.0713
 6658TIP3    H141389   5.234   6.061   0.733 -1.6991  0.4762  0.6215
 6658TIP3    H241390   5.230   6.025   0.586 -1.0153  2.4326  0.0899
 6659TIP3   OH241391   6.173   5.046  15.629  0.1418  0.5975 -0.1414
 6659TIP3    H141392   6.127   5.104  15.568  0.9417  0.1021 -1.2496
 6659TIP3    H241393   6.244   5.100  15.664 -0.2371  0.8409  0.2674
 6660TIP3   OH241394   0.622   3.942   6.039  0.7986  0.2244 -0.0884
 6660TIP3    H141395   0.695   3.993   6.004 -0.2457  1.7876 -0.1344
 6660TIP3    H241396   0.579   3.904   5.963  0.8096  0.3831 -0.1737
 6661TIP3   OH241397   5.845   3.231   2.575 -0.1254  0.1068  0.5804
 6661TIP3    H141398   5.914   3.166   2.589  0.0051  0.1841  0.3119
 6661TIP3    H241399   5.837   3.275   2.660 -0.6922 -0.7065  0.9628
 6662TIP3   OH241400   3.988   5.380   0.985  0.3039 -0.0498 -0.2230
 6662TIP3    H141401   3.927   5.452   1.001 -0.4142 -0.3688 -1.4088
 6662TIP3    H241402   3.951   5.306   1.034 -0.6191 -0.4039 -1.4096
 6663TIP3   OH241403   4.167   5.978   2.409 -0.0286  0.3420  0.2183
 6663TIP3    H141404   4.251   5.935   2.426  0.3427  0.5705 -0.9597
 6663TIP3    H241405   4.109   5.908   2.379  0.2398  0.4530 -0.5831
 6664TIP3   OH241406   1.924   4.308  11.646 -0.1231 -0.1108  0.3374
 6664TIP3    H141407   1.850   4.339  11.595  0.5856  0.9696 -0.0777
 6664TIP3    H241408   1.892   4.229  11.689 -1.5185  0.3497  0.2053
 6665TIP3   OH241409   3.192   4.397  15.778 -0.2776 -0.0119  0.1559
 6665TIP3    H141410   3.190   4.317  15.726  1.3435 -0.9518  1.4747
 6665TIP3    H241411   3.214   4.466  15.715 -2.9671 -0.2910 -1.2475
 6666TIP3   OH241412   6.052   0.432  15.346 -0.9004 -0.2312 -0.1454
 6666TIP3    H141413   6.092   0.517  15.329 -2.2379  0.0251 -2.3533
 6666TIP3    H241414   6.063   0.384  15.265 -3.1233 -0.9152 -0.0934
 6667TIP3   OH241415   5.598   4.811  12.132 -0.0619  0.3105 -0.1040
 6667TIP3    H141416   5.611   4.833  12.224  2.7435  2.1011 -0.8149
 6667TIP3    H241417   5.665   4.745  12.113  2.2784  2.9379 -1.7126
 6668TIP3   OH241418   5.226   5.785   0.149  0.0315  0.4105 -0.2613
 6668TIP3    H141419   5.205   5.712   0.090  0.1459  0.8334 -0.8324
 6668TIP3    H241420   5.160   5.779   0.218  0.3701 -0.5578 -0.0067
 6669TIP3   OH241421   4.950   2.211   3.080  0.4333 -0.1039 -0.1131
 6669TIP3    H141422   4.891   2.287   3.077  1.5674  0.7628 -2.4136
 6669TIP3    H241423   4.906   2.150   3.139 -1.5747  1.4693  0.1465
 6670TIP3   OH241424   3.336   4.526   2.122  0.3337 -0.1277  0.0723
 6670TIP3    H141425   3.332   4.437   2.156  2.3380 -0.6304 -0.8977
 6670TIP3    H241426   3.413   4.565   2.164 -0.5290  1.1758  0.5106
 6671TIP3   OH241427   3.413   0.299   4.791 -0.3226 -0.9775 -0.0736
 6671TIP3    H141428   3.477   0.250   4.841 -0.4785 -1.1164 -0.0107
 6671TIP3    H241429   3.330   0.284   4.836 -0.2103  0.1797  0.5544
 6672TIP3   OH241430   4.344   1.022   3.371 -0.0165 -0.1637 -0.0930
 6672TIP3    H141431   4.410   1.080   3.407  0.2197 -1.3260  1.4948
 6672TIP3    H241432   4.361   0.938   3.413 -1.7451 -0.7999 -0.5787
 6673TIP3   OH241433   6.335   0.798   3.337 -0.3923 -0.2407  0.0580
 6673TIP3    H141434   6.333   0.721   3.393 -0.7259  0.6188  1.2748
 6673TIP3    H241435   6.403   0.854   3.375  0.1777 -0.1225 -1.0916
 6674TIP3   OH241436   5.072   3.174   1.395  0.2867  0.6465  0.1145
 6674TIP3    H141437   5.020   3.205   1.321 -0.7541 -0.6514  0.2462
 6674TIP3    H241438   5.081   3.080   1.380  1.1388  0.5750  0.9882
 6675TIP3   OH241439   4.670   1.250  12.472 -0.6542 -0.3332 -0.0138
 6675TIP3    H141440   4.656   1.210  12.386 -0.4458 -0.4860  0.0244
 6675TIP3    H241441   4.677   1.176  12.532 -1.7881 -0.2114  0.2928
 6676TIP3   OH241442   2.070   1.510  14.326 -0.1199  0.1339 -0.3326
 6676TIP3    H141443   2.165   1.504  14.326 -0.0064  1.0157 -2.2421
 6676TIP3    H241444   2.045   1.515  14.418  1.8859  2.6023  0.1676
 6677TIP3   OH241445   0.643   3.356   3.537 -0.0617 -0.3180  0.0252
 6677TIP3    H141446   0.731   3.376   3.571  0.1045  0.1945 -0.7040
 6677TIP3    H241447   0.587   3.359   3.615  0.4325  0.1391  0.3745
 6678TIP3   OH241448   4.166   3.649   2.107  0.2920 -0.2238 -0.4489
 6678TIP3    H141449   4.187   3.728   2.157 -0.8638  0.2314 -0.6595
 6678TIP3    H241450   4.168   3.578   2.172 -3.1127  0.5967  0.7700
 6679TIP3   OH241451   0.863   5.820  11.637  0.2978 -0.2936  0.3460
 6679TIP3    H141452   0.879   5.896  11.580 -2.1138 -0.9051 -1.3415
 6679TIP3    H241453   0.816   5.856  11.712 -1.1168 -0.0708 -0.5959
 6680TIP3   OH241454   4.180   5.807   3.451 -0.6610  1.0910 -0.1170
 6680TIP3    H141455   4.219   5.887   3.487 -1.1722  1.3722 -0.1825
 6680TIP3    H241456   4.195   5.813   3.357  0.5219  0.4396  0.0132
 6681TIP3   OH241457   6.687   1.744   2.309 -0.0941 -0.3754  0.1804
 6681TIP3    H141458   6.717   1.774   2.395  0.8165  2.0997 -0.9307
 6681TIP3    H241459   6.591   1.743   2.317 -0.0290 -0.0650  1.1923
 6682TIP3   OH241460   5.887   1.790  11.077  0.0263 -0.3826  0.5115
 6682TIP3    H141461   5.831   1.866  11.091  0.2138 -0.3048  0.8489
 6682TIP3    H241462   5.929   1.806  10.993  0.3556  0.0657  0.7650
 6683TIP3   OH241463   4.564   6.245  11.294  1.0926 -0.1276  0.8859
 6683TIP3    H141464   4.480   6.279  11.262  1.5794  0.6800  0.4429
 6683TIP3    H241465   4.546   6.153  11.314 -0.0833  0.2143  1.4913
 6684TIP3   OH241466   3.036   3.356   0.881 -0.5308  0.0157  0.0159
 6684TIP3    H141467   3.048   3.312   0.796 -1.0381 -0.9676  0.4320
 6684TIP3    H241468   3.031   3.449   0.860  0.3018 -0.1373 -0.9328
 6685TIP3   OH241469   3.623   2.395  17.061  0.2539  0.2838  0.6544
 6685TIP3    H141470   3.604   2.346  17.141  0.9831 -1.4734 -0.1965
 6685TIP3    H241471   3.718   2.389  17.052 -0.0123 -1.8471 -1.7013
 6686TIP3   OH241472   3.585   6.398   3.927 -0.5688  0.4264  0.6686
 6686TIP3    H141473   3.635   6.339   3.983 -1.5177  0.6695  1.8210
 6686TIP3    H241474   3.632   6.398   3.843  0.4181 -0.5933  1.1974
 6687TIP3   OH241475   1.173   2.990   5.441  0.1974 -0.3715  0.0614
 6687TIP3    H141476   1.089   2.963   5.479 -0.1597  0.7889  0.1501
 6687TIP3    H241477   1.151   3.018   5.352  0.6819 -1.1077 -0.2921
 6688TIP3   OH241478   1.535   5.768  15.603 -0.3297 -0.5685  0.0712
 6688TIP3    H141479   1.460   5.710  15.612 -0.8402  0.2489  1.5133
 6688TIP3    H241480   1.578   5.765  15.688 -0.2509  0.9571  0.1258
 6689TIP3   OH241481   0.593   0.325   0.096 -0.2743  0.7366  0.0210
 6689TIP3    H141482   0.603   0.232   0.119 -0.0707  0.9758  0.9521
 6689TIP3    H241483   0.523   0.327   0.031 -0.6651 -0.0087  0.4161
 6690TIP3   OH241484   4.582   5.922  11.803  0.6372 -0.3045 -0.2004
 6690TIP3    H141485   4.556   5.855  11.865  2.1277 -0.4520  0.3056
 6690TIP3    H241486   4.574   6.004  11.851  1.3407 -0.3764  0.0537
 6691TIP3   OH241487   6.050   3.874  14.534  0.1126 -0.2677  0.7213
 6691TIP3    H141488   6.013   3.937  14.596  1.2796 -1.6727  2.9754
 6691TIP3    H241489   5.984   3.866  14.466 -0.5454  2.5311  0.9056
 6692TIP3   OH241490   5.382   3.158  16.883 -0.3384  0.2406 -0.4330
 6692TIP3    H141491   5.295   3.192  16.903 -0.3886 -0.1553  0.0457
 6692TIP3    H241492   5.442   3.228  16.907 -0.5101  0.4168 -0.5190
 6693TIP3   OH241493   5.898   3.329   5.305 -0.1670 -0.0364  0.5887
 6693TIP3    H141494   5.973   3.275   5.331 -1.2346 -1.4660  0.8417
 6693TIP3    H241495   5.926   3.371   5.224  1.1338 -0.0432  1.0096
 6694TIP3   OH241496   1.523   3.174  14.394  0.6148 -0.0211  0.0138
 6694TIP3    H141497   1.487   3.088  14.371  0.7413 -0.2591  0.6647
 6694TIP3    H241498   1.579   3.198  14.320 -0.3877  0.0681 -0.7289
 6695TIP3   OH241499   0.582   0.530   2.161 -0.2708 -0.2420  0.1172
 6695TIP3    H141500   0.565   0.561   2.072 -1.0143  1.8974  0.9499
 6695TIP3    H241501   0.546   0.598   2.218  0.0689 -1.6140  2.0768
 6696TIP3   OH241502   5.979   5.958  14.112  0.2277  0.3205 -0.0291
 6696TIP3    H141503   5.907   6.014  14.140  0.4386  1.3242 -1.3903
 6696TIP3    H241504   5.937   5.884  14.069 -0.0186 -0.0003  0.7446
 6697TIP3   OH241505   4.542   2.689  13.630 -0.8416  0.1493 -0.2672
 6697TIP3    H141506   4.558   2.669  13.537  1.1949 -0.2212  0.1243
 6697TIP3    H241507   4.517   2.781  13.630 -1.2698  0.0536 -1.2159
 6698TIP3   OH241508   2.214   3.579  17.140 -0.3092 -0.3893  0.2125
 6698TIP3    H141509   2.298   3.626  17.146  0.4504 -1.7490  0.5549
 6698TIP3    H241510   2.175   3.591  17.227  0.0706 -0.7102  0.4337
 6699TIP3   OH241511   0.733   2.058  14.349 -0.6235  0.7227  0.0227
 6699TIP3    H141512   0.705   2.149  14.340 -1.6813  0.3566 -0.6849
 6699TIP3    H241513   0.654   2.007  14.329  0.2537 -0.3677 -0.7860
 6700TIP3   OH241514   0.238   0.993   0.316 -0.5105  0.2453 -0.2257
 6700TIP3    H141515   0.149   1.016   0.339 -0.0920  0.6166  1.1135
 6700TIP3    H241516   0.288   1.074   0.326  0.6193 -0.6745  2.6745
 6701TIP3   OH241517   2.211   1.429   5.217 -0.9942  0.3042 -0.4403
 6701TIP3    H141518   2.144   1.457   5.154  0.6693  0.1345 -2.3892
 6701TIP3    H241519   2.292   1.468   5.184  0.1896 -1.0221  0.7913
 6702TIP3   OH241520   1.067   3.882   2.337  0.3616  0.1357 -0.3990
 6702TIP3    H141521   0.986   3.839   2.364  1.4265 -0.1962  2.6804
 6702TIP3    H241522   1.049   3.976   2.348 -0.3388  0.2406 -2.1606
 6703TIP3   OH241523   1.889   1.993  16.311  0.9979 -0.6210 -0.8294
 6703TIP3    H141524   1.860   2.060  16.250 -0.3493 -0.2591  0.1475
 6703TIP3    H241525   1.866   1.910  16.269  0.5389 -0.3903 -1.0447
 6704TIP3   OH241526   1.992   4.777  16.891 -0.2680 -0.2422  0.3013
 6704TIP3    H141527   2.010   4.808  16.980  0.5995  0.0726  0.0181
 6704TIP3    H241528   1.903   4.740  16.897  0.3955 -1.7663  1.7130
 6705TIP3   OH241529   3.801   4.175   5.889 -0.5155  0.5286  0.0672
 6705TIP3    H141530   3.854   4.255   5.890  0.2445  0.0471  1.3730
 6705TIP3    H241531   3.812   4.138   5.977 -0.2930 -1.3697 -0.7135
 6706TIP3   OH241532   3.053   3.727  10.736 -0.3658 -0.0987 -0.0250
 6706TIP3    H141533   3.110   3.651  10.721 -0.3409  0.0587 -0.7886
 6706TIP3    H241534   2.997   3.700  10.808  0.6586 -0.2663  0.7400
 6707TIP3   OH241535   6.227   5.785   6.468  0.3276  0.5254  0.0969
 6707TIP3    H141536   6.209   5.878   6.453  1.5385  0.6791 -0.5579
 6707TIP3    H241537   6.311   5.769   6.424  1.4010 -0.2896  2.2778
 6708TIP3   OH241538   0.583   4.216   4.532  0.4911  0.2547  0.2389
 6708TIP3    H141539   0.672   4.212   4.568  0.8063 -2.4531 -0.6066
 6708TIP3    H241540   0.535   4.148   4.579 -2.0907  3.4731  2.7360
 6709TIP3   OH241541   5.451   6.455  11.890 -0.6349 -0.2588 -0.0476
 6709TIP3    H141542   5.469   6.365  11.859  0.3887 -0.3208  0.6776
 6709TIP3    H241543   5.535   6.485  11.925 -0.8857  1.1126 -0.5684
 6710TIP3   OH241544   4.734   3.461  12.327  0.2900  0.7039  1.2150
 6710TIP3    H141545   4.821   3.422  12.325 -0.1120 -0.4308 -2.3808
 6710TIP3    H241546   4.741   3.540  12.274 -0.6786  1.1241  1.6716
 6711TIP3   OH241547   6.576   6.448   2.028 -0.1219  0.2036 -0.1270
 6711TIP3    H141548   6.558   6.440   2.122 -3.0335 -2.1986 -0.7122
 6711TIP3    H241549   6.657   6.400   2.015  0.0831  0.1793  1.0728
 6712TIP3   OH241550   4.022   4.710   2.287 -0.4134  0.5365 -0.0167
 6712TIP3    H141551   4.087   4.644   2.260  0.6819  1.3335  0.5926
 6712TIP3    H241552   3.940   4.661   2.292  0.0639 -0.4360 -1.1106
 6713TIP3   OH241553   3.438   0.304   0.247 -0.5977 -0.6945  0.0597
 6713TIP3    H141554   3.420   0.272   0.335  0.1920  0.6288  0.7412
 6713TIP3    H241555   3.531   0.328   0.249 -0.3534 -1.4388 -1.3995
 6714TIP3   OH241556   3.367   0.320   3.261 -0.1518  0.9665 -0.4614
 6714TIP3    H141557   3.367   0.384   3.332 -1.2584  1.5549 -0.9807
 6714TIP3    H241558   3.292   0.264   3.280 -1.8165  2.4561 -2.3071
 6715TIP3   OH241559   3.332   4.198   0.498  0.1261 -0.1406 -0.0530
 6715TIP3    H141560   3.296   4.285   0.516 -2.3309 -1.4137  1.8133
 6715TIP3    H241561   3.256   4.147   0.467  0.9985 -2.1200  0.8754
 6716TIP3   OH241562   4.273   3.614  11.039 -0.5246 -0.6170  0.4120
 6716TIP3    H141563   4.211   3.661  11.096  1.9372 -0.3442  3.1244
 6716TIP3    H241564   4.358   3.653  11.060  0.5882 -0.3887 -3.7582
 6717TIP3   OH241565   1.439   4.082  11.699  0.1981  0.5863  0.3766
 6717TIP3    H141566   1.391   4.053  11.622 -0.0936  1.1330  0.3488
 6717TIP3    H241567   1.406   4.028  11.770 -0.0873  0.6088  0.2629
 6718TIP3   OH241568   1.324   5.521  15.269  0.8046  0.1614  0.1031
 6718TIP3    H141569   1.395   5.557  15.324  1.1360 -0.4459  0.0834
 6718TIP3    H241570   1.347   5.548  15.180  0.3391  1.0320  0.2345
 6719TIP3   OH241571   0.299   2.948   3.307 -0.2381  0.6738  0.0308
 6719TIP3    H141572   0.387   2.971   3.279  0.3882 -0.3808  1.0896
 6719TIP3    H241573   0.281   3.005   3.382  0.0744 -0.0311  0.6514
 6720TIP3   OH241574   3.949   0.390   0.725 -0.4179  0.2349 -0.6916
 6720TIP3    H141575   3.982   0.429   0.644  0.1699 -0.7010 -0.9213
 6720TIP3    H241576   3.922   0.464   0.779 -0.0742  0.9057 -1.4292
 6721TIP3   OH241577   2.359   3.111  10.630  0.0711  0.1520  0.4074
 6721TIP3    H141578   2.301   3.039  10.653 -0.0453  0.1084 -0.0122
 6721TIP3    H241579   2.440   3.070  10.600 -1.0451  0.0146 -2.8867
 6722TIP3   OH241580   2.741   1.652  15.641 -0.3189  0.2131 -0.1065
 6722TIP3    H141581   2.723   1.558  15.639 -1.5417  0.4144 -2.4837
 6722TIP3    H241582   2.826   1.661  15.598 -1.1724  0.2907 -1.8810
 6723TIP3   OH241583   3.215   0.260   4.963 -0.0670 -0.7133 -0.6251
 6723TIP3    H141584   3.152   0.199   5.002 -0.5076  0.5112  0.6817
 6723TIP3    H241585   3.160   0.326   4.921  0.1426  1.4229  2.1251
 6724TIP3   OH241586   6.660   2.220  11.319  0.4416 -0.4299  0.1221
 6724TIP3    H141587   6.703   2.279  11.257  1.4543 -0.2494  0.9570
 6724TIP3    H241588   6.639   2.143  11.268 -0.2972  0.3792 -0.8344
 6725TIP3   OH241589   1.137   4.595   4.680 -0.1636  0.0355 -0.4555
 6725TIP3    H141590   1.136   4.606   4.775 -0.2638 -1.2003 -0.2994
 6725TIP3    H241591   1.050   4.561   4.659 -0.7546  1.9161 -1.2211
 6726TIP3   OH241592   6.164   4.895   3.435  0.3866 -0.0283  0.0742
 6726TIP3    H141593   6.115   4.815   3.452  1.9379 -0.8716  0.7364
 6726TIP3    H241594   6.255   4.867   3.423  0.5851  1.3599 -2.3019
 6727TIP3   OH241595   1.074   3.315  17.095 -0.3028 -0.1982 -0.3601
 6727TIP3    H141596   1.106   3.317  17.185  0.0410 -0.3981 -0.4757
 6727TIP3    H241597   1.000   3.375  17.094 -1.4458 -1.5557  0.4889
 6728TIP3   OH241598   6.662   4.247  14.790  0.4841 -0.2424  0.1606
 6728TIP3    H141599   6.659   4.169  14.734 -0.4190 -0.7368  0.8790
 6728TIP3    H241600   6.577   4.288  14.778  0.3499 -0.2514  1.0262
 6729TIP3   OH241601   2.879   4.335  16.199 -0.3013 -0.2430 -0.4707
 6729TIP3    H141602   2.920   4.345  16.113  1.0024  0.8875  0.2463
 6729TIP3    H241603   2.801   4.391  16.196  0.2037  0.4597 -0.6398
 6730TIP3   OH241604   3.305   2.680   4.459  0.3686  0.0700 -0.3904
 6730TIP3    H141605   3.393   2.717   4.452  0.0656  0.6291 -1.4216
 6730TIP3    H241606   3.252   2.732   4.400 -0.8469  0.2402  0.7874
 6731TIP3   OH241607   4.266   2.054   3.246 -0.0129 -0.5873 -0.5998
 6731TIP3    H141608   4.344   1.999   3.250 -0.8918 -1.9432 -1.2947
 6731TIP3    H241609   4.264   2.100   3.330  1.4853 -0.5745 -0.5495
 6732TIP3   OH241610   5.346   1.130  11.633  0.1351 -0.0680 -0.2010
 6732TIP3    H141611   5.283   1.059  11.622  0.7853 -0.6755 -0.0520
 6732TIP3    H241612   5.292   1.209  11.634 -0.6139 -0.5630 -0.2028
 6733TIP3   OH241613   2.568   6.756  13.035  0.8779 -0.0516  0.5334
 6733TIP3    H141614   2.608   6.795  13.113 -0.1497  2.2095  0.0137
 6733TIP3    H241615   2.578   6.662  13.047  1.2708  0.2588  3.1004
 6734TIP3   OH241616   3.289   1.802  15.980  0.0214 -0.2908  0.3530
 6734TIP3    H141617   3.330   1.745  16.044 -1.7910 -2.0879  0.0118
 6734TIP3    H241618   3.243   1.868  16.032  1.9863  0.8316  0.7502
 6735TIP3   OH241619   0.923   4.421   6.186  0.4924 -0.1332 -0.4556
 6735TIP3    H141620   0.918   4.514   6.209 -1.6662 -0.5608  1.0864
 6735TIP3    H241621   0.973   4.382   6.257  1.1508 -0.2138 -0.9557
 6736TIP3   OH241622   0.506   3.864  16.927  0.2054 -0.0616 -0.1021
 6736TIP3    H141623   0.497   3.769  16.940  0.7560 -0.1288 -0.2148
 6736TIP3    H241624   0.600   3.880  16.929  0.2304  0.2215 -1.8002
 6737TIP3   OH241625   6.418   6.601   0.587 -0.2339 -0.5661  0.5974
 6737TIP3    H141626   6.417   6.654   0.508 -0.8711 -2.3634 -0.6733
 6737TIP3    H241627   6.473   6.526   0.564 -0.5315 -1.1827  1.8268
 6738TIP3   OH241628   5.402   4.497  15.807  0.0654 -0.0984 -0.4507
 6738TIP3    H141629   5.428   4.405  15.807  0.5610  0.0381 -0.5721
 6738TIP3    H241630   5.460   4.539  15.743 -0.0569  0.3262 -0.2899
 6739TIP3   OH241631   6.605   2.035  16.768 -0.4213 -0.6200 -0.3972
 6739TIP3    H141632   6.538   2.015  16.834  0.1431  0.3111  0.4730
 6739TIP3    H241633   6.630   1.949  16.734 -0.6068 -1.1461  0.7251
 6740TIP3   OH241634   0.152   5.460  15.583 -0.1005 -0.4187 -0.4084
 6740TIP3    H141635   0.210   5.429  15.514 -1.1247 -0.1061 -1.4416
 6740TIP3    H241636   0.067   5.470  15.541 -0.8883 -0.7076  1.0225
 6741TIP3   OH241637   1.546   2.173  14.592  0.2183  0.5809  0.0863
 6741TIP3    H141638   1.591   2.183  14.676  1.3979 -0.6372 -0.3742
 6741TIP3    H241639   1.499   2.256  14.580 -1.3603  0.1691  2.7103
 6742TIP3   OH241640   3.613   3.330   0.294  1.0068  0.2353 -0.1967
 6742TIP3    H141641   3.701   3.367   0.302  1.3720 -0.9167  1.7185
 6742TIP3    H241642   3.561   3.379   0.359  0.3937  0.4164 -0.8133
 6743TIP3   OH241643   1.804   0.302   5.339  0.4078  0.1809 -0.1758
 6743TIP3    H141644   1.786   0.229   5.399  3.5154 -1.1036 -0.5914
 6743TIP3    H241645   1.867   0.357   5.386 -0.7532  1.8224 -0.4671
 6744TIP3   OH241646   3.650   3.874   1.493 -0.4319 -0.2498  0.4681
 6744TIP3    H141647   3.696   3.822   1.426  1.2257  0.2435  1.1794
 6744TIP3    H241648   3.654   3.821   1.572 -1.5859 -0.4247  0.4314
 6745TIP3   OH241649   3.421   3.908  12.546  0.3015 -0.3710  0.3118
 6745TIP3    H141650   3.505   3.954  12.557  0.0072  0.0436  0.8553
 6745TIP3    H241651   3.418   3.846  12.618  0.6907 -1.2631 -0.4123
 6746TIP3   OH241652   4.635   1.549  16.773  0.0208 -0.1005  0.0207
 6746TIP3    H141653   4.650   1.455  16.786 -1.6081 -0.2218  1.3828
 6746TIP3    H241654   4.540   1.557  16.763  0.3295  1.1804 -2.4634
 6747TIP3   OH241655   5.178   1.330  11.622 -0.0318  0.5066  0.1088
 6747TIP3    H141656   5.195   1.355  11.531 -1.3332  0.1495 -0.2564
 6747TIP3    H241657   5.084   1.346  11.634 -1.2575 -4.6047 -0.3757
 6748TIP3   OH241658   6.066   5.024  13.770  0.3648  0.0771 -0.2937
 6748TIP3    H141659   6.126   5.022  13.695 -3.4339  1.1404 -3.7041
 6748TIP3    H241660   6.054   5.117  13.789 -0.2829 -0.1061  0.2414
 6749TIP3   OH241661   2.558   6.677  15.244  0.0803  0.3809  0.4744
 6749TIP3    H141662   2.548   6.769  15.268 -0.0148  1.3308 -2.7573
 6749TIP3    H241663   2.645   6.653  15.276  0.1945  1.6445  1.1661
 6750TIP3   OH241664   2.841   3.953  13.757  0.1532 -0.2622  0.1863
 6750TIP3    H141665   2.866   4.034  13.800 -2.3157  1.2406 -0.9692
 6750TIP3    H241666   2.923   3.908  13.738  1.4839  1.0062  2.5936
 6751TIP3   OH241667   1.458   5.403   0.421 -0.3463  0.2871  0.2484
 6751TIP3    H141668   1.422   5.314   0.412 -0.7398  0.5649 -1.1754
 6751TIP3    H241669   1.398   5.448   0.480 -1.8270  0.4490 -1.3158
 6752TIP3   OH241670   4.793   1.334   0.464 -0.4859 -0.0660  0.6222
 6752TIP3    H141671   4.824   1.252   0.502 -0.0663 -1.0555 -1.6960
 6752TIP3    H241672   4.871   1.374   0.425 -1.1613 -0.0626 -0.8151
 6753TIP3   OH241673   5.627   3.437  14.358  0.0984  0.0402  0.0449
 6753TIP3    H141674   5.689   3.476  14.419  0.5005 -0.5551  0.0324
 6753TIP3    H241675   5.625   3.497  14.284  0.3790  0.2542  0.2096
 6754TIP3   OH241676   0.893   1.578  12.777 -0.4065 -0.8243 -0.8871
 6754TIP3    H141677   0.800   1.558  12.771 -0.6003  0.1577 -1.2920
 6754TIP3    H241678   0.897   1.661  12.825  0.4871 -2.7603  2.8205
 6755TIP3   OH241679   4.652   6.071  17.008  0.3422  0.0746  0.1319
 6755TIP3    H141680   4.670   6.036  16.921  1.0301 -0.4876  0.4828
 6755TIP3    H241681   4.722   6.134  17.024  2.3427 -2.2843  1.5937
 6756TIP3   OH241682   3.165   2.157  12.140  0.2092  0.4609 -0.1952
 6756TIP3    H141683   3.191   2.074  12.099 -1.1797  0.1650 -0.5258
 6756TIP3    H241684   3.086   2.135  12.190 -0.4987  1.6985 -0.7398
 6757TIP3   OH241685   3.946   6.588  13.181  0.2036 -0.5307 -0.0505
 6757TIP3    H141686   3.903   6.619  13.102 -1.8114  0.4579  1.3524
 6757TIP3    H241687   4.024   6.642  13.189 -0.3433  0.3659 -0.6102
 6758TIP3   OH241688   1.526   0.411   0.139  0.5355 -0.0689  0.1594
 6758TIP3    H141689   1.481   0.452   0.065 -1.4527 -0.8427  0.8663
 6758TIP3    H241690   1.593   0.475   0.164  1.3013  0.1920 -2.2985
 6759TIP3   OH241691   0.333   3.662  14.854 -1.1357  0.0406  0.4253
 6759TIP3    H141692   0.255   3.679  14.801 -1.3283  1.6967  1.1699
 6759TIP3    H241693   0.327   3.724  14.927  2.0873  2.1184 -0.8022
 6760TIP3   OH241694   3.580   3.178  16.560  0.3241  0.1905  0.4038
 6760TIP3    H141695   3.488   3.151  16.549  0.1889  0.9772 -0.5105
 6760TIP3    H241696   3.624   3.099  16.592 -0.0783 -1.1645 -2.0865
 6761TIP3   OH241697   1.530   2.551  14.164 -0.4763 -0.4314  0.0130
 6761TIP3    H141698   1.451   2.592  14.129  0.1107  0.1968 -0.6045
 6761TIP3    H241699   1.538   2.587  14.252  0.0676  0.8670 -0.5476
 6762TIP3   OH241700   5.708   3.969  11.544  0.4817  0.3249  0.0962
 6762TIP3    H141701   5.772   3.899  11.530 -0.5019 -0.2875 -1.7928
 6762TIP3    H241702   5.627   3.922  11.565  0.0147  0.9298 -0.3252
 6763TIP3   OH241703   0.967   1.701   1.451  0.2153 -0.1860 -0.2960
 6763TIP3    H141704   1.053   1.659   1.458  0.0835 -0.4165 -0.0528
 6763TIP3    H241705   0.952   1.738   1.538 -0.4784 -1.2157  0.0402
 6764TIP3   OH241706   4.166   3.311   4.957  0.3019  0.0726  0.5857
 6764TIP3    H141707   4.195   3.229   4.998  1.6500  0.3973  0.3357
 6764TIP3    H241708   4.098   3.344   5.016  1.8356  0.2888  2.3534
 6765TIP3   OH241709   5.211   1.099  15.903  0.4126 -0.4111  0.2433
 6765TIP3    H141710   5.236   1.183  15.863 -3.8521  0.6365 -0.8180
 6765TIP3    H241711   5.178   1.123  15.990 -2.6084 -0.4937 -0.7524
 6766TIP3   OH241712   0.923   1.700  10.900 -0.0756  0.1231  0.3894
 6766TIP3    H141713   0.873   1.652  10.833 -0.2617  0.6390  0.1593
 6766TIP3    H241714   0.930   1.638  10.972  0.2379 -0.4882 -0.1548
 6767TIP3   OH241715   0.476   0.235  11.097  0.1576 -0.1670 -0.6462
 6767TIP3    H141716   0.530   0.157  11.082  3.1159  1.5642  0.1708
 6767TIP3    H241717   0.391   0.212  11.061  1.5485 -2.9200 -2.5666
 6768TIP3   OH241718   3.657   4.983  14.173 -0.2570  0.0433  0.8838
 6768TIP3    H141719   3.653   5.044  14.100  0.5432 -1.8827 -0.9091
 6768TIP3    H241720   3.585   4.922  14.157  0.8406 -1.2857  0.7765
 6769TIP3   OH241721   0.398   5.685   0.932  0.1654 -0.4966 -0.2224
 6769TIP3    H141722   0.475   5.651   0.978 -0.5388 -1.0056  0.6105
 6769TIP3    H241723   0.415   5.779   0.923  0.7400 -0.5524  0.2280
 6770TIP3   OH241724   3.550   1.937   0.278 -0.0976 -0.2278  0.2875
 6770TIP3    H141725   3.486   1.906   0.214 -1.3828 -0.4800  1.6438
 6770TIP3    H241726   3.570   1.861   0.332  2.7454 -0.6245 -1.1500
 6771TIP3   OH241727   0.708   2.120   3.496  0.2485  0.0437  0.1147
 6771TIP3    H141728   0.749   2.043   3.456 -1.0534 -0.7764  0.2994
 6771TIP3    H241729   0.753   2.194   3.456  1.5370 -0.8003 -0.0712
 6772TIP3   OH241730   6.484   3.720   4.650 -0.1918  0.1949 -0.0898
 6772TIP3    H141731   6.395   3.735   4.619 -0.9432 -0.8696  1.4090
 6772TIP3    H241732   6.484   3.750   4.741  1.0094  0.2878 -0.1003
 6773TIP3   OH241733   6.749   2.665   1.656  0.0511 -0.2384 -0.4747
 6773TIP3    H141734   6.714   2.600   1.717  0.8901 -0.2336  0.0221
 6773TIP3    H241735   6.761   2.744   1.710  0.1812 -0.0352 -0.8000
 6774TIP3   OH241736   2.406   4.620   0.525 -0.7216 -0.4014  0.1073
 6774TIP3    H141737   2.435   4.703   0.563 -0.4710 -0.0617 -0.8183
 6774TIP3    H241738   2.350   4.645   0.452  0.6831 -1.0249 -1.2147
 6775TIP3   OH241739   3.792   3.769  15.523 -0.1633  0.2333 -0.6991
 6775TIP3    H141740   3.768   3.695  15.467 -1.1507  0.0150 -0.0179
 6775TIP3    H241741   3.823   3.729  15.603 -1.9390  0.5119  0.1887
 6776TIP3   OH241742   0.407   3.344  11.508 -0.0882  0.9003 -0.6815
 6776TIP3    H141743   0.432   3.381  11.424  0.3772  2.9789  0.2834
 6776TIP3    H241744   0.314   3.364  11.517  0.2618  2.3767  0.0349
 6777TIP3   OH241745   5.661   3.721   1.927 -0.1964 -0.7872  0.4825
 6777TIP3    H141746   5.618   3.702   1.844  1.4023  0.1445 -0.6114
 6777TIP3    H241747   5.597   3.695   1.994 -1.9555 -0.5545 -1.0267
 6778TIP3   OH241748   1.070   5.468  13.274  0.7410  0.0424  0.2208
 6778TIP3    H141749   1.068   5.475  13.179  0.6739 -0.2562  0.2018
 6778TIP3    H241750   1.107   5.552  13.303 -1.5725  1.2203  0.0583
 6779TIP3   OH241751   2.485   0.323   1.381  0.3431 -0.2381 -0.5570
 6779TIP3    H141752   2.467   0.357   1.468 -0.0071 -1.6052 -0.0665
 6779TIP3    H241753   2.468   0.396   1.322 -1.5831  0.0989  0.3477
 6780TIP3   OH241754   3.596   6.145   1.471 -0.1053 -0.5431  0.5799
 6780TIP3    H141755   3.549   6.173   1.549  0.8071 -1.6972  1.5838
 6780TIP3    H241756   3.639   6.225   1.439 -0.1894 -0.1326  1.4744
 6781TIP3   OH241757   4.767   0.539  15.961  0.4630  0.7219 -0.4415
 6781TIP3    H141758   4.693   0.558  16.018 -0.5662 -2.2646 -0.6450
 6781TIP3    H241759   4.844   0.553  16.016 -0.4515 -0.3796  1.1916
 6782TIP3   OH241760   6.657   0.447  16.785  0.0174 -0.3013  0.2893
 6782TIP3    H141761   6.718   0.408  16.723  0.9140  1.4021  0.0353
 6782TIP3    H241762   6.714   0.486  16.852 -0.6844  2.1563 -0.4490
 6783TIP3   OH241763   3.164   3.415  15.734  0.2440 -0.0944 -0.0974
 6783TIP3    H141764   3.135   3.504  15.713  2.2321  0.3918 -1.0483
 6783TIP3    H241765   3.165   3.369  15.650 -1.3065 -1.2335  0.4603
 6784TIP3   OH241766   1.282   5.677   3.499 -0.4994  0.2954 -0.1111
 6784TIP3    H141767   1.288   5.731   3.577  0.1780 -0.9360  0.7327
 6784TIP3    H241768   1.190   5.681   3.473 -0.6148  1.1842  0.3972
 6785TIP3   OH241769   0.246   4.170  15.199  0.3574  0.0592  0.0074
 6785TIP3    H141770   0.234   4.252  15.246 -0.5710  0.7763 -1.4195
 6785TIP3    H241771   0.172   4.165  15.139 -0.1142 -2.2827  0.6626
 6786TIP3   OH241772   1.816   4.820   2.204 -0.0179 -0.4291  0.4671
 6786TIP3    H141773   1.814   4.885   2.274 -0.0858 -0.8537  0.8660
 6786TIP3    H241774   1.897   4.838   2.157  1.3096 -1.6764  2.1505
 6787TIP3   OH241775   5.626   0.650   4.348 -0.1243  0.4490  1.3312
 6787TIP3    H141776   5.601   0.629   4.258 -0.1922 -0.7807  1.6194
 6787TIP3    H241777   5.719   0.627   4.353 -0.2057  0.1927  1.6712
 6788TIP3   OH241778   3.469   3.358  15.645 -0.3740 -0.1375 -0.1076
 6788TIP3    H141779   3.388   3.313  15.671 -1.2422  0.9511 -0.8541
 6788TIP3    H241780   3.457   3.448  15.674 -0.1126  0.4041 -1.6243
 6789TIP3   OH241781   6.490   6.225  14.063 -0.3621  0.3780 -0.3379
 6789TIP3    H141782   6.435   6.226  13.984 -0.2475  0.1920 -0.4213
 6789TIP3    H241783   6.442   6.170  14.125 -0.7244  0.9781 -0.0776
 6790TIP3   OH241784   0.352   3.015  16.711  0.3291 -0.4399 -0.2965
 6790TIP3    H141785   0.384   2.965  16.786  0.6177  1.3249  0.8093
 6790TIP3    H241786   0.417   2.999  16.642  1.1176 -0.5275  0.4573
 6791TIP3   OH241787   0.573   1.511   2.164  0.2800  0.1247 -0.4080
 6791TIP3    H141788   0.618   1.594   2.152  0.0073  0.1886 -0.9934
 6791TIP3    H241789   0.577   1.495   2.259 -1.2678  1.7215 -0.0282
 6792TIP3   OH241790   1.565   5.652  12.783 -0.3234  0.1819  0.6535
 6792TIP3    H141791   1.620   5.688  12.713 -0.2572  0.9505  1.0841
 6792TIP3    H241792   1.604   5.568  12.803  0.7662  0.7507  1.0121
 6793TIP3   OH241793   2.369   3.107  15.737  0.1347  0.1797 -0.1819
 6793TIP3    H141794   2.325   3.028  15.704 -1.0262 -0.5718  2.8868
 6793TIP3    H241795   2.304   3.151  15.790  1.9123  1.1750  1.2784
 6794TIP3   OH241796   6.141   4.454   0.206 -0.1177  0.0860 -0.4041
 6794TIP3    H141797   6.112   4.408   0.127 -2.1605  0.0273  0.3115
 6794TIP3    H241798   6.064   4.504   0.234  1.0211  1.2853  0.7263
 6795TIP3   OH241799   5.998   0.429   0.365  0.5045  0.1563 -0.1466
 6795TIP3    H141800   6.085   0.438   0.326  1.1758  0.2621  1.3226
 6795TIP3    H241801   5.983   0.511   0.412  0.2063 -0.3998  0.7567
 6796TIP3   OH241802   2.144   6.769  11.940  0.4648  0.0736 -0.0685
 6796TIP3    H141803   2.116   6.689  11.985  0.1238 -1.1577 -2.3407
 6796TIP3    H241804   2.139   6.748  11.847  1.4605  2.3981 -0.7294
 6797TIP3   OH241805   2.631   5.810   0.981 -0.3219 -0.1340 -1.2148
 6797TIP3    H141806   2.701   5.841   1.039 -0.8647 -1.5421  0.2378
 6797TIP3    H241807   2.599   5.890   0.938  0.6640  0.8320 -0.2252
 6798TIP3   OH241808   2.298   0.299  12.320 -0.2986 -0.2681  0.2841
 6798TIP3    H141809   2.268   0.265  12.405  1.4996 -0.2957  0.9530
 6798TIP3    H241810   2.285   0.226  12.259 -1.3033 -0.3605  0.5877
 6799TIP3   OH241811   1.655   5.683  17.010 -0.3354 -0.2804  0.3174
 6799TIP3    H141812   1.656   5.705  16.917  1.9956  1.1274  0.5872
 6799TIP3    H241813   1.656   5.768  17.055 -2.0401 -0.9184  1.6755
 6800TIP3   OH241814   4.976   1.286   1.024  0.0828  0.3848  0.0735
 6800TIP3    H141815   5.018   1.331   0.950  0.9441  0.6946  0.7239
 6800TIP3    H241816   4.883   1.300   1.011  0.0135 -1.5865 -2.2396
 6801TIP3   OH241817   2.055   4.695   6.331  0.2097  0.7619  0.2390
 6801TIP3    H141818   1.983   4.638   6.303  1.5914 -0.7757 -0.3589
 6801TIP3    H241819   2.038   4.712   6.423 -1.6326  1.5751 -0.2035
 6802TIP3   OH241820   2.328   0.828   6.018  0.5494 -0.1233 -0.3240
 6802TIP3    H141821   2.234   0.843   6.024  0.7085  0.2808  2.8426
 6802TIP3    H241822   2.367   0.914   6.036  1.5801 -0.0207 -2.7344
 6803TIP3   OH241823   3.814   0.119  15.442  0.0226 -0.6832 -0.5506
 6803TIP3    H141824   3.779   0.038  15.479 -0.3571 -0.4491 -0.3948
 6803TIP3    H241825   3.909   0.110  15.450 -0.0368  0.0259  1.9690
 6804TIP3   OH241826   2.374   1.096  15.633 -0.1343 -0.5280 -0.3274
 6804TIP3    H141827   2.465   1.068  15.642  0.2899  0.3826 -1.5664
 6804TIP3    H241828   2.378   1.191  15.634 -1.0284 -0.4729 -0.8571
 6805TIP3   OH241829   4.562   5.365   3.437  0.0094  0.4434  0.4997
 6805TIP3    H141830   4.547   5.454   3.405  0.0244  0.5834  0.8731
 6805TIP3    H241831   4.650   5.344   3.409 -0.0105  0.5308  0.3707
 6806TIP3   OH241832   5.714   5.939   2.339  0.3374  0.4868 -0.2295
 6806TIP3    H141833   5.774   5.968   2.408 -0.4232 -2.2223  1.6965
 6806TIP3    H241834   5.768   5.886   2.281  0.7555  1.9676 -1.2725
 6807TIP3   OH241835   2.501   0.809  13.667  0.4822 -0.0244  0.0528
 6807TIP3    H141836   2.591   0.802  13.635 -0.3796 -0.3386 -2.4709
 6807TIP3    H241837   2.488   0.730  13.720  1.2354 -0.7165 -0.7757
 6808TIP3   OH241838   4.920   5.376  12.745  0.0810  0.3706  0.6709
 6808TIP3    H141839   4.932   5.322  12.822  0.9304  0.8997  0.9222
 6808TIP3    H241840   4.965   5.329  12.674 -1.6646 -0.6848  0.2118
 6809TIP3   OH241841   3.637   5.322  11.491  0.5591 -0.2261  0.0708
 6809TIP3    H141842   3.589   5.383  11.547  1.2300  1.9869 -1.5816
 6809TIP3    H241843   3.718   5.369  11.469  1.1774 -1.7791 -1.1696
 6810TIP3   OH241844   6.336   0.976   5.838 -0.3984 -0.0079  0.4336
 6810TIP3    H141845   6.323   0.960   5.931 -1.6114  0.6621  0.4000
 6810TIP3    H241846   6.375   0.895   5.804 -2.6705 -1.4270  0.9794
 6811TIP3   OH241847   1.067   0.542   1.328 -0.1508 -0.1384  0.2003
 6811TIP3    H141848   1.094   0.540   1.236 -0.0979 -0.1031  0.2149
 6811TIP3    H241849   1.043   0.452   1.348  0.2773 -0.2371  0.2811
 6812TIP3   OH241850   6.764   1.542  15.252  0.6138 -0.1645 -0.0886
 6812TIP3    H141851   6.784   1.621  15.202 -0.1808  0.8225  1.1075
 6812TIP3    H241852   6.762   1.473  15.186  3.2127  0.4276 -0.9339
 6813TIP3   OH241853   6.170   1.075  11.152 -0.3525  0.4110  0.2233
 6813TIP3    H141854   6.149   1.016  11.080  1.4802 -0.6251  0.4804
 6813TIP3    H241855   6.085   1.106  11.184 -1.2362  0.3040 -1.8738
 6814TIP3   OH241856   6.094   4.017   0.241 -0.0817  0.1040 -0.0839
 6814TIP3    H141857   6.061   3.927   0.236  0.3956 -0.0425 -0.8136
 6814TIP3    H241858   6.030   4.064   0.295  0.3207 -0.9581  1.3789
 6815TIP3   OH241859   0.668   1.036   1.692  0.4707 -0.2237  0.3326
 6815TIP3    H141860   0.632   0.997   1.772  2.1211 -0.7683  0.8381
 6815TIP3    H241861   0.620   0.992   1.621  0.3255 -1.1171  0.9705
 6816TIP3   OH241862   5.668   1.713  14.473 -0.1796 -0.0195  0.6545
 6816TIP3    H141863   5.617   1.657  14.532 -0.7359 -0.2256 -0.0054
 6816TIP3    H241864   5.746   1.662  14.454 -0.2456 -0.1767  0.8027
 6817TIP3   OH241865   4.374   3.672   4.825 -0.2619  0.5005 -0.2671
 6817TIP3    H141866   4.318   3.621   4.767 -0.0941 -0.9056  0.7735
 6817TIP3    H241867   4.405   3.610   4.890  1.3993  1.5445  0.0016
 6818TIP3   OH241868   5.213   6.674  14.697 -0.0435  0.6094  0.8383
 6818TIP3    H141869   5.184   6.733  14.626 -1.4386  0.5361  1.3268
 6818TIP3    H241870   5.224   6.732  14.772 -0.6033  0.3816  1.1000
 6819TIP3   OH241871   4.909   0.044  11.251 -0.0995 -0.7080 -0.2127
 6819TIP3    H141872   4.872   0.069  11.336  1.2513 -1.1096  0.5348
 6819TIP3    H241873   5.004   0.051  11.264  0.1623  2.2883 -2.6606
 6820TIP3   OH241874   5.714   3.785  14.436 -0.0388  0.0305 -0.1870
 6820TIP3    H141875   5.722   3.690  14.439  0.8366  0.0317 -1.7662
 6820TIP3    H241876   5.769   3.812  14.363 -1.6211  1.6055 -0.8730
 6821TIP3   OH241877   6.404   1.345  12.191  0.5159 -0.3928  0.3029
 6821TIP3    H141878   6.436   1.427  12.227 -2.1214  0.4171  1.0186
 6821TIP3    H241879   6.420   1.351  12.097  1.4557  0.3706  0.4988
 6822TIP3   OH241880   1.730   0.259  11.296 -0.0444  0.3215 -0.0039
 6822TIP3    H141881   1.751   0.343  11.336 -0.8760 -0.3346  1.9032
 6822TIP3    H241882   1.800   0.201  11.327 -1.4465 -0.5227  1.7374
 6823TIP3   OH241883   4.668   5.667  11.540  0.3434 -0.0284 -0.3355
 6823TIP3    H141884   4.750   5.624  11.565 -0.8683 -0.7689  2.9261
 6823TIP3    H241885   4.662   5.654  11.446  4.5742  1.2578 -1.0038
 6824TIP3   OH241886   3.360   0.619  11.122  0.5272 -0.1849 -1.1794
 6824TIP3    H141887   3.395   0.531  11.108  0.3390 -0.6089  0.7452
 6824TIP3    H241888   3.378   0.665  11.040 -0.0237 -2.2066 -2.5174
 6825TIP3   OH241889   4.562   3.793   3.934 -0.4288  0.4227 -0.6116
 6825TIP3    H141890   4.568   3.769   3.841 -1.3383  0.4630 -0.6952
 6825TIP3    H241891   4.648   3.827   3.956  0.3300 -1.1502 -0.9945
 6826TIP3   OH241892   1.402   3.288   3.106  0.2804  0.0243 -0.1757
 6826TIP3    H141893   1.325   3.244   3.142  0.7653 -0.5279  0.2106
 6826TIP3    H241894   1.447   3.324   3.183  0.6836 -0.1127 -0.3461
 6827TIP3   OH241895   2.854   5.835  11.621  0.6397 -0.3117  0.2345
 6827TIP3    H141896   2.829   5.926  11.635 -1.1621 -0.8955  1.0434
 6827TIP3    H241897   2.940   5.840  11.578  0.5967  1.7453  0.3100
 6828TIP3   OH241898   4.932   6.425   3.251  0.0128  0.5933  1.3975
 6828TIP3    H141899   5.023   6.447   3.230  0.1021 -0.0535  1.0989
 6828TIP3    H241900   4.936   6.387   3.339  0.2492 -0.8629  0.7783
 6829TIP3   OH241901   0.331   2.395   4.432  0.4166  0.3413  0.1127
 6829TIP3    H141902   0.424   2.390   4.410  0.6969  0.5226  1.2033
 6829TIP3    H241903   0.288   2.417   4.349  1.1715 -1.1858 -0.7229
 6830TIP3   OH241904   6.624   5.652   5.714  0.4893  0.3781 -0.5783
 6830TIP3    H141905   6.552   5.627   5.772  1.8810 -1.0673  0.6062
 6830TIP3    H241906   6.638   5.746   5.732 -0.2673  0.3616  0.1027
 6831TIP3   OH241907   2.124   3.869  13.886  0.0250  0.1362 -0.6612
 6831TIP3    H141908   2.140   3.784  13.927  1.2211  0.8292  0.3806
 6831TIP3    H241909   2.210   3.895  13.851  0.4949  2.2758  1.7670
 6832TIP3   OH241910   5.909   1.173  15.536 -0.6025 -0.7225 -0.1239
 6832TIP3    H141911   5.842   1.127  15.485 -1.7858  0.5129  0.2800
 6832TIP3    H241912   5.946   1.105  15.593 -0.2964 -1.7914 -1.5332
 6833TIP3   OH241913   0.835   4.221   4.658  0.2262  0.1338  0.2617
 6833TIP3    H141914   0.771   4.205   4.727  0.3011  0.2445  0.3559
 6833TIP3    H241915   0.912   4.170   4.685  0.2709  0.2122  0.2831
 6834TIP3   OH241916   6.029   5.440   3.151  0.2123  0.0879 -0.0762
 6834TIP3    H141917   6.075   5.357   3.161  0.0446  0.1275  1.2602
 6834TIP3    H241918   6.003   5.443   3.059 -3.1541 -3.0996  0.5394
 6835TIP3   OH241919   4.350   0.160  15.463 -0.0529 -0.1035  0.3756
 6835TIP3    H141920   4.351   0.255  15.458 -2.0690 -0.0985 -1.5344
 6835TIP3    H241921   4.403   0.139  15.540  3.0904  2.3976 -0.8882
 6836TIP3   OH241922   5.494   3.547  16.070 -0.1861  0.5682  0.7491
 6836TIP3    H141923   5.579   3.502  16.073 -0.9959 -1.0386  3.2922
 6836TIP3    H241924   5.479   3.575  16.160 -1.3660  2.9091 -0.0899
 6837TIP3   OH241925   0.091   5.746  14.104 -0.0979  0.0348  0.4590
 6837TIP3    H141926   0.094   5.776  14.013 -1.0936  0.5552  0.5830
 6837TIP3    H241927   0.057   5.821  14.152 -0.6920 -0.6271  1.0880
 6838TIP3   OH241928   2.481   6.020   0.401  0.1398 -0.3697 -0.4582
 6838TIP3    H141929   2.440   6.101   0.369 -0.6313 -1.2986 -1.9191
 6838TIP3    H241930   2.574   6.032   0.384 -0.1060 -0.2810 -1.8838
 6839TIP3   OH241931   3.858   2.904  16.989 -0.3485 -0.0285 -0.3358
 6839TIP3    H141932   3.813   2.942  17.065 -2.1616  0.9389 -1.8100
 6839TIP3    H241933   3.950   2.902  17.015 -0.8785  0.4107  1.8192
 6840TIP3   OH241934   1.700   6.424  13.312  1.0270 -0.4391 -0.0642
 6840TIP3    H141935   1.767   6.388  13.370  1.0855 -1.5577 -0.7961
 6840TIP3    H241936   1.642   6.473  13.370  2.0478 -0.0912  0.6858
 6841TIP3   OH241937   6.306   1.630  13.562 -0.2974  0.7695  0.1869
 6841TIP3    H141938   6.215   1.641  13.535 -0.4185  1.1008  0.7186
 6841TIP3    H241939   6.348   1.589  13.487 -0.7299  1.2489 -0.3253
 6842TIP3   OH241940   4.014   5.007   4.104 -0.4748  0.4960  0.5004
 6842TIP3    H141941   4.046   4.957   4.179 -0.6880 -0.3210  0.0649
 6842TIP3    H241942   4.013   5.098   4.134  0.4246  0.3073  1.1407
 6843TIP3   OH241943   4.096   5.048   5.813 -0.7699  0.2436  0.0060
 6843TIP3    H141944   4.016   5.007   5.845 -0.6310  1.3865  1.9690
 6843TIP3    H241945   4.153   5.054   5.890  2.0344 -2.2272 -1.6582
 6844TIP3   OH241946   0.415   2.985   0.176  0.0231 -0.3003 -0.1676
 6844TIP3    H141947   0.450   3.011   0.091  1.5234 -1.2431  0.1177
 6844TIP3    H241948   0.363   3.060   0.205  0.6446  0.5912 -1.2750
 6845TIP3   OH241949   6.457   0.433   3.867  0.1382  0.1973 -0.1065
 6845TIP3    H141950   6.491   0.386   3.943  0.8032  1.7463  0.6005
 6845TIP3    H241951   6.461   0.526   3.892 -0.4105  0.6943 -1.7201
 6846TIP3   OH241952   4.373   6.341   1.832 -0.5072  0.3888  0.4505
 6846TIP3    H141953   4.454   6.307   1.794  0.6857  4.9159 -1.6759
 6846TIP3    H241954   4.315   6.357   1.757 -1.7331  1.1245  1.5084
 6847TIP3   OH241955   6.627   3.566   2.252 -0.1489  0.7339 -0.0360
 6847TIP3    H141956   6.667   3.573   2.338 -0.7825  0.7850  0.2566
 6847TIP3    H241957   6.548   3.619   2.257 -0.2898  0.5897 -0.5949
 6848TIP3   OH241958   6.550   6.168  13.485  0.0233 -0.2349 -0.3438
 6848TIP3    H141959   6.641   6.163  13.456 -0.0231 -0.6122 -0.4368
 6848TIP3    H241960   6.507   6.224  13.421  0.3907  0.7220  0.2309
 6849TIP3   OH241961   5.125   1.751  14.712  0.2188  0.9380 -0.2340
 6849TIP3    H141962   5.181   1.674  14.725  0.3182  1.1746  0.7507
 6849TIP3    H241963   5.040   1.714  14.686 -0.5786  0.2900  2.9091
 6850TIP3   OH241964   6.347   6.240   4.751 -0.3527  0.7693 -0.9914
 6850TIP3    H141965   6.293   6.161   4.757  0.8684  0.0413  1.7156
 6850TIP3    H241966   6.395   6.229   4.669  0.7940 -2.0718 -0.0536
 6851TIP3   OH241967   4.688   5.857  10.906  0.3031 -0.4032  0.2286
 6851TIP3    H141968   4.714   5.894  10.990 -0.5594 -1.4029  0.9746
 6851TIP3    H241969   4.627   5.786  10.930  0.2022 -0.8291 -1.2274
 6852TIP3   OH241970   1.331   5.121   0.400  0.1516  0.8498 -0.0965
 6852TIP3    H141971   1.350   5.033   0.368 -0.8130 -0.0823  1.7702
 6852TIP3    H241972   1.270   5.157   0.334 -0.5222 -0.4033 -0.1859
 6853TIP3   OH241973   1.707   2.897  14.652 -0.2914 -0.1198  0.4665
 6853TIP3    H141974   1.693   2.929  14.741  0.3602  1.6135 -0.0184
 6853TIP3    H241975   1.631   2.842  14.633 -2.1632  2.2033  0.9055
 6854TIP3   OH241976   6.751   1.115  13.548 -0.0491  0.7285 -0.5858
 6854TIP3    H141977   6.671   1.065  13.567  0.9519 -1.5238 -1.8894
 6854TIP3    H241978   6.768   1.098  13.456  1.2232  2.2777 -0.6683
 6855TIP3   OH241979   5.472   1.136  12.994 -0.0531  0.6075 -0.0047
 6855TIP3    H141980   5.405   1.069  12.985 -0.2738  0.8574 -0.2381
 6855TIP3    H241981   5.521   1.132  12.912  1.0913 -0.5022  0.6865
 6856TIP3   OH241982   0.225   6.534   0.158 -0.3965 -0.6703  0.4542
 6856TIP3    H141983   0.210   6.459   0.100  0.2557 -1.4927  1.3277
 6856TIP3    H241984   0.270   6.598   0.102 -2.6460 -0.0991 -0.8396
 6857TIP3   OH241985   4.993   4.825   1.629  0.0309  0.6875  0.1573
 6857TIP3    H141986   5.051   4.856   1.699  0.3189  1.1471 -0.2823
 6857TIP3    H241987   4.964   4.739   1.659  2.3667 -0.3922 -0.4190
 6858TIP3   OH241988   5.613   5.007  11.897  0.2823 -0.7082 -0.3154
 6858TIP3    H141989   5.650   4.991  11.984 -1.3891 -0.1501  0.5416
 6858TIP3    H241990   5.611   4.920  11.856 -1.4505 -1.4810  1.2790
 6859TIP3   OH241991   2.966   1.613   4.459 -0.5007  0.2117 -0.1521
 6859TIP3    H141992   2.909   1.589   4.532 -1.6529  0.3426 -0.9791
 6859TIP3    H241993   3.016   1.533   4.441  0.0198  0.2657  0.9504
 6860TIP3   OH241994   4.770   6.650  13.823 -0.1312 -0.2229  0.5993
 6860TIP3    H141995   4.787   6.674  13.732 -1.7253  0.0759  0.3603
 6860TIP3    H241996   4.768   6.734  13.869 -5.1913  0.3537 -0.1502
 6861TIP3   OH241997   5.444   2.229  12.672 -0.1819 -0.2148  0.0793
 6861TIP3    H141998   5.378   2.160  12.666  0.7373 -0.9919 -1.8493
 6861TIP3    H241999   5.431   2.267  12.759 -1.7998 -1.7030  0.5440
 6862TIP3   OH242000   2.394   2.391  16.541 -0.1553 -0.2454  0.0461
 6862TIP3    H142001   2.471   2.348  16.504 -0.6511 -2.2789  1.2212
 6862TIP3    H242002   2.402   2.482  16.514  2.0999 -0.6200 -0.7449
 6863TIP3   OH242003   4.908   4.361  16.440 -0.2069  0.6984  0.4451
 6863TIP3    H142004   4.814   4.381  16.433 -0.3772  0.8446  2.4846
 6863TIP3    H242005   4.949   4.447  16.453  0.6219  0.9870 -3.1982
 6864TIP3   OH242006   6.110   5.582  13.517 -0.6526  0.5922  0.3450
 6864TIP3    H142007   6.076   5.655  13.569 -1.1084  0.1160  0.7308
 6864TIP3    H242008   6.107   5.614  13.427 -2.7376  0.3926  0.2770
 6865TIP3   OH242009   3.920   3.661   4.914  0.3836  0.6486  0.0253
 6865TIP3    H142010   4.007   3.690   4.937 -0.2816  1.0610  2.2223
 6865TIP3    H242011   3.909   3.577   4.960  1.1749 -1.8272 -3.7929
 6866TIP3   OH242012   0.906   2.962  14.352 -0.1814  0.2982  0.2799
 6866TIP3    H142013   0.982   3.018  14.361 -0.3901  0.5904  0.2294
 6866TIP3    H242014   0.901   2.942  14.259 -0.7633  1.1199  0.1288
 6867TIP3   OH242015   3.193   3.263   4.879 -0.3947 -0.2664  0.0485
 6867TIP3    H142016   3.184   3.358   4.888 -1.4226 -0.3544  0.1178
 6867TIP3    H242017   3.287   3.249   4.865 -0.2011  0.7392  0.2255
 6868TIP3   OH242018   3.744   2.896  13.936 -0.2737 -0.6047  0.3273
 6868TIP3    H142019   3.653   2.927  13.929 -0.3215 -1.0872 -2.1487
 6868TIP3    H242020   3.739   2.803  13.918  0.8553 -0.3430 -1.6018
 6869TIP3   OH242021   1.528   3.831   0.859  0.3572 -0.0347 -0.2615
 6869TIP3    H142022   1.582   3.896   0.903  1.8699  0.1304 -2.2338
 6869TIP3    H242023   1.442   3.872   0.850  0.6337  0.7455  0.5770
 6870TIP3   OH242024   6.271   5.766   3.657  0.6428 -0.3665 -0.3617
 6870TIP3    H142025   6.207   5.700   3.627  2.3805 -1.3786 -2.1296
 6870TIP3    H242026   6.261   5.838   3.595  1.2430 -0.5769 -0.7163
 6871TIP3   OH242027   0.130   3.128  12.841  0.1075 -0.2217 -0.4060
 6871TIP3    H142028   0.152   3.210  12.886  0.7262 -0.9134  0.5664
 6871TIP3    H242029   0.035   3.120  12.852 -0.2887  1.2536 -2.0684
 6872TIP3   OH242030   1.243   1.473  15.228 -0.1295  0.4858  0.5923
 6872TIP3    H142031   1.186   1.465  15.305  0.4336  1.1950  1.1006
 6872TIP3    H242032   1.236   1.566  15.204  1.9642  0.9551  1.5935
 6873TIP3   OH242033   5.115   5.486   2.759  0.4725 -0.0030  0.3075
 6873TIP3    H142034   5.101   5.426   2.833  1.0836  2.2518  2.3878
 6873TIP3    H242035   5.051   5.556   2.773  2.3144  1.7864  0.2204
 6874TIP3   OH242036   2.352   3.488  15.264  0.5375 -0.0127  0.5394
 6874TIP3    H142037   2.341   3.420  15.197 -3.8217  3.4225 -2.8434
 6874TIP3    H242038   2.411   3.551  15.224  0.7348  0.4253  1.5107
 6875TIP3   OH242039   6.639   6.491  17.042  0.0606  0.4202  0.0332
 6875TIP3    H142040   6.706   6.447  16.988 -1.7689 -0.9581 -1.2393
 6875TIP3    H242041   6.566   6.430  17.044 -0.9646  1.6165  1.9050
 6876TIP3   OH242042   1.106   1.255  15.404  1.0392  0.2474 -0.0895
 6876TIP3    H142043   1.121   1.229  15.313  0.8269  2.2793 -0.7637
 6876TIP3    H242044   1.105   1.173  15.453  2.2353 -0.8229 -1.7511
 6877TIP3   OH242045   2.162   6.584  12.182  0.5997 -0.0535  0.6875
 6877TIP3    H142046   2.248   6.569  12.144  1.0119 -0.3665  1.7230
 6877TIP3    H242047   2.117   6.500  12.174  0.1796  0.2591 -0.3528
 6878TIP3   OH242048   6.377   3.050  12.683 -0.5339  0.6088 -0.3527
 6878TIP3    H142049   6.373   2.978  12.620 -0.5577  0.5459 -0.2789
 6878TIP3    H242050   6.288   3.057  12.717 -0.6519  1.0135 -0.7403
 6879TIP3   OH242051   6.296   2.208  15.932 -0.0872  0.5566 -0.5672
 6879TIP3    H142052   6.294   2.295  15.894 -1.2483 -0.1675 -2.3221
 6879TIP3    H242053   6.261   2.151  15.863 -0.3686 -1.1396  0.8970
 6880TIP3   OH242054   4.621   2.220   3.702  0.4321 -0.0986  0.2536
 6880TIP3    H142055   4.619   2.185   3.613  0.9331  1.5419 -0.4564
 6880TIP3    H242056   4.678   2.160   3.750 -0.8569 -1.7133 -0.1834
 6881TIP3   OH242057   1.639   3.496   5.697  0.2692  0.4497  0.4863
 6881TIP3    H142058   1.688   3.419   5.667  1.1596  1.7379 -1.6007
 6881TIP3    H242059   1.664   3.506   5.789 -0.9064 -2.4655  1.2483
 6882TIP3   OH242060   3.584   2.551   1.780 -0.1425 -0.2594  0.7945
 6882TIP3    H142061   3.519   2.583   1.717  0.7920 -0.0453 -0.0893
 6882TIP3    H242062   3.661   2.606   1.765  1.3939 -2.6003 -0.4707
 6883TIP3   OH242063   2.174   3.014   2.140 -0.1665  0.4148 -0.0579
 6883TIP3    H142064   2.259   2.985   2.107 -0.4598  1.1268 -1.5369
 6883TIP3    H242065   2.121   2.935   2.142  0.2693  0.1216 -0.0224
 6884TIP3   OH242066   0.840   0.920   0.785  0.3993 -0.1951  0.2442
 6884TIP3    H142067   0.764   0.970   0.815 -0.5725 -1.4174 -0.0965
 6884TIP3    H242068   0.881   0.976   0.719 -0.8969  0.0031 -0.4273
 6885TIP3   OH242069   3.155   4.614   3.327  0.0040  0.6961  0.0013
 6885TIP3    H142070   3.158   4.618   3.423  0.7186 -0.8270  0.0789
 6885TIP3    H242071   3.086   4.550   3.308  2.9423 -2.7681 -0.2507
 6886TIP3   OH242072   6.214   4.297  14.053  0.3446  0.7279 -0.2230
 6886TIP3    H142073   6.232   4.368  14.114 -0.7751  1.5059 -0.7676
 6886TIP3    H242074   6.148   4.332  13.993  1.8926  0.2760 -2.3412
 6887TIP3   OH242075   5.881   2.170  11.084 -0.0297 -0.1729 -0.3964
 6887TIP3    H142076   5.857   2.081  11.058  1.0650 -1.2675  2.0395
 6887TIP3    H242077   5.855   2.176  11.176  0.9381  1.6306 -0.1983
 6888TIP3   OH242078   4.652   5.768  14.787 -0.3743  0.0257 -0.4116
 6888TIP3    H142079   4.715   5.705  14.751  0.7672 -0.0560  1.5641
 6888TIP3    H242080   4.567   5.725  14.777 -0.0848 -0.1828 -2.4690
 6889TIP3   OH242081   1.134   1.120   3.135 -0.1583  0.0087 -0.2414
 6889TIP3    H142082   1.049   1.077   3.132 -0.4754  0.5511  0.7891
 6889TIP3    H242083   1.190   1.060   3.185 -0.0687 -0.1017 -0.4706
 6890TIP3   OH242084   5.548   4.128  11.340  0.2561 -0.2499  0.3047
 6890TIP3    H142085   5.529   4.100  11.429 -1.7018 -0.3829 -0.1215
 6890TIP3    H242086   5.468   4.169  11.309  0.7400 -0.5911 -1.5543
 6891TIP3   OH242087   1.557   5.238  16.363  0.5944  0.2811  0.3515
 6891TIP3    H142088   1.645   5.257  16.397 -0.2133  2.4296  1.4873
 6891TIP3    H242089   1.566   5.244  16.268  1.7483  0.0429  0.4289
 6892TIP3   OH242090   2.109   4.584   4.515 -0.5677  0.5975 -0.5334
 6892TIP3    H142091   2.023   4.550   4.491  0.3303 -1.0101 -1.6557
 6892TIP3    H242092   2.157   4.589   4.433  0.4895  1.2537  0.1048
 6893TIP3   OH242093   2.400   4.501   1.901  0.3062  0.3706 -0.4987
 6893TIP3    H142094   2.315   4.505   1.857  1.8372  1.1476 -3.7571
 6893TIP3    H242095   2.423   4.408   1.901 -0.3419  0.2036  0.0176
 6894TIP3   OH242096   0.602   5.984   5.948 -0.4973  0.7135 -0.1031
 6894TIP3    H142097   0.540   6.055   5.927 -0.4885  0.4937 -0.8896
 6894TIP3    H242098   0.550   5.921   5.997 -0.1840  1.8842  1.8822
 6895TIP3   OH242099   2.648   3.540  17.088 -0.4639 -0.1584 -0.0480
 6895TIP3    H142100   2.632   3.569  17.177  1.2069  0.3911  0.1036
 6895TIP3    H242101   2.599   3.601  17.033 -1.2014 -0.2812  0.4691
 6896TIP3   OH242102   1.965   2.715   2.630  0.3718 -0.2103  0.0462
 6896TIP3    H142103   2.054   2.744   2.609  0.1586 -0.8564 -1.9105
 6896TIP3    H242104   1.968   2.620   2.617 -0.6376 -0.2142 -0.1929
 6897TIP3   OH242105   4.316   1.971   0.055  0.3133  0.5533 -0.0583
 6897TIP3    H142106   4.333   2.026   0.131  1.7893  1.5741 -1.0464
 6897TIP3    H242107   4.264   2.026  -0.003 -0.0096  0.1283 -0.1742
 6898TIP3   OH242108   0.817   1.274   4.356  0.1423  0.0639 -0.6125
 6898TIP3    H142109   0.729   1.313   4.359  1.3670  3.0565  1.6066
 6898TIP3    H242110   0.813   1.203   4.420 -1.4983 -2.2388 -3.0591
 6899TIP3   OH242111   1.260   3.717   0.491 -0.0822 -0.5258  0.2340
 6899TIP3    H142112   1.217   3.802   0.497  1.5554  0.2595  1.3950
 6899TIP3    H242113   1.347   3.731   0.527  0.7014 -2.3885 -0.7901
 6900TIP3   OH242114   0.125   5.096  13.160  0.3716  0.2116 -0.0326
 6900TIP3    H142115   0.045   5.117  13.208 -0.2157 -0.9450 -0.4879
 6900TIP3    H242116   0.157   5.015  13.200  0.5012 -0.1412 -0.8272
 6901TIP3   OH242117   4.803   3.002  13.120  0.3922 -0.0348 -0.1204
 6901TIP3    H142118   4.718   2.958  13.120  0.2338  0.2629 -1.1010
 6901TIP3    H242119   4.854   2.955  13.186 -0.6017 -0.0715  0.6490
 6902TIP3   OH242120   2.213   1.836  10.274 -0.0752 -0.2250 -0.6649
 6902TIP3    H142121   2.184   1.764  10.329  2.0019  0.5224  1.6237
 6902TIP3    H242122   2.134   1.886  10.255 -1.3434 -2.3224 -1.2044
 6903TIP3   OH242123   4.375   3.001   3.082 -0.2920 -0.7065 -0.4027
 6903TIP3    H142124   4.347   3.002   3.174 -0.1283 -1.2092 -0.3462
 6903TIP3    H242125   4.300   2.965   3.034 -0.5929  0.0856 -0.5441
 6904TIP3   OH242126   5.226   2.485   0.188 -0.1721  0.3132 -0.0877
 6904TIP3    H142127   5.319   2.470   0.206  0.5669  2.7176 -1.4644
 6904TIP3    H242128   5.211   2.445   0.103  0.0344  1.3038 -0.5992
 6905TIP3   OH242129   6.493   4.114  16.778 -0.1242  0.5398 -0.4033
 6905TIP3    H142130   6.520   4.072  16.696 -1.7033 -1.5629  0.0724
 6905TIP3    H242131   6.564   4.095  16.839 -0.4038 -0.6892 -0.4455
 6906TIP3   OH242132   5.867   6.516  16.150  0.4862 -0.6491 -0.0481
 6906TIP3    H142133   5.895   6.580  16.216 -0.3549 -0.1684 -0.1316
 6906TIP3    H242134   5.824   6.447  16.201 -1.3167  0.3411 -0.1346
 6907TIP3   OH242135   5.171   4.917   1.842  0.3326  0.0773 -0.4375
 6907TIP3    H142136   5.245   4.885   1.790  0.2529 -0.4347 -0.2411
 6907TIP3    H242137   5.184   5.012   1.846 -0.3547  0.3052 -2.4897
 6908TIP3   OH242138   1.259   1.391   4.358 -0.0692 -0.1727 -0.0666
 6908TIP3    H142139   1.178   1.437   4.381 -0.0864 -0.0732 -0.3198
 6908TIP3    H242140   1.230   1.318   4.304  0.1007  0.5341 -1.1381
 6909TIP3   OH242141   0.941   6.369   1.128 -0.0732 -0.1549 -0.7329
 6909TIP3    H142142   0.921   6.288   1.081  2.6883 -0.5092 -1.4656
 6909TIP3    H242143   0.900   6.357   1.214 -2.3187 -0.9606 -1.8281
 6910TIP3   OH242144   3.600   6.297   0.914  0.4767 -0.3021 -0.7192
 6910TIP3    H142145   3.543   6.360   0.957  0.4814 -0.2804 -0.7448
 6910TIP3    H242146   3.675   6.350   0.885 -0.5057  0.1120 -2.6896
 6911TIP3   OH242147   0.313   3.240  15.628 -0.0570  0.0682  0.3804
 6911TIP3    H142148   0.404   3.229  15.602 -0.3401 -1.2698 -0.1459
 6911TIP3    H242149   0.272   3.289  15.557 -0.0670 -0.6377 -0.1132
 6912TIP3   OH242150   4.066   1.600  14.324  0.1014  0.0057  0.5745
 6912TIP3    H142151   4.030   1.576  14.239 -0.7973 -1.1086  1.2240
 6912TIP3    H242152   4.128   1.530  14.345 -1.5247 -1.1517  1.8861
 6913TIP3   OH242153   3.427   2.412   6.332  0.1939  0.0996  0.1136
 6913TIP3    H142154   3.408   2.391   6.423 -2.3745  0.2046 -0.3302
 6913TIP3    H242155   3.409   2.331   6.284  0.4943  0.3405 -0.4233
 6914TIP3   OH242156   3.275   5.220   0.102 -0.5559 -0.1626 -0.7541
 6914TIP3    H142157   3.220   5.159   0.153 -0.9739 -0.8635 -1.9989
 6914TIP3    H242158   3.239   5.307   0.122 -1.7385 -0.5616 -1.0594
 6915TIP3   OH242159   0.705   3.698  12.943 -0.0513 -0.7250 -0.0488
 6915TIP3    H142160   0.780   3.699  12.883 -0.0166 -2.9377 -0.1425
 6915TIP3    H242161   0.676   3.789  12.947  1.5091 -0.1092 -1.4430
 6916TIP3   OH242162   2.997   1.649  13.840  0.0335 -0.1850 -0.5424
 6916TIP3    H142163   3.018   1.660  13.932  0.1061  0.7277 -0.6557
 6916TIP3    H242164   3.025   1.731  13.799 -0.8449 -0.1988 -1.2148
 6917TIP3   OH242165   1.853   2.089  12.037  0.0727  0.3578  0.2268
 6917TIP3    H142166   1.935   2.047  12.064  0.0446  0.6351  0.7603
 6917TIP3    H242167   1.814   2.120  12.119  0.2389  1.6718 -0.1786
 6918TIP3   OH242168   0.494   3.770   3.225 -0.3753  0.1840  0.5075
 6918TIP3    H142169   0.488   3.824   3.304 -1.5590  0.3558  0.3144
 6918TIP3    H242170   0.418   3.796   3.172 -0.4166 -0.9758 -0.0261
 6919TIP3   OH242171   4.238   6.233   4.545 -0.2398  0.4399  0.1484
 6919TIP3    H142172   4.200   6.200   4.463  0.8869 -1.1529  0.2198
 6919TIP3    H242173   4.290   6.308   4.519 -1.0002  0.8043 -0.3744
 6920TIP3   OH242174   1.701   0.423   3.260  0.1980  0.4287  0.6591
 6920TIP3    H142175   1.754   0.402   3.183 -1.4987 -1.2685 -0.1412
 6920TIP3    H242176   1.649   0.499   3.233 -0.1186  0.0701  0.2327
 6921TIP3   OH242177   1.046   6.087  12.703 -0.3739  0.1142 -0.6392
 6921TIP3    H142178   0.987   6.048  12.767 -1.7891  0.6223 -1.5906
 6921TIP3    H242179   1.090   6.158  12.750 -1.1584  0.2746 -0.1331
 6922TIP3   OH242180   3.459   3.345   2.959  0.6341  0.3690 -0.2397
 6922TIP3    H142181   3.542   3.392   2.968  0.8501 -0.3436  2.1814
 6922TIP3    H242182   3.481   3.254   2.981 -0.5960 -0.0348 -0.6057
 6923TIP3   OH242183   1.236   5.485   5.058  0.0417 -0.0457 -0.0234
 6923TIP3    H142184   1.293   5.408   5.057  0.8256  0.5173  0.7901
 6923TIP3    H242185   1.209   5.494   5.149 -1.0525 -0.0642 -0.3225
 6924TIP3   OH242186   3.950   6.568   1.716 -0.2953 -0.2137  0.2340
 6924TIP3    H142187   3.897   6.503   1.763  2.1252 -2.1122  0.5657
 6924TIP3    H242188   3.959   6.641   1.777 -0.8754 -0.7081  0.9299
 6925TIP3   OH242189   0.417   3.359  17.194 -0.0816 -0.8622  0.0559
 6925TIP3    H142190   0.355   3.291  17.168  1.0527 -1.8249 -0.1850
 6925TIP3    H242191   0.497   3.312  17.217  1.4871  0.4386 -2.2377
 6926TIP3   OH242192   2.698   2.118   4.205  0.2319  0.4107  0.0278
 6926TIP3    H142193   2.613   2.110   4.248 -0.2938 -0.0399 -1.0376
 6926TIP3    H242194   2.695   2.202   4.161  0.5395  0.6133  0.3868
 6927TIP3   OH242195   3.995   4.713  10.844  0.1107  0.6854 -0.3774
 6927TIP3    H142196   4.064   4.704  10.778  0.1760 -0.5439 -0.1729
 6927TIP3    H242197   3.924   4.656  10.812  0.5468 -0.7563  1.1008
 6928TIP3   OH242198   0.638   2.025  14.916  0.5885  0.7690 -0.2215
 6928TIP3    H142199   0.632   2.120  14.928  0.5889  0.7961 -0.4232
 6928TIP3    H242200   0.720   2.013  14.867 -0.0351  0.7707 -1.2920
 6929TIP3   OH242201   0.698   1.339   4.750  0.2694 -0.0795  0.5185
 6929TIP3    H142202   0.707   1.330   4.845  1.0220 -0.3409  0.4308
 6929TIP3    H242203   0.784   1.369   4.720  0.2823 -0.7448 -0.1655
 6930TIP3   OH242204   6.656   4.056   2.358 -0.2434  0.0923  0.2837
 6930TIP3    H142205   6.638   4.128   2.297 -1.1228 -0.7003 -0.4301
 6930TIP3    H242206   6.674   3.981   2.301  2.2272  0.0491  0.9979
 6931TIP3   OH242207   6.008   3.239  15.612  0.1845  0.1685  0.1381
 6931TIP3    H142208   5.960   3.172  15.565  1.8911 -0.6101 -0.5729
 6931TIP3    H242209   5.946   3.273  15.677 -1.1581 -1.0540 -0.4772
 6932TIP3   OH242210   3.633   0.233  11.272  0.3477 -0.4862  0.2242
 6932TIP3    H142211   3.666   0.145  11.250  0.2214 -1.4669  3.4746
 6932TIP3    H242212   3.569   0.218  11.341 -0.8242  2.0999 -0.1976
 6933TIP3   OH242213   1.152   0.514  12.139  0.0943 -1.0063  1.0731
 6933TIP3    H142214   1.233   0.463  12.131 -0.4965 -2.2795  2.5146
 6933TIP3    H242215   1.155   0.551  12.227 -1.0050 -1.3318  1.2751
 6934TIP3   OH242216   1.789   2.434  15.221 -0.1932  0.1833 -0.0651
 6934TIP3    H142217   1.790   2.398  15.132  0.1222 -0.4455  0.1941
 6934TIP3    H242218   1.734   2.512  15.214 -0.9695 -0.3927 -0.6115
 6935TIP3   OH242219   0.966   5.163   4.680  0.0317 -0.0442  0.1254
 6935TIP3    H142220   1.006   5.247   4.703  1.7286 -0.3810 -1.4062
 6935TIP3    H242221   0.877   5.185   4.653  0.1617  1.1304  0.5927
 6936TIP3   OH242222   5.857   0.099   4.014  0.3112  0.2214 -0.1649
 6936TIP3    H142223   5.823   0.126   4.100  0.8825  0.0274  0.1277
 6936TIP3    H242224   5.910   0.021   4.033  0.4278  0.1687 -0.6972
 6937TIP3   OH242225   3.705   4.454   6.558 -0.0302  0.2214  0.3313
 6937TIP3    H142226   3.776   4.516   6.579 -0.3626  1.3259 -1.5632
 6937TIP3    H242227   3.742   4.368   6.577  1.9586  0.7483 -0.8424
 6938TIP3   OH242228   2.803   1.414   5.145 -0.0227  0.1409 -0.1784
 6938TIP3    H142229   2.780   1.471   5.218 -0.3725 -1.7022  1.2089
 6938TIP3    H242230   2.720   1.392   5.104 -0.3583 -2.2496  1.5754
 6939TIP3   OH242231   4.180   0.921  11.949 -0.0953  0.2191 -0.4259
 6939TIP3    H142232   4.156   0.833  11.921 -1.1353  0.4845 -0.4291
 6939TIP3    H242233   4.105   0.975  11.923 -0.8091  0.6063  2.1336
 6940TIP3   OH242234   4.391   2.886   5.622 -0.2355  0.6145 -0.1990
 6940TIP3    H142235   4.448   2.956   5.591  0.4608 -0.6944 -2.0522
 6940TIP3    H242236   4.310   2.897   5.573  0.6719 -1.1306 -2.2554
 6941TIP3   OH242237   6.699   6.417  10.882 -0.3959 -0.1953  0.2629
 6941TIP3    H142238   6.607   6.442  10.879 -0.4519 -0.3921  0.3839
 6941TIP3    H242239   6.731   6.435  10.793 -0.4385  0.2973  0.3428
 6942TIP3   OH242240   1.368   4.041  12.947  0.3773  0.4207  0.1879
 6942TIP3    H142241   1.295   4.100  12.927 -1.4087 -1.8533 -0.4745
 6942TIP3    H242242   1.389   4.060  13.039 -0.3025  1.8802  0.0778
 6943TIP3   OH242243   3.559   2.813   6.465  0.5329  0.6210  0.6229
 6943TIP3    H142244   3.600   2.766   6.392  2.4488  2.3077  0.5130
 6943TIP3    H242245   3.597   2.774   6.543  0.7716  0.7920  0.5941
 6944TIP3   OH242246   5.170   1.705  16.348  0.0342  0.3072  0.1347
 6944TIP3    H142247   5.184   1.734  16.258 -2.6379 -0.2605 -0.5343
 6944TIP3    H242248   5.191   1.612  16.347 -0.5889  0.1671 -0.0594
 6945TIP3   OH242249   1.691   2.019  12.801  0.2178 -0.1240 -0.8241
 6945TIP3    H142250   1.657   1.945  12.750  0.2929 -0.5237 -0.3072
 6945TIP3    H242251   1.618   2.047  12.855 -0.0109  0.6259 -1.5043
 6946TIP3   OH242252   4.640   5.604   5.552  0.1248  0.1365 -0.1256
 6946TIP3    H142253   4.659   5.544   5.624 -1.9692 -0.1207  0.2643
 6946TIP3    H242254   4.594   5.677   5.593  1.7459  1.5995 -0.7530
 6947TIP3   OH242255   5.002   6.761  16.093 -0.0759  0.5528 -0.4693
 6947TIP3    H142256   4.930   6.824  16.101 -0.3831  0.4820 -2.1634
 6947TIP3    H242257   4.961   6.684  16.052  0.4189 -0.5366  1.0012
 6948TIP3   OH242258   1.454   5.171  10.836  0.4907 -0.0302 -0.5232
 6948TIP3    H142259   1.546   5.188  10.855  0.4445  0.3622 -0.6371
 6948TIP3    H242260   1.417   5.257  10.818 -0.6561  0.2817  2.7201
 6949TIP3   OH242261   6.364   6.390   5.694 -0.2039 -0.2703 -0.3092
 6949TIP3    H142262   6.386   6.462   5.754  0.0042 -0.7484  0.1977
 6949TIP3    H242263   6.270   6.377   5.705 -0.3802  0.4247 -0.9644
 6950TIP3   OH242264   1.210   1.215  11.397 -0.3608  0.4529  0.4019
 6950TIP3    H142265   1.185   1.177  11.312  0.1246  1.0900 -0.0338
 6950TIP3    H242266   1.303   1.236  11.388 -0.4252  0.9966  0.9160
 6951TIP3   OH242267   4.307   0.849  16.258 -0.0515 -0.1585  0.0040
 6951TIP3    H142268   4.226   0.891  16.286  0.3798 -0.7952  2.4590
 6951TIP3    H242269   4.278   0.773  16.207 -0.9032  0.9507 -1.2127
 6952TIP3   OH242270   4.264   1.982  14.199 -0.2076  0.6235 -0.4719
 6952TIP3    H142271   4.344   1.975  14.251 -1.7896  0.8716  2.2141
 6952TIP3    H242272   4.248   2.077  14.194 -0.8778  0.5419 -0.0234
 6953TIP3   OH242273   1.175   4.890   3.178 -0.0304  0.2871  0.0601
 6953TIP3    H142274   1.172   4.978   3.141  1.2507  0.0639 -0.6410
 6953TIP3    H242275   1.255   4.852   3.141 -1.2197 -1.6146 -0.6640
 6954TIP3   OH242276   6.487   2.447   3.138 -0.4666  0.3591  0.0594
 6954TIP3    H142277   6.534   2.531   3.137  1.0658 -0.4392  0.7429
 6954TIP3    H242278   6.407   2.465   3.187 -0.0057  1.3636  0.4763
 6955TIP3   OH242279   4.772   6.755   1.861 -0.5315  0.4634  0.5312
 6955TIP3    H142280   4.835   6.713   1.802 -1.0838 -0.0286  0.2816
 6955TIP3    H242281   4.693   6.701   1.854 -0.6961  0.5579  1.5109
 6956TIP3   OH242282   1.705   6.643  12.586 -0.0592 -0.6212 -0.2320
 6956TIP3    H142283   1.788   6.643  12.539 -0.0766 -2.5819 -0.3730
 6956TIP3    H242284   1.716   6.577  12.655 -0.5936  1.0372  1.5369
 6957TIP3   OH242285   5.175   3.689   2.727 -0.3993  0.8696  0.0176
 6957TIP3    H142286   5.217   3.764   2.770  0.1237  0.0440  0.9987
 6957TIP3    H242287   5.081   3.706   2.736 -0.2882  1.4449  0.1674
 6958TIP3   OH242288   2.903   0.290   2.728  0.4399  0.2655 -0.2239
 6958TIP3    H142289   2.921   0.345   2.804 -0.8416  0.4477 -0.0319
 6958TIP3    H242290   2.971   0.313   2.665 -0.4546  2.6149 -0.4332
 6959TIP3   OH242291   3.836   4.854  15.994 -1.0661  0.3764 -0.3006
 6959TIP3    H142292   3.788   4.850  16.077  0.1832 -0.2059  0.4346
 6959TIP3    H242293   3.774   4.821  15.929 -1.3256 -1.4507  0.7831
 6960TIP3   OH242294   2.407   6.566  12.074  0.1780 -0.3463  0.3035
 6960TIP3    H142295   2.452   6.489  12.110  0.4534  0.5838  2.0567
 6960TIP3    H242296   2.476   6.616  12.032  0.2779 -0.2705  0.5600
 6961TIP3   OH242297   6.282   1.680   4.416  0.0662  0.0326 -0.7447
 6961TIP3    H142298   6.376   1.696   4.431  0.1279  0.0448 -1.1321
 6961TIP3    H242299   6.252   1.636   4.496  0.4249 -0.0617 -0.6604
 6962TIP3   OH242300   4.826   0.450  15.706 -0.1824 -1.1088  0.2297
 6962TIP3    H142301   4.795   0.502  15.780 -1.2028 -2.8377  1.0884
 6962TIP3    H242302   4.921   0.463  15.706 -0.4630  1.5918 -0.3171
 6963TIP3   OH242303   6.074   4.841  12.652 -0.5679  0.3296 -0.1336
 6963TIP3    H142304   6.123   4.857  12.732 -0.7662  0.0207  0.0483
 6963TIP3    H242305   6.024   4.762  12.669 -0.1828 -0.0578 -0.7630
 6964TIP3   OH242306   2.251   5.673   4.902 -0.2812  0.4824  0.1014
 6964TIP3    H142307   2.196   5.597   4.922 -0.4857  0.3558 -0.8579
 6964TIP3    H242308   2.201   5.722   4.836  1.2070 -0.2468 -1.6788
 6965TIP3   OH242309   5.212   3.784   1.033 -0.2001 -0.5276  1.1365
 6965TIP3    H142310   5.235   3.692   1.047  1.8071 -0.3664 -0.6143
 6965TIP3    H242311   5.229   3.826   1.117  1.6349 -1.2950  1.2036
 6966TIP3   OH242312   0.386   0.790   3.268 -0.3334 -0.4461  0.4042
 6966TIP3    H142313   0.328   0.801   3.343  0.1059  0.4806  0.6330
 6966TIP3    H242314   0.347   0.720   3.217 -0.8748 -0.7986  1.2795
 6967TIP3   OH242315   1.585   2.313  15.931 -0.0070  0.1256  0.4375
 6967TIP3    H142316   1.629   2.397  15.938 -2.3308  1.3866  0.8770
 6967TIP3    H242317   1.514   2.317  15.995  0.2187 -2.4590  0.9681
 6968TIP3   OH242318   4.579   2.409  11.505  0.3698  0.0193  0.4306
 6968TIP3    H142319   4.532   2.367  11.433  1.9389  1.0596 -1.2945
 6968TIP3    H242320   4.649   2.347  11.527  2.2025  1.1936 -1.5890
 6969TIP3   OH242321   6.642   2.330  11.012 -0.0861  0.0603  0.1023
 6969TIP3    H142322   6.713   2.290  10.961 -0.7788  0.2327 -1.0264
 6969TIP3    H242323   6.576   2.354  10.947 -1.6777 -1.0728  1.2169
 6970TIP3   OH242324   4.467   6.206   4.193  0.1843 -0.2503 -0.8802
 6970TIP3    H142325   4.501   6.176   4.277  1.3367 -0.4229 -1.3937
 6970TIP3    H242326   4.408   6.136   4.164  0.7572 -0.7676 -0.8026
 6971TIP3   OH242327   4.249   6.174  14.687  0.3970 -0.6099 -0.7174
 6971TIP3    H142328   4.201   6.103  14.644 -0.2869  0.2747 -1.4584
 6971TIP3    H242329   4.275   6.232  14.616 -0.5913  0.7781 -0.0039
 6972TIP3   OH242330   4.810   1.648  12.658  0.2479 -0.3924  0.5812
 6972TIP3    H142331   4.734   1.614  12.705  0.1043 -1.5853 -0.4481
 6972TIP3    H242332   4.879   1.585  12.676  0.3425 -0.5603 -0.3330
 6973TIP3   OH242333   5.688   1.758   6.424 -0.5267 -0.1745  0.2067
 6973TIP3    H142334   5.623   1.795   6.364 -0.8336 -0.7390  0.1854
 6973TIP3    H242335   5.767   1.808   6.406 -0.9349  0.4872  0.1951
 6974TIP3   OH242336   3.006   0.433   4.881  0.0490  0.3769  0.6118
 6974TIP3    H142337   2.984   0.508   4.827  0.0057 -0.2729 -0.3022
 6974TIP3    H242338   2.925   0.382   4.885  0.2646  0.0323  0.6375
 6975TIP3   OH242339   1.719   3.969   3.269  0.2589 -0.3653  0.4585
 6975TIP3    H142340   1.696   3.878   3.254 -2.4198  0.1324  1.1109
 6975TIP3    H242341   1.806   3.966   3.310 -0.2735 -2.6901  1.5529
 6976TIP3   OH242342   5.532   5.934  16.578 -0.8262 -0.7369 -0.6568
 6976TIP3    H142343   5.563   5.864  16.520  0.0453 -2.9451  2.2317
 6976TIP3    H242344   5.442   5.909  16.600 -0.1365 -1.7435  1.3047
 6977TIP3   OH242345   2.572   6.026   4.116  0.2491  0.3020 -0.2270
 6977TIP3    H142346   2.512   6.027   4.191  1.0197 -0.2843  0.4139
 6977TIP3    H242347   2.642   6.086   4.141  0.7658 -0.2831 -0.2508
 6978TIP3   OH242348   1.346   0.728  12.372 -0.2390  0.5044  0.0008
 6978TIP3    H142349   1.414   0.758  12.432 -2.0449 -0.0887  2.5013
 6978TIP3    H242350   1.317   0.645  12.408 -1.1543 -0.0929 -1.9706
 6979TIP3   OH242351   3.063   2.809  13.564  0.4695  0.2904 -0.3256
 6979TIP3    H142352   2.988   2.812  13.623  1.3342  1.0926  0.7751
 6979TIP3    H242353   3.044   2.875  13.497 -0.0517  0.0979 -0.3727
 6980TIP3   OH242354   4.370   6.406  15.491  0.1678 -0.2027 -0.1090
 6980TIP3    H142355   4.342   6.348  15.420 -0.7260 -0.9187  0.7890
 6980TIP3    H242356   4.455   6.440  15.463 -0.4927  0.1469 -1.8629
 6981TIP3   OH242357   2.350   4.421  14.420  0.2448 -0.2379  0.0568
 6981TIP3    H142358   2.429   4.462  14.455 -1.4548  1.4374  2.3038
 6981TIP3    H242359   2.335   4.464  14.336  1.1245  0.2228  0.1280
 6982TIP3   OH242360   2.754   3.019   3.859 -0.4652  0.9844 -0.3490
 6982TIP3    H142361   2.676   3.008   3.914  0.5397  0.0137  0.9480
 6982TIP3    H242362   2.720   3.049   3.775 -2.5155 -2.0025 -0.7388
 6983TIP3   OH242363   0.091   5.476  11.547 -0.3117  0.0781 -0.2187
 6983TIP3    H142364   0.121   5.545  11.607  0.1200 -0.0569 -0.2758
 6983TIP3    H242365   0.061   5.406  11.605 -0.7718  0.3186 -0.1601
 6984TIP3   OH242366   0.316   1.379  12.902  0.2498 -0.2427  0.1039
 6984TIP3    H142367   0.252   1.441  12.868  0.6392 -0.0424 -0.2720
 6984TIP3    H242368   0.314   1.306  12.841 -1.0386 -1.1401  1.1706
 6985TIP3   OH242369   4.335   1.242  13.271 -0.1321 -0.2701 -0.1799
 6985TIP3    H142370   4.260   1.302  13.271 -0.1138 -0.2157  1.0671
 6985TIP3    H242371   4.353   1.226  13.179  0.4650  2.4283 -0.6369
 6986TIP3   OH242372   5.658   3.887  12.450  0.0839 -0.3312 -0.5139
 6986TIP3    H142373   5.567   3.895  12.478  0.6809 -1.2641  1.8677
 6986TIP3    H242374   5.677   3.793  12.455  1.2128 -0.1438 -0.8953
 6987TIP3   OH242375   4.149   5.449  11.958  0.0592  0.0686  0.0395
 6987TIP3    H142376   4.177   5.443  11.866 -0.4560  0.7867 -0.1762
 6987TIP3    H242377   4.212   5.508  11.998 -1.8024  2.8087 -0.7727
 6988TIP3   OH242378   1.796   1.857  14.564 -0.4160 -0.0643  0.0937
 6988TIP3    H142379   1.766   1.885  14.478 -2.1697 -2.4795 -0.1782
 6988TIP3    H242380   1.728   1.796  14.595  1.0724 -0.7073  2.3741
 6989TIP3   OH242381   6.505   2.001   4.668  0.2020  0.0407 -0.0372
 6989TIP3    H142382   6.420   1.979   4.705  0.3517 -0.7896 -0.1672
 6989TIP3    H242383   6.485   2.043   4.584 -0.0752 -0.5202 -0.2555
 6990TIP3   OH242384   2.830   4.290   3.622  0.0462  0.3297  0.6120
 6990TIP3    H142385   2.851   4.291   3.715  2.5019 -1.1330  0.1836
 6990TIP3    H242386   2.744   4.250   3.617  0.3118 -0.5209  2.1999
 6991TIP3   OH242387   2.380   2.887  12.511 -0.0690  0.1950  0.1346
 6991TIP3    H142388   2.399   2.800  12.545 -0.2116 -0.5703 -1.6114
 6991TIP3    H242389   2.466   2.922  12.486 -0.2751 -1.5811 -3.8670
 6992TIP3   OH242390   0.965   6.040  11.497 -0.1451 -0.1285 -0.0524
 6992TIP3    H142391   0.978   5.966  11.439 -0.2671  1.6979 -2.5841
 6992TIP3    H242392   1.014   6.112  11.457 -0.7587  1.4064  1.7678
 6993TIP3   OH242393   2.232   0.782  12.996 -0.1838 -0.2864 -0.4316
 6993TIP3    H142394   2.280   0.699  13.004 -0.6651 -0.4395  1.2057
 6993TIP3    H242395   2.271   0.838  13.063  2.1321  1.8964 -3.3508
 6994TIP3   OH242396   5.945   4.119   1.902  0.3654 -0.7175 -0.0106
 6994TIP3    H142397   6.000   4.064   1.958  0.9470  0.4179  0.5572
 6994TIP3    H242398   5.915   4.060   1.832  1.3075 -1.6448  0.3529
 6995TIP3   OH242399   4.496   3.671   6.082 -0.5980  0.1580  0.1551
 6995TIP3    H142400   4.533   3.647   6.167 -1.2639  0.3839  0.5164
 6995TIP3    H242401   4.532   3.758   6.063 -0.6494  0.2144  0.3221
 6996TIP3   OH242402   2.320   1.897  11.682  0.1253  0.4073 -0.7772
 6996TIP3    H142403   2.231   1.902  11.719  0.2246  0.9346 -0.5995
 6996TIP3    H242404   2.365   1.833  11.737 -0.8424 -1.7244 -2.3570
 6997TIP3   OH242405   4.278   2.383  12.483 -0.3245  0.1558 -0.2248
 6997TIP3    H142406   4.187   2.356  12.473 -0.1964 -1.2327  1.7949
 6997TIP3    H242407   4.327   2.301  12.490  0.9870  0.8835 -0.5340
 6998TIP3   OH242408   5.717   3.670  16.960 -0.1753 -0.3338 -0.0425
 6998TIP3    H142409   5.754   3.587  16.929  0.0112  0.5054 -2.2341
 6998TIP3    H242410   5.712   3.660  17.055  0.8471 -2.4405 -0.1542
 6999TIP3   OH242411   6.470   3.458   1.480  0.0162 -0.4363  0.1509
 6999TIP3    H142412   6.549   3.507   1.457  0.5020 -1.6925 -0.9537
 6999TIP3    H242413   6.438   3.423   1.397 -1.6809 -0.0216  0.5937
 7000TIP3   OH242414   6.446   5.918  10.994 -0.2534 -0.2334 -0.0522
 7000TIP3    H142415   6.461   5.943  11.085 -0.5881 -0.2403  0.0032
 7000TIP3    H242416   6.395   5.990  10.957  0.8775  0.3415 -0.5581
 7001TIP3   OH242417   4.870   2.807  14.530 -0.7857  0.1563 -0.0994
 7001TIP3    H142418   4.916   2.886  14.504  0.1356 -0.4056 -0.2296
 7001TIP3    H242419   4.780   2.835  14.546 -0.5610  1.1467 -0.5230
 7002TIP3   OH242420   5.346   3.461   2.785  0.1429  0.0589 -0.6327
 7002TIP3    H142421   5.269   3.407   2.802  0.1263 -0.1319 -1.2819
 7002TIP3    H242422   5.312   3.550   2.783 -0.1127 -0.0469 -1.1804
 7003TIP3   OH242423   3.909   2.921  16.414  0.3165 -0.6823 -0.0245
 7003TIP3    H142424   3.922   2.835  16.453 -0.0098 -0.1867  1.2453
 7003TIP3    H242425   3.854   2.905  16.338  1.4014 -1.7515 -0.6228
 7004TIP3   OH242426   4.409   6.230  13.880 -0.9239  0.6360 -0.8094
 7004TIP3    H142427   4.449   6.317  13.884  0.8750 -0.1099 -1.5419
 7004TIP3    H242428   4.434   6.188  13.962 -2.2712  0.9649 -0.1970
 7005TIP3   OH242429   1.850   6.102  14.520  0.5018  0.4301 -0.1210
 7005TIP3    H142430   1.888   6.016  14.538  0.3488  0.5129  0.6378
 7005TIP3    H242431   1.825   6.099  14.428 -0.5152 -0.7409  0.1666
 7006TIP3   OH242432   3.413   6.097   2.147  0.6907 -0.1222  0.2885
 7006TIP3    H142433   3.411   6.069   2.238  2.8590 -2.9313 -0.3773
 7006TIP3    H242434   3.339   6.052   2.106 -0.4678  1.3783  0.6411
 7007TIP3   OH242435   1.650   2.804  16.870 -0.0917 -0.0693 -0.2880
 7007TIP3    H142436   1.661   2.712  16.893 -2.8091  0.2241  3.0608
 7007TIP3    H242437   1.718   2.850  16.919 -0.8661 -0.0865  0.8387
 7008TIP3   OH242438   1.668   5.738  13.711 -0.7631  0.7340  0.1749
 7008TIP3    H142439   1.751   5.735  13.663 -1.3002 -0.4738 -0.7281
 7008TIP3    H242440   1.653   5.831  13.727  0.2925  1.0398 -0.4776
 7009TIP3   OH242441   1.567   3.998   3.565 -0.3610  0.3230  0.1400
 7009TIP3    H142442   1.574   3.967   3.475  0.4731  0.3399  0.1934
 7009TIP3    H242443   1.638   3.953   3.611 -0.1812  1.0436  0.5751
 7010TIP3   OH242444   4.277   3.419   5.822  0.3355 -0.1072 -0.4692
 7010TIP3    H142445   4.234   3.354   5.766  1.8281 -0.7362 -0.9326
 7010TIP3    H242446   4.214   3.434   5.893 -0.2200 -1.7667 -0.5549
 7011TIP3   OH242447   3.732   1.253  13.485 -0.1984 -0.2382  0.7378
 7011TIP3    H142448   3.712   1.177  13.538  0.3317 -1.1371 -0.2997
 7011TIP3    H242449   3.828   1.256  13.482 -0.2187  0.0638  0.2205
 7012TIP3   OH242450   1.477   0.197  14.132  0.4187  0.7063 -0.3176
 7012TIP3    H142451   1.441   0.283  14.152  2.3299  1.2986  0.8151
 7012TIP3    H242452   1.505   0.162  14.217  1.4006 -0.1963 -0.9822
 7013TIP3   OH242453   4.146   3.925   1.164  0.2295 -0.5870 -0.4664
 7013TIP3    H142454   4.065   3.946   1.211  1.7052  0.5607  1.6726
 7013TIP3    H242455   4.158   3.998   1.104 -0.3967 -0.8642 -0.9450
 7014TIP3   OH242456   0.191   1.175  16.490  0.6488  0.2931  0.0521
 7014TIP3    H142457   0.163   1.229  16.563 -1.4743 -0.4466 -0.1676
 7014TIP3    H242458   0.263   1.225  16.450  0.0463  2.0086  0.9964
 7015TIP3   OH242459   2.057   6.673  11.682  0.1737 -0.2308  0.1989
 7015TIP3    H142460   2.090   6.655  11.594  2.2056  0.0378  0.8488
 7015TIP3    H242461   1.973   6.716  11.668  1.2024  1.3182 -1.6842
 7016TIP3   OH242462   1.774   2.423  16.613  0.1078 -0.1358 -0.4840
 7016TIP3    H142463   1.817   2.508  16.602 -2.1030  1.3602  1.5084
 7016TIP3    H242464   1.817   2.383  16.688 -0.7155  0.5705  0.3931
 7017TIP3   OH242465   4.500   0.882   1.414 -0.2708  0.1264  0.4905
 7017TIP3    H142466   4.503   0.880   1.319 -1.0354 -1.2934  0.4651
 7017TIP3    H242467   4.563   0.950   1.439 -0.9783  1.4111 -1.0458
 7018TIP3   OH242468   2.673   3.477   3.658 -0.3374 -0.8634 -0.3402
 7018TIP3    H142469   2.719   3.456   3.577 -1.6777  1.0556 -1.6810
 7018TIP3    H242470   2.586   3.506   3.630 -0.7953 -0.0104  1.7677
 7019TIP3   OH242471   5.903   4.487   4.248  0.1966 -0.4042  0.6234
 7019TIP3    H142472   5.970   4.545   4.286  0.0371 -0.1679  0.5497
 7019TIP3    H242473   5.935   4.468   4.160  0.2450 -0.4198  0.6442
 7020TIP3   OH242474   6.203   4.923   3.693 -0.1644  0.1408 -0.1439
 7020TIP3    H142475   6.162   4.937   3.607 -0.1782  0.7375 -0.0495
 7020TIP3    H242476   6.183   5.004   3.742  3.2130  1.6107 -0.9123
 7021TIP3   OH242477   2.616   5.297  16.578  0.0370  0.0684 -0.0724
 7021TIP3    H142478   2.677   5.288  16.652 -1.0574  0.7911  0.9714
 7021TIP3    H242479   2.590   5.390  16.581  1.1432  0.5124 -2.3515
 7022TIP3   OH242480   0.857   4.210  14.332 -0.2729 -0.4133  0.2290
 7022TIP3    H142481   0.766   4.183  14.318 -0.7108  0.9028  0.3581
 7022TIP3    H242482   0.897   4.204  14.246 -0.4567 -1.0718  0.1828
 7023TIP3   OH242483   3.929   3.495   1.493  0.5030 -0.1480  0.3438
 7023TIP3    H142484   3.860   3.556   1.516  0.8604 -0.3258  2.0514
 7023TIP3    H242485   3.900   3.454   1.412 -0.6769  0.8533  0.2465
 7024TIP3   OH242486   2.161   1.934   4.864  0.0285 -0.0956 -0.1019
 7024TIP3    H142487   2.073   1.898   4.854  0.2901 -1.4307  1.7546
 7024TIP3    H242488   2.148   2.025   4.889 -0.8006 -0.0865 -0.5506
 7025TIP3   OH242489   4.894   4.647  14.614  0.2513 -0.0630  0.2458
 7025TIP3    H142490   4.953   4.623  14.685  1.3082 -2.0697 -1.2230
 7025TIP3    H242491   4.951   4.672  14.542 -0.6263 -1.6878 -1.0860
 7026TIP3   OH242492   1.315   4.814   0.531  0.1773  0.4123 -0.0978
 7026TIP3    H142493   1.319   4.882   0.599 -0.2406 -0.1069  0.4606
 7026TIP3    H242494   1.368   4.849   0.459  0.4358  1.0794  0.4017
 7027TIP3   OH242495   3.816   4.080  11.689 -0.2678  0.0109 -0.8693
 7027TIP3    H142496   3.825   4.149  11.755 -1.5206 -0.4428 -0.1774
 7027TIP3    H242497   3.793   4.126  11.609  1.6457  0.6055 -1.1180
 7028TIP3   OH242498   5.753   3.339  13.394  0.4630  0.0008 -0.9141
 7028TIP3    H142499   5.689   3.399  13.355  0.4866 -0.2358 -1.3186
 7028TIP3    H242500   5.825   3.397  13.422  0.5503  0.1491 -1.4350
 7029TIP3   OH242501   6.693   2.671  15.188  0.1616  0.0780 -0.0230
 7029TIP3    H142502   6.622   2.709  15.240  2.1378  2.5796  1.1259
 7029TIP3    H242503   6.650   2.634  15.111 -2.3776  1.3468  0.6679
 7030TIP3   OH242504   2.403   2.096  12.050 -0.0304  0.1557  0.5203
 7030TIP3    H142505   2.406   2.164  11.983  0.1631 -0.7574 -0.4280
 7030TIP3    H242506   2.390   2.144  12.132 -1.6703  1.2204 -0.2968
 7031TIP3   OH242507   5.724   1.999  13.123  0.0698  0.0282  0.3229
 7031TIP3    H142508   5.700   2.063  13.056  2.2266  0.9809  0.3785
 7031TIP3    H242509   5.706   2.044  13.206 -0.4397 -0.2799  0.3851
 7032TIP3   OH242510   2.728   0.893   1.208  0.2661  0.5084  0.0763
 7032TIP3    H142511   2.729   0.798   1.214 -1.4076  0.4351 -0.2066
 7032TIP3    H242512   2.699   0.922   1.294  1.8504  0.8459  0.5222
 7033TIP3   OH242513   2.483   1.940  14.756  0.6317  0.2972  0.2763
 7033TIP3    H142514   2.395   1.931  14.718  0.0428  0.5315  1.5578
 7033TIP3    H242515   2.521   1.853  14.748  1.0791  0.6193 -2.0905
 7034TIP3   OH242516   6.074   0.983  16.757 -0.3337  0.2014 -0.2554
 7034TIP3    H142517   6.007   0.935  16.806  1.4368 -1.6171  0.5258
 7034TIP3    H242518   6.087   1.064  16.806 -1.3745  0.2232  0.0076
 7035TIP3   OH242519   1.123   6.599  11.149 -0.5267  0.3018 -0.0683
 7035TIP3    H142520   1.115   6.687  11.112 -1.7998 -0.0553 -0.6853
 7035TIP3    H242521   1.070   6.544  11.092 -1.2259 -0.5596  1.3467
 7036TIP3   OH242522   6.624   2.835  10.775 -0.1502 -0.1973 -0.2368
 7036TIP3    H142523   6.544   2.872  10.738  0.5315  0.1165 -1.4228
 7036TIP3    H242524   6.666   2.908  10.821 -1.4760 -0.7998  2.1105
 7037TIP3   OH242525   1.457   2.460   3.492  0.4192  0.4658  0.3270
 7037TIP3    H142526   1.476   2.431   3.581  2.4034 -0.4082 -0.3411
 7037TIP3    H242527   1.466   2.556   3.496 -0.6148  0.5407  1.2840
 7038TIP3   OH242528   4.723   3.923  13.686  0.7030 -0.0612  0.0100
 7038TIP3    H142529   4.724   4.017  13.704  1.8969 -0.1022  0.2557
 7038TIP3    H242530   4.814   3.901  13.671  0.2982 -0.9768 -1.2165
 7039TIP3   OH242531   3.927   0.681  11.433  0.2776  0.2186 -0.5144
 7039TIP3    H142532   3.999   0.688  11.370  2.3546 -0.5560  1.6441
 7039TIP3    H242533   3.898   0.590  11.426  1.6998 -0.3704  0.8080
 7040TIP3   OH242534   1.053   6.786   5.344  0.4259 -0.7570 -0.3934
 7040TIP3    H142535   1.100   6.773   5.427 -0.6767 -0.5869  0.2815
 7040TIP3    H242536   1.083   6.871   5.313  0.0973 -0.3542  0.3595
 7041TIP3   OH242537   2.418   5.251   2.075  0.3277  0.4259  0.8335
 7041TIP3    H142538   2.417   5.299   2.158 -0.8656  1.0516  0.4785
 7041TIP3    H242539   2.430   5.320   2.008 -1.1541  0.2241  0.3318
 7042TIP3   OH242540   5.771   3.850   5.738 -0.3530  0.2663  0.1415
 7042TIP3    H142541   5.689   3.863   5.691  0.2254  0.5679 -0.8410
 7042TIP3    H242542   5.753   3.781   5.801 -1.3597  0.3433 -0.0497
 7043TIP3   OH242543   0.956   4.904  11.094  0.2917  0.6388 -0.0268
 7043TIP3    H142544   1.022   4.848  11.054 -0.1542  1.1105 -1.5174
 7043TIP3    H242545   0.892   4.918  11.024 -1.5501 -0.0281  1.4413
 7044TIP3   OH242546   4.975   5.557   1.654 -0.6001  0.4954 -0.5552
 7044TIP3    H142547   5.008   5.523   1.571  0.2724 -0.0625 -0.0054
 7044TIP3    H242548   4.912   5.491   1.684 -0.6941  0.5499 -0.6324
 7045TIP3   OH242549   1.827   4.034  13.172 -0.2188 -0.4259  0.2241
 7045TIP3    H142550   1.849   3.953  13.127 -0.4270 -0.7049  0.6198
 7045TIP3    H242551   1.904   4.090  13.159 -0.8172  0.0181 -1.6509
 7046TIP3   OH242552   4.320   1.146  15.001 -0.4450 -0.0936  0.0069
 7046TIP3    H142553   4.265   1.213  14.961 -0.8922 -0.2241  0.3935
 7046TIP3    H242554   4.374   1.114  14.929 -0.0146  0.8828 -0.1200
 7047TIP3   OH242555   6.187   2.510  15.687 -0.1551  0.0261 -0.9081
 7047TIP3    H142556   6.093   2.512  15.705 -0.3853 -0.1195 -2.0519
 7047TIP3    H242557   6.227   2.499  15.773 -1.1639  0.4574 -0.3619
 7048TIP3   OH242558   2.594   6.151  15.690 -0.3020  0.1627  0.3218
 7048TIP3    H142559   2.612   6.097  15.614  1.8045  0.6313  0.4302
 7048TIP3    H242560   2.624   6.099  15.765  0.3094  0.8339  0.5579
 7049TIP3   OH242561   2.561   4.007   6.226 -0.3316  0.5221 -0.0484
 7049TIP3    H142562   2.605   4.016   6.310  2.1138 -0.7717 -1.0613
 7049TIP3    H242563   2.540   3.914   6.220  0.5772  0.3566 -1.2799
 7050TIP3   OH242564   4.776   3.351  14.208  0.0244 -0.2882  0.2258
 7050TIP3    H142565   4.744   3.359  14.298  0.1053 -1.1234  0.3343
 7050TIP3    H242566   4.871   3.345  14.217  0.1657  1.0685 -0.0269
 7051TIP3   OH242567   6.563   4.340   4.344  0.2719 -0.3720 -0.1542
 7051TIP3    H142568   6.536   4.256   4.306 -1.0744  0.2279 -0.6032
 7051TIP3    H242569   6.481   4.385   4.363  0.9469  1.2471 -0.8220
 7052TIP3   OH242570   6.106   4.117  14.750 -0.1816 -0.2297 -0.1773
 7052TIP3    H142571   6.123   4.098  14.842 -0.7462  0.8437  0.1697
 7052TIP3    H242572   6.114   4.212  14.743  0.7750 -0.3756 -1.4430
 7053TIP3   OH242573   3.570   2.868   4.995  0.6889  0.6049  0.0524
 7053TIP3    H142574   3.588   2.777   4.972  0.1823  0.8397 -1.3051
 7053TIP3    H242575   3.476   2.879   4.979  0.7507  1.3714  0.1941
 7054TIP3   OH242576   1.230   2.818   1.706  1.0826 -0.1955 -0.5723
 7054TIP3    H142577   1.152   2.870   1.683 -0.1355 -1.0026  1.4708
 7054TIP3    H242578   1.216   2.734   1.662  0.0354 -0.8403  0.9157
 7055TIP3   OH242579   3.381   5.903  15.412  0.0259  0.0589  0.0446
 7055TIP3    H142580   3.396   5.957  15.335 -1.6853  0.4142 -0.0740
 7055TIP3    H242581   3.297   5.861  15.397  0.1588 -0.7152  1.2518
 7056TIP3   OH242582   4.487   4.766   3.045  0.3450 -0.1476  0.5635
 7056TIP3    H142583   4.467   4.674   3.061  0.3653 -0.1592  0.5224
 7056TIP3    H242584   4.410   4.813   3.077 -0.7734 -0.3353 -1.6533
 7057TIP3   OH242585   0.180   4.941   1.832 -0.0618  0.4278 -0.0970
 7057TIP3    H142586   0.248   5.009   1.837 -0.8902  1.2105  1.8788
 7057TIP3    H242587   0.115   4.977   1.771  0.6044  0.3265 -0.8794
 7058TIP3   OH242588   2.866   6.269  11.986 -0.2333 -0.7600  0.1135
 7058TIP3    H142589   2.798   6.272  11.918  0.4399 -0.8855 -0.5775
 7058TIP3    H242590   2.944   6.305  11.944  0.1521 -0.6673  0.8838
 7059TIP3   OH242591   5.616   4.891  10.837  0.2999  0.8602  0.1207
 7059TIP3    H142592   5.569   4.839  10.902  1.1107  1.2012  0.9989
 7059TIP3    H242593   5.557   4.963  10.817  0.1229  0.8665  0.6448
 7060TIP3   OH242594   2.372   1.565  12.792 -0.1450 -0.0635 -0.1510
 7060TIP3    H142595   2.335   1.594  12.709 -1.0677  1.1731  0.6513
 7060TIP3    H242596   2.462   1.596  12.790 -0.1616 -0.0382 -0.6851
 7061TIP3   OH242597   3.742   0.613   3.877 -0.3174 -0.3669 -0.2189
 7061TIP3    H142598   3.801   0.656   3.815  0.2481  0.8757  1.1235
 7061TIP3    H242599   3.654   0.637   3.847 -0.0238  1.3924  0.2382
 7062TIP3   OH242600   0.414   0.257   4.927 -0.2872  0.3408 -0.0684
 7062TIP3    H142601   0.416   0.236   4.834 -2.6192  0.8455 -0.3027
 7062TIP3    H242602   0.346   0.199   4.963  0.7249 -0.0156  1.3856
 7063TIP3   OH242603   1.682   0.398   5.774  0.0692 -0.6277 -0.3984
 7063TIP3    H142604   1.759   0.444   5.809  0.3041  0.3028 -2.0681
 7063TIP3    H242605   1.715   0.310   5.753 -0.2944 -1.5791  2.4489
 7064TIP3   OH242606   2.441   6.693   5.353  0.5639 -0.2228  0.0338
 7064TIP3    H142607   2.530   6.703   5.319  0.9269 -1.3393  0.5806
 7064TIP3    H242608   2.400   6.630   5.295  1.0301 -1.7621  1.2921
 7065TIP3   OH242609   6.776   0.834  11.296  0.1792  0.4095 -0.4350
 7065TIP3    H142610   6.696   0.781  11.300  0.1843  0.4041 -0.4044
 7065TIP3    H242611   6.830   0.791  11.229 -0.5692  1.4153 -1.7372
 7066TIP3   OH242612   5.293   1.884   0.003  0.1488  0.2275 -0.2205
 7066TIP3    H142613   5.314   1.832   0.081 -0.6361 -0.1368 -0.2464
 7066TIP3    H242614   5.197   1.888   0.002  0.1448  0.0046 -1.3198
 7067TIP3   OH242615   0.112   4.806  12.169  1.0841 -0.1534 -0.1283
 7067TIP3    H142616   0.101   4.759  12.086  0.6781  0.4851 -0.4394
 7067TIP3    H242617   0.204   4.834  12.169  1.0650 -0.0878 -0.3968
 7068TIP3   OH242618   3.088   4.784  13.811 -0.1927  0.1329 -0.6583
 7068TIP3    H142619   3.097   4.758  13.903 -1.2320  0.1305 -0.5537
 7068TIP3    H242620   2.998   4.813  13.802 -0.2037 -0.1844 -1.7654
 7069TIP3   OH242621   6.005   0.091   0.126 -0.2458  0.4778  0.2308
 7069TIP3    H142622   6.026  -0.001   0.145  0.4675  0.8499  1.4037
 7069TIP3    H242623   6.090   0.135   0.127 -0.7079  1.3862  1.1550
 7070TIP3   OH242624   0.984   0.359  11.087  0.0683  0.0461  0.0572
 7070TIP3    H142625   0.931   0.355  11.166  0.5491 -1.5705  0.3466
 7070TIP3    H242626   1.044   0.432  11.101  0.0813 -0.1583  1.1440
 7071TIP3   OH242627   0.935   6.776  13.762 -0.4557 -0.0101  0.4153
 7071TIP3    H142628   0.895   6.752  13.678  0.4858 -1.3048  0.3130
 7071TIP3    H242629   0.875   6.842  13.798 -0.6142  0.9766 -1.4883
 7072TIP3   OH242630   6.437   1.618  16.511 -0.0589 -0.5504 -0.1353
 7072TIP3    H142631   6.449   1.707  16.476  3.1581  0.2999  2.5414
 7072TIP3    H242632   6.346   1.616  16.540  0.0925  2.4518  0.9363
 7073TIP3   OH242633   3.682   5.291   4.214  0.2931  0.7698 -0.4646
 7073TIP3    H142634   3.642   5.344   4.146  1.1547 -0.1159 -1.7003
 7073TIP3    H242635   3.641   5.205   4.204  0.8129  0.4892 -0.2209
 7074TIP3   OH242636   6.244   6.017   3.509 -0.5483 -0.4187  0.3419
 7074TIP3    H142637   6.318   5.994   3.452  1.2925 -1.0522  2.7917
 7074TIP3    H242638   6.280   6.084   3.567 -2.3600  0.2383  0.7509
 7075TIP3   OH242639   5.777   4.974  13.773 -0.2071  0.2985  0.4448
 7075TIP3    H142640   5.872   4.979  13.782 -0.0587 -1.7875  0.4253
 7075TIP3    H242641   5.758   4.881  13.764 -1.8529  0.7887 -3.7211
 7076TIP3   OH242642   1.815   2.206  16.100  0.2533 -0.7072  0.1054
 7076TIP3    H142643   1.778   2.286  16.062 -1.6477 -1.6678 -0.2149
 7076TIP3    H242644   1.809   2.141  16.030  0.3721 -1.5014  0.8109
 7077TIP3   OH242645   4.877   6.129  11.301  0.0708  0.1678 -0.4683
 7077TIP3    H142646   4.867   6.205  11.244 -0.2580 -0.7833 -1.7160
 7077TIP3    H242647   4.970   6.128  11.323  0.4109  0.0034 -1.8063
 7078TIP3   OH242648   3.593   6.208  11.695 -0.2096 -0.0425 -0.0518
 7078TIP3    H142649   3.564   6.299  11.703 -1.4859 -0.5201  1.1268
 7078TIP3    H242650   3.669   6.202  11.753 -0.7719  0.0278  0.7068
 7079TIP3   OH242651   2.424   3.242   2.173  0.3570  0.2538  0.2789
 7079TIP3    H142652   2.461   3.325   2.205  0.5401  0.9255 -1.5855
 7079TIP3    H242653   2.467   3.176   2.227  1.0879  1.2924  1.0365
 7080TIP3   OH242654   0.049   4.935  14.961 -0.2552  0.2054  0.2557
 7080TIP3    H142655   0.085   5.016  14.925 -1.4774  1.3974  1.5833
 7080TIP3    H242656   0.003   4.962  15.040 -2.7467 -1.4152 -0.5061
 7081TIP3   OH242657   1.710   2.575   0.771 -0.1865  0.1227  0.4441
 7081TIP3    H142658   1.619   2.547   0.781  0.3221 -1.8143  0.0734
 7081TIP3    H242659   1.753   2.500   0.728  1.6702  0.8293  0.9958
 7082TIP3   OH242660   4.205   2.188   4.369 -0.0845 -0.4202  0.5630
 7082TIP3    H142661   4.241   2.106   4.336 -2.4401 -1.2759 -0.0741
 7082TIP3    H242662   4.144   2.162   4.438 -1.5949  0.6747 -0.3076
 7083TIP3   OH242663   5.946   0.081  13.522  1.2370 -0.6157 -0.1805
 7083TIP3    H142664   6.008   0.022  13.565  1.7014 -1.1014 -1.4658
 7083TIP3    H242665   5.955   0.164  13.568  0.8772 -1.4164  1.3881
 7084TIP3   OH242666   0.352   6.708  11.495  0.1578  0.0127 -0.2781
 7084TIP3    H142667   0.330   6.747  11.410 -0.3924  0.1537 -0.0733
 7084TIP3    H242668   0.403   6.630  11.473 -1.9134 -1.2444 -0.8387
 7085TIP3   OH242669   2.998   5.704  12.617 -0.3699  0.5548  0.1279
 7085TIP3    H142670   3.073   5.644  12.618 -1.7495 -1.2628 -0.3567
 7085TIP3    H242671   2.993   5.737  12.707  1.0645  0.8075  0.1357
 7086TIP3   OH242672   6.465   5.919   1.749 -0.3911 -0.2150  0.6618
 7086TIP3    H142673   6.437   5.954   1.664 -1.1023  0.1413  1.0355
 7086TIP3    H242674   6.454   5.825   1.740 -0.8731 -0.1466  0.4986
 7087TIP3   OH242675   3.965   3.300  11.821  0.3055  0.2093  0.1259
 7087TIP3    H142676   4.025   3.371  11.798  0.2978  0.2071  0.0988
 7087TIP3    H242677   3.966   3.242  11.746  0.4809  0.0662  0.2412
 7088TIP3   OH242678   5.163   6.709   0.119 -0.5410  0.0538 -0.0203
 7088TIP3    H142679   5.110   6.746   0.048 -0.3081  1.1573  0.3625
 7088TIP3    H242680   5.252   6.742   0.102 -0.8201  1.8992  1.8014
 7089TIP3   OH242681   3.984   2.972  14.820  0.2221  0.5412 -0.1926
 7089TIP3    H142682   4.018   3.060  14.839  0.4998  0.2987  0.4266
 7089TIP3    H242683   4.062   2.917  14.813  0.0977  0.4751 -1.3425
 7090TIP3   OH242684   2.634   2.222   0.248  0.2803  0.1702 -0.0221
 7090TIP3    H142685   2.569   2.288   0.224 -1.1851 -0.7080  1.4075
 7090TIP3    H242686   2.608   2.144   0.200  1.0179  0.1291 -0.3801
 7091TIP3   OH242687   5.859   1.338   6.516  0.7411  0.6476 -0.1148
 7091TIP3    H142688   5.782   1.391   6.536  1.5033  1.1637  1.6552
 7091TIP3    H242689   5.829   1.248   6.529 -0.3959  0.5792 -2.5778
 7092TIP3   OH242690   6.167   2.783  11.089  0.1143 -0.2788 -0.1998
 7092TIP3    H142691   6.104   2.854  11.081 -2.2162 -2.1643  0.2562
 7092TIP3    H242692   6.237   2.806  11.029 -0.7100  2.1964 -0.3270
 7093TIP3   OH242693   6.216   0.440   3.200 -0.1103  0.4416 -0.5891
 7093TIP3    H142694   6.158   0.508   3.166 -1.2644 -0.2293  0.0238
 7093TIP3    H242695   6.278   0.488   3.255  0.1959  1.2092 -1.5612
 7094TIP3   OH242696   3.636   2.829   3.214 -0.5011 -0.0762 -0.4966
 7094TIP3    H142697   3.696   2.825   3.288 -1.5804  0.1541  0.4173
 7094TIP3    H242698   3.549   2.818   3.252 -1.0916  0.0703 -1.7281
 7095TIP3   OH242699   6.100   1.349  14.120  0.7874 -0.6538 -0.1194
 7095TIP3    H142700   6.170   1.300  14.077  0.5840 -0.8185 -0.2609
 7095TIP3    H242701   6.087   1.426  14.065  0.6494 -0.7747 -0.2551
 7096TIP3   OH242702   2.084   3.528  15.345  0.4973 -0.4105 -0.0422
 7096TIP3    H142703   2.169   3.498  15.313  0.0072 -1.7712 -0.1488
 7096TIP3    H242704   2.095   3.536  15.440  0.7086 -0.7696 -0.0336
 7097TIP3   OH242705   2.898   4.985  15.320  0.0290 -0.5349 -0.1876
 7097TIP3    H142706   2.920   5.001  15.228 -2.3387  0.7954 -0.5828
 7097TIP3    H242707   2.829   4.919  15.316  0.5443 -1.1552  0.7408
 7098TIP3   OH242708   0.433   5.511  16.799 -0.4288  0.0446 -0.5559
 7098TIP3    H142709   0.497   5.576  16.769 -1.2841  1.0700 -0.2546
 7098TIP3    H242710   0.479   5.428  16.797  0.9925  0.7918 -0.1195
 7099TIP3   OH242711   1.896   5.179   1.253  0.2903 -0.2229  0.4390
 7099TIP3    H142712   1.971   5.119   1.261 -0.2249 -0.9108  0.1396
 7099TIP3    H242713   1.881   5.188   1.159 -1.1218 -1.5172  0.5044
 7100TIP3   OH242714   5.259   3.790   5.645  0.0455 -0.5092 -0.2027
 7100TIP3    H142715   5.197   3.851   5.684 -0.4356  0.2896 -2.1209
 7100TIP3    H242716   5.299   3.746   5.720 -1.3756  0.3859  1.1456
 7101TIP3   OH242717   1.509   3.754   4.127 -0.7179  0.4868 -0.1710
 7101TIP3    H142718   1.432   3.709   4.093 -0.2668 -0.6792  0.3073
 7101TIP3    H242719   1.473   3.823   4.182 -1.4311 -0.0123  0.0064
 7102TIP3   OH242720   4.581   0.223   3.171  0.1032 -0.5697 -0.4747
 7102TIP3    H142721   4.510   0.222   3.107 -0.3218 -4.5850 -0.2004
 7102TIP3    H242722   4.544   0.182   3.249  1.9387 -0.0554  0.7378
 7103TIP3   OH242723   3.237   1.832  14.983 -0.2087 -0.0388 -0.0394
 7103TIP3    H142724   3.307   1.807  15.043  0.3250  1.1238 -0.1571
 7103TIP3    H242725   3.281   1.870  14.908 -0.8667 -1.5812 -1.2566
 7104TIP3   OH242726   1.625   5.103  12.600  0.0763  0.3739 -0.2117
 7104TIP3    H142727   1.656   5.084  12.689 -0.0869 -0.0897 -0.2494
 7104TIP3    H242728   1.702   5.089  12.545 -0.1183 -0.5130 -0.2739
 7105TIP3   OH242729   5.858   0.007  11.380 -1.0069  0.1824  0.4190
 7105TIP3    H142730   5.837   0.014  11.473  0.9453 -0.0071  0.9207
 7105TIP3    H242731   5.838   0.093  11.344 -0.1346  0.8151  1.4008
 7106TIP3   OH242732   1.617   0.738  13.990  0.1695  0.6917 -0.3257
 7106TIP3    H142733   1.686   0.701  13.936  0.0393 -1.1568  0.6996
 7106TIP3    H242734   1.553   0.772  13.927  1.4451  1.4271 -1.2857
 7107TIP3   OH242735   0.443   0.544   4.928  0.3197 -0.4149  0.6786
 7107TIP3    H142736   0.419   0.455   4.950  0.5429 -0.3241  1.3024
 7107TIP3    H242737   0.507   0.569   4.994 -0.3463  0.4847  1.0169
 7108TIP3   OH242738   0.043   4.148  15.016 -0.5099  0.3503 -0.2501
 7108TIP3    H142739  -0.018   4.118  15.084 -0.4611 -0.4560 -0.5476
 7108TIP3    H242740  -0.006   4.214  14.967 -1.8591 -1.5502 -1.6266
 7109TIP3   OH242741   2.545   3.135   4.642 -0.2961  0.4537  0.1443
 7109TIP3    H142742   2.466   3.189   4.642 -0.4162  0.5067 -3.2256
 7109TIP3    H242743   2.513   3.045   4.637 -0.3271  0.5255 -2.9610
 7110TIP3   OH242744   5.163   1.537   4.115 -0.5034 -0.0331 -0.9320
 7110TIP3    H142745   5.205   1.604   4.168  0.0950 -0.6033 -0.6670
 7110TIP3    H242746   5.087   1.510   4.166  0.9410 -1.7218  0.4648
 7111TIP3   OH242747   4.493   3.225   0.811  0.3735 -0.2473 -0.2813
 7111TIP3    H142748   4.503   3.200   0.719 -0.3158 -1.3869 -0.0659
 7111TIP3    H242749   4.400   3.249   0.819  1.1153  3.3369 -0.6616
 7112TIP3   OH242750   2.053   1.391   0.729 -0.1132  0.6422  0.5638
 7112TIP3    H142751   2.002   1.401   0.809  1.2047  0.2047  1.4975
 7112TIP3    H242752   2.143   1.379   0.759  0.8501  2.9871 -1.0523
 7113TIP3   OH242753   0.598   4.690   3.418 -0.4736  0.3094 -0.4487
 7113TIP3    H142754   0.687   4.685   3.453 -0.1808  2.4174 -0.7718
 7113TIP3    H242755   0.575   4.599   3.399  1.8753 -0.2335 -1.0279
 7114TIP3   OH242756   1.133   6.630  16.651  0.1726  0.5984  0.0210
 7114TIP3    H142757   1.053   6.603  16.606 -0.4589  0.1023  1.3835
 7114TIP3    H242758   1.112   6.718  16.684 -0.4602 -0.1658  1.7844
 7115TIP3   OH242759   5.511   1.388  11.693  0.5941  0.4317  0.7917
 7115TIP3    H142760   5.599   1.361  11.718  1.5390 -0.3341 -2.7969
 7115TIP3    H242761   5.461   1.307  11.691 -0.1236  0.8029  2.3491
 7116TIP3   OH242762   2.174   3.165   6.213  0.0136 -0.0435 -0.0479
 7116TIP3    H142763   2.230   3.231   6.171  0.6675 -1.5208 -1.6009
 7116TIP3    H242764   2.091   3.211   6.230  0.5559  1.2599 -0.7789
 7117TIP3   OH242765   6.787   0.361  15.543 -0.1136 -0.0825  0.0203
 7117TIP3    H142766   6.797   0.381  15.636 -0.8000 -0.1729  0.1156
 7117TIP3    H242767   6.740   0.437  15.507 -0.4577 -0.3605 -0.1176
 7118TIP3   OH242768   6.595   5.134  15.173 -0.0466  0.1042  0.0151
 7118TIP3    H142769   6.637   5.112  15.256  1.8297  1.0149 -0.6546
 7118TIP3    H242770   6.637   5.215  15.144 -1.7697  0.6850 -1.0791
 7119TIP3   OH242771   4.779   0.803  11.645  1.0255 -0.6752 -0.5541
 7119TIP3    H142772   4.788   0.755  11.562 -0.2664 -0.3833 -0.8923
 7119TIP3    H242773   4.781   0.895  11.619 -2.8481 -0.5037 -0.8083
 7120TIP3   OH242774   4.296   3.148   0.210 -0.2071 -0.6999 -0.6199
 7120TIP3    H142775   4.373   3.181   0.256  0.5806 -1.0503 -1.6446
 7120TIP3    H242776   4.291   3.201   0.131  0.7694 -2.5723 -2.0407
 7121TIP3   OH242777   1.311   3.299   4.476  0.0106 -0.2586  0.0952
 7121TIP3    H142778   1.339   3.250   4.399  1.8473  2.4679 -1.1043
 7121TIP3    H242779   1.235   3.349   4.446  0.8522  0.9628 -0.0230
 7122TIP3   OH242780   3.594   4.119  15.098 -0.4868  0.1620 -0.4090
 7122TIP3    H142781   3.659   4.067  15.052  0.9447 -0.4538  2.1596
 7122TIP3    H242782   3.512   4.069  15.089 -0.1151 -0.2456 -1.6781
 7123TIP3   OH242783   0.123   3.068   0.655 -0.0851 -0.6567  0.1191
 7123TIP3    H142784   0.151   3.106   0.739  0.0785 -1.1925  0.3155
 7123TIP3    H242785   0.037   3.106   0.639  0.4090  0.4074 -0.0954
 7124TIP3   OH242786   0.295   0.002   4.996 -0.2747  0.1828 -0.0765
 7124TIP3    H142787   0.259  -0.024   5.081  0.1297  2.2082  0.7776
 7124TIP3    H242788   0.218   0.022   4.943 -0.5106  0.0420  0.2109
 7125TIP3   OH242789   6.154   4.425   5.876  0.2925 -0.0567 -0.2058
 7125TIP3    H142790   6.115   4.338   5.866 -0.1503  0.1852 -0.6337
 7125TIP3    H242791   6.111   4.462   5.953 -1.1067  0.6079 -1.2673
 7126TIP3   OH242792   1.449   2.071  16.277 -0.1373  0.4650  0.0567
 7126TIP3    H142793   1.476   1.996  16.330 -1.2698  0.1157  0.1702
 7126TIP3    H242794   1.395   2.123  16.336  0.2540  1.1317 -0.1666
 7127TIP3   OH242795   6.346   4.390  17.086  0.5462 -0.1023  0.0479
 7127TIP3    H142796   6.318   4.340  17.162 -1.4553 -2.1276 -1.8658
 7127TIP3    H242797   6.277   4.454  17.072 -0.5589 -1.5173 -1.5055
 7128TIP3   OH242798   0.025   2.910  11.083 -0.3584  0.0924 -0.4547
 7128TIP3    H142799   0.015   2.970  11.009 -1.8888 -0.9009 -1.1135
 7128TIP3    H242800  -0.063   2.902  11.119 -0.0048 -1.0080  0.1958
 7129TIP3   OH242801   2.546   5.320  16.957 -0.0980 -0.2521 -0.3027
 7129TIP3    H142802   2.515   5.243  16.909 -2.2684  0.5558 -0.3276
 7129TIP3    H242803   2.469   5.350  17.006  0.2208  2.7181 -1.4048
 7130TIP3   OH242804   4.451   5.459  13.644  0.1150  0.0890 -0.4450
 7130TIP3    H142805   4.380   5.399  13.667 -0.4358  0.4731 -1.1063
 7130TIP3    H242806   4.494   5.478  13.728 -0.5414 -0.1818 -0.0391
 7131TIP3   OH242807   4.141   0.404   1.054  0.2349 -0.1480 -0.6047
 7131TIP3    H142808   4.156   0.315   1.021 -0.1746  0.6871 -3.2171
 7131TIP3    H242809   4.178   0.461   0.987 -0.1620  1.6912  0.6737
 7132TIP3   OH242810   2.130   5.792  12.176 -0.4556 -0.4595  0.1531
 7132TIP3    H142811   2.094   5.816  12.262  2.1363 -0.8308  1.4326
 7132TIP3    H242812   2.184   5.866  12.151  0.2088 -1.0973 -0.3270
 7133TIP3   OH242813   2.152   6.060  14.638 -0.5580 -0.2230 -0.2578
 7133TIP3    H142814   2.090   5.987  14.638  0.3000 -0.9653 -0.6091
 7133TIP3    H242815   2.142   6.100  14.724 -1.0507 -0.7318 -0.0720
 7134TIP3   OH242816   3.968   0.731  13.165  0.3125 -1.1791 -0.2846
 7134TIP3    H142817   3.950   0.800  13.229  2.9924  0.5055 -1.1538
 7134TIP3    H242818   3.982   0.779  13.083  0.2681 -2.9744 -1.3846
 7135TIP3   OH242819   0.926   0.461   5.358  0.0278 -0.0777 -0.5635
 7135TIP3    H142820   0.942   0.466   5.453  2.5785 -0.7734 -0.8701
 7135TIP3    H242821   0.840   0.420   5.350 -0.9751  1.4673  1.4352
 7136TIP3   OH242822   4.678   5.020  11.533 -0.2696 -0.5839 -0.4895
 7136TIP3    H142823   4.690   5.098  11.478 -0.6238 -0.1387  0.0486
 7136TIP3    H242824   4.632   4.958  11.476  0.1626 -0.4628 -0.9774
 7137TIP3   OH242825   0.876   0.077  16.420 -0.1618 -0.3253 -0.6133
 7137TIP3    H142826   0.782   0.088  16.429 -0.3330 -2.1809  0.3442
 7137TIP3    H242827   0.894   0.092  16.327 -1.2793  0.7669 -0.6658
 7138TIP3   OH242828   2.985   4.827  14.739  0.0765 -0.3790  0.5157
 7138TIP3    H142829   2.996   4.911  14.784 -0.7302  0.2311 -0.3978
 7138TIP3    H242830   2.915   4.784  14.788 -1.1941  0.5217 -0.4447
 7139TIP3   OH242831   5.091   6.120   3.971  0.7049 -0.3805  0.4449
 7139TIP3    H142832   5.143   6.201   3.969 -2.2200  1.6422  0.0924
 7139TIP3    H242833   5.106   6.080   3.885  3.8650 -1.4970  1.3829
 7140TIP3   OH242834   3.679   5.131   2.305 -0.2150  0.0345 -0.1830
 7140TIP3    H142835   3.749   5.096   2.250  0.6198 -1.6909  1.8034
 7140TIP3    H242836   3.715   5.213   2.339  0.8770 -0.7630  0.7067
 7141TIP3   OH242837   5.617   5.765  13.309  0.2122  0.1277  0.3636
 7141TIP3    H142838   5.658   5.814  13.237 -0.3327 -1.4896 -1.1205
 7141TIP3    H242839   5.525   5.760  13.284  0.2579 -1.6462  0.4324
 7142TIP3   OH242840   5.241   6.470  10.990 -0.2763 -0.4293 -0.2498
 7142TIP3    H142841   5.246   6.384  10.948  0.7101  0.4221 -1.9583
 7142TIP3    H242842   5.252   6.533  10.919 -3.0498  1.2204  0.6143
 7143TIP3   OH242843   0.137   3.860  16.306 -0.5462 -0.4191  0.5118
 7143TIP3    H142844   0.084   3.790  16.342 -0.7477 -0.3220  0.4057
 7143TIP3    H242845   0.099   3.877  16.220 -1.4498  0.8166  1.1121
 7144TIP3   OH242846   3.949   0.829  16.163 -0.1364 -0.3910 -0.1710
 7144TIP3    H142847   3.920   0.763  16.226  0.9581 -1.6612 -0.9363
 7144TIP3    H242848   3.869   0.861  16.122 -0.6789 -1.4120  0.0602
 7145TIP3   OH242849   2.629   1.225  13.829  0.1280  0.0271 -0.2824
 7145TIP3    H142850   2.721   1.203  13.816  0.4853 -0.0840  2.0008
 7145TIP3    H242851   2.619   1.231  13.924 -1.9206  1.4098 -0.5261
 7146TIP3   OH242852   3.086   5.543   4.971  0.2957  0.0364 -0.3796
 7146TIP3    H142853   3.098   5.532   5.065  0.3386  0.4630 -0.3333
 7146TIP3    H242854   3.174   5.561   4.937  0.2952 -0.2199 -0.5132
 7147TIP3   OH242855   1.787   4.562   5.636  0.4832  0.7755  0.3118
 7147TIP3    H142856   1.801   4.475   5.600  1.3436  1.8719 -2.2290
 7147TIP3    H242857   1.866   4.579   5.688  0.1849 -0.0355  1.0532
 7148TIP3   OH242858   2.547   0.787  15.552 -0.6343  0.2012  0.1197
 7148TIP3    H142859   2.460   0.801  15.514 -0.0431  0.7341 -1.1137
 7148TIP3    H242860   2.606   0.836  15.494  0.2863  1.4515  2.0032
 7149TIP3   OH242861   3.769   1.854  11.219  0.0806 -0.1594 -0.0737
 7149TIP3    H142862   3.722   1.904  11.152  0.4744 -0.0050 -0.2366
 7149TIP3    H242863   3.824   1.919  11.263 -1.6005  0.1466  1.7242
 7150TIP3   OH242864   0.903   2.275  15.887 -0.2062  0.1354 -0.1042
 7150TIP3    H142865   0.962   2.291  15.813  0.6615  0.6648  0.6842
 7150TIP3    H242866   0.817   2.305  15.856  0.1515  0.3928 -0.8809
 7151TIP3   OH242867   6.570   2.668   0.150 -0.3847  0.3949  0.2066
 7151TIP3    H142868   6.646   2.694   0.202  1.0829  1.6090 -2.3334
 7151TIP3    H242869   6.597   2.588   0.106  0.1332  1.6796 -1.9375
 7152TIP3   OH242870   3.576   5.509  17.108 -0.3843  0.0880 -0.0382
 7152TIP3    H142871   3.576   5.415  17.128  0.1297 -0.0517 -0.6802
 7152TIP3    H242872   3.531   5.548  17.182  1.2193 -0.4515  1.2973
 7153TIP3   OH242873   2.322   4.975   1.480 -0.2404 -0.3248 -0.6844
 7153TIP3    H142874   2.384   5.005   1.414  0.0669 -1.4590 -0.9269
 7153TIP3    H242875   2.355   5.013   1.562  1.1803 -1.4310 -0.6957
 7154TIP3   OH242876   4.772   5.947  14.596  0.8790 -0.1309  0.2643
 7154TIP3    H142877   4.757   5.854  14.613 -1.2914  0.1560  0.0936
 7154TIP3    H242878   4.868   5.955  14.591  1.0958 -2.5703 -0.9331
 7155TIP3   OH242879   0.800   6.612   3.781 -0.5953  0.2616 -0.8198
 7155TIP3    H142880   0.779   6.695   3.825  0.1877  0.7077 -1.2523
 7155TIP3    H242881   0.762   6.622   3.694 -1.0659 -0.1117 -0.6627
 7156TIP3   OH242882   2.274   3.903  11.205  0.2378 -0.1760  0.0837
 7156TIP3    H142883   2.309   3.883  11.291  1.2902  0.1505 -0.2434
 7156TIP3    H242884   2.300   3.994  11.189 -1.5631  0.3826  0.1829
 7157TIP3   OH242885   0.839   4.758   3.502  0.0565 -0.0052 -0.0013
 7157TIP3    H142886   0.884   4.837   3.473 -0.4720  0.8926  1.5264
 7157TIP3    H242887   0.909   4.695   3.519  0.8129  1.3264  2.2137
 7158TIP3   OH242888   1.303   0.444   1.080 -0.0808  0.0061  0.5945
 7158TIP3    H142889   1.349   0.407   1.156  0.0053  0.4436  0.7562
 7158TIP3    H242890   1.257   0.369   1.042  0.8597 -0.4799  0.3600
 7159TIP3   OH242891   6.285   4.229  15.219  0.2574  0.4155 -0.0968
 7159TIP3    H142892   6.264   4.311  15.263  0.5089 -0.2689  1.3454
 7159TIP3    H242893   6.281   4.251  15.125  1.7942  2.4438  0.2353
 7160TIP3   OH242894   6.120   3.586   4.862 -0.7320 -0.1991 -0.2390
 7160TIP3    H142895   6.193   3.531   4.889 -1.6198 -0.3600  2.0446
 7160TIP3    H242896   6.065   3.528   4.809 -0.6678 -0.9357  0.4873
 7161TIP3   OH242897   6.703   4.108   0.423  0.1088  0.2421 -0.3586
 7161TIP3    H142898   6.623   4.120   0.372 -1.1410 -2.3094  0.8268
 7161TIP3    H242899   6.703   4.180   0.485 -0.1587  1.4152 -1.6650
 7162TIP3   OH242900   1.544   6.632   0.259  0.3531  0.1625 -0.4113
 7162TIP3    H142901   1.455   6.646   0.225 -0.0609  0.5550  0.7933
 7162TIP3    H242902   1.600   6.633   0.181 -0.8009 -1.0841 -1.2996
 7163TIP3   OH242903   0.212   2.230   2.908 -0.1443 -0.0187 -0.0725
 7163TIP3    H142904   0.137   2.170   2.904 -0.4136  0.1992  1.3216
 7163TIP3    H242905   0.267   2.204   2.834 -1.2937 -0.5731 -0.7742
 7164TIP3   OH242906   1.221   2.661  12.772 -0.1316 -0.1326  0.3816
 7164TIP3    H142907   1.198   2.582  12.822  0.1643 -0.3120  0.2325
 7164TIP3    H242908   1.291   2.633  12.714  0.6115  0.4696  0.9789
 7165TIP3   OH242909   1.062   5.995   0.785  0.3668 -0.5578 -0.2634
 7165TIP3    H142910   1.052   5.979   0.692 -0.5039 -2.7490  0.1435
 7165TIP3    H242911   1.064   6.091   0.793 -1.4788 -0.2651 -2.3263
 7166TIP3   OH242912   5.101   3.159   2.068  0.3791 -0.0191 -0.6923
 7166TIP3    H142913   5.191   3.188   2.048  1.3584 -0.5815  2.3384
 7166TIP3    H242914   5.066   3.229   2.123  0.1790 -1.2516  0.8137
 7167TIP3   OH242915   4.104   0.880  14.314 -0.1491 -0.1925  0.8161
 7167TIP3    H142916   4.013   0.851  14.324 -0.8692  1.7677  0.3551
 7167TIP3    H242917   4.126   0.857  14.224 -2.1016  3.9702 -0.9904
 7168TIP3   OH242918   0.514   2.154   3.729 -0.2355 -0.1022  0.0801
 7168TIP3    H142919   0.557   2.126   3.648  0.7589  1.4546  0.0168
 7168TIP3    H242920   0.420   2.147   3.710 -0.0785  1.8827 -1.8998
 7169TIP3   OH242921   5.712   2.965  16.662 -0.6528 -0.3478 -0.1629
 7169TIP3    H142922   5.638   3.020  16.638 -0.6744 -0.0648  0.5143
 7169TIP3    H242923   5.776   3.026  16.700 -0.1073 -0.6002 -0.6550
 7170TIP3   OH242924   1.987   1.949  17.122 -0.3735 -0.2058  0.2634
 7170TIP3    H142925   2.076   1.967  17.151 -0.0162 -0.5278 -0.5958
 7170TIP3    H242926   1.988   1.856  17.098 -0.8025 -0.0980 -0.2108
 7171TIP3   OH242927   0.090   1.466   2.499  1.0457 -0.2510 -0.4306
 7171TIP3    H142928   0.169   1.496   2.543  0.5747  0.1128  0.1817
 7171TIP3    H242929   0.099   1.497   2.409  0.4804  1.9813  0.2208
 7172TIP3   OH242930   0.956   6.741  11.821 -0.7751  0.7244 -0.0066
 7172TIP3    H142931   0.947   6.680  11.748 -0.9867  0.0979  0.5330
 7172TIP3    H242932   0.929   6.826  11.785  0.2428  0.6570 -0.9672
 7173TIP3   OH242933   1.508   4.980   1.435  0.0845 -0.3845  0.1452
 7173TIP3    H142934   1.460   5.057   1.403 -1.7788 -1.7754 -0.6246
 7173TIP3    H242935   1.472   4.966   1.523 -0.3557 -0.9459 -0.1147
 7174TIP3   OH242936   0.620   5.681  15.198  0.3842 -0.0894 -0.2110
 7174TIP3    H142937   0.570   5.689  15.279 -1.2446  0.5534 -1.2343
 7174TIP3    H242938   0.709   5.664  15.227 -0.0528  0.6449  1.7330
 7175TIP3   OH242939   0.833   4.549  13.197  0.0046 -0.4522  0.6174
 7175TIP3    H142940   0.830   4.562  13.292  2.9188 -1.2607  0.9181
 7175TIP3    H242941   0.833   4.454  13.185  3.7437 -0.5788  0.2298
 7176TIP3   OH242942   5.939   4.818   2.628 -0.1754 -0.6963  0.2311
 7176TIP3    H142943   5.844   4.823   2.634 -0.1835 -0.1498 -0.2640
 7176TIP3    H242944   5.956   4.748   2.566 -0.3479  1.1333 -2.0216
 7177TIP3   OH242945   1.849   2.696   2.276  0.0766  0.1718  0.3818
 7177TIP3    H142946   1.800   2.627   2.231  0.6079  0.1470 -0.1774
 7177TIP3    H242947   1.820   2.690   2.367  1.8273 -2.4284  0.8998
 7178TIP3   OH242948   1.352   0.070  12.922  0.3067 -0.3964  0.0063
 7178TIP3    H142949   1.430   0.016  12.929  0.8434  0.1713 -1.2622
 7178TIP3    H242950   1.306   0.036  12.846  0.8622  1.1491 -1.0728
 7179TIP3   OH242951   3.926   3.334  12.528  0.3531 -0.2764  0.2620
 7179TIP3    H142952   3.941   3.428  12.514 -1.3126  0.1907  1.3239
 7179TIP3    H242953   3.932   3.322  12.623  0.2987 -1.2068  0.1594
 7180TIP3   OH242954   0.629   1.912   6.126  0.1431  0.4821  0.5095
 7180TIP3    H142955   0.644   1.842   6.190  1.1243  1.0775  0.9655
 7180TIP3    H242956   0.713   1.923   6.082 -0.0670  1.1866  0.2675
 7181TIP3   OH242957   3.365   5.290  15.152  0.5798  0.1855  0.1773
 7181TIP3    H142958   3.358   5.385  15.152  1.4724  0.2633 -0.6802
 7181TIP3    H242959   3.447   5.272  15.199  0.3639 -0.1621  0.4247
 7182TIP3   OH242960   5.704   5.370   0.909 -0.4108  0.5772 -0.0288
 7182TIP3    H142961   5.688   5.282   0.942 -0.1676  0.3078 -0.6163
 7182TIP3    H242962   5.641   5.425   0.956 -3.9955 -0.5568 -3.0035
 7183TIP3   OH242963   0.226   1.037   5.621  0.2005  0.4596 -0.1312
 7183TIP3    H142964   0.256   1.007   5.535 -2.9723  1.7985 -1.8911
 7183TIP3    H242965   0.264   1.124   5.630  0.8940  0.1454  0.0722
 7184TIP3   OH242966   2.569   2.361  12.715 -0.7608 -0.4820 -0.7492
 7184TIP3    H142967   2.480   2.396  12.724 -0.7898 -1.0111  1.4821
 7184TIP3    H242968   2.600   2.351  12.805  0.7570 -2.3734 -1.4268
 7185TIP3   OH242969   3.960   4.019   2.853  0.5966 -0.3656 -0.5315
 7185TIP3    H142970   3.956   4.101   2.804 -0.3543 -0.0445  0.0537
 7185TIP3    H242971   3.950   3.951   2.787 -0.6594  0.0537 -0.7949
 7186TIP3   OH242972   1.951   1.708  10.445  0.2267 -0.1403  0.0099
 7186TIP3    H142973   1.882   1.645  10.466 -0.6654  0.8340  0.0765
 7186TIP3    H242974   2.030   1.671  10.485 -0.2608 -1.2392 -0.0044
 7187TIP3   OH242975   2.386   0.646   5.409  0.2343 -0.1835 -0.5800
 7187TIP3    H142976   2.359   0.556   5.392  1.6140 -0.4779 -1.3995
 7187TIP3    H242977   2.475   0.639   5.443 -0.9439  0.6771  3.1340
 7188TIP3   OH242978   2.030   4.888   0.968 -0.0434  0.2462  0.3596
 7188TIP3    H142979   1.978   4.815   1.002  0.9887 -0.9791 -0.6208
 7188TIP3    H242980   1.984   4.916   0.889  0.1416 -0.0562  0.1439
 7189TIP3   OH242981   5.234   5.177   2.420  0.1216 -0.3051  0.0964
 7189TIP3    H142982   5.257   5.266   2.396 -2.7404 -0.0110 -2.0323
 7189TIP3    H242983   5.170   5.187   2.491 -2.0990 -0.4249 -1.7845
 7190TIP3   OH242984   2.736   3.697  14.314 -0.5802  0.9057  0.0878
 7190TIP3    H142985   2.788   3.741  14.381 -0.1951  1.4483 -0.5535
 7190TIP3    H242986   2.660   3.663  14.361 -0.5558  1.6886  0.7181
 7191TIP3   OH242987   6.311   4.695  16.869  0.2551 -0.0985  0.3321
 7191TIP3    H142988   6.405   4.691  16.886  0.0288 -0.6216  1.5417
 7191TIP3    H242989   6.303   4.757  16.797  1.6108 -0.8331 -0.5110
 7192TIP3   OH242990   5.775   2.352   3.745 -0.3538 -0.1015  0.6025
 7192TIP3    H142991   5.848   2.415   3.739  0.4617 -1.0430  0.3538
 7192TIP3    H242992   5.790   2.306   3.827 -0.1677 -0.8968  0.1299
 7193TIP3   OH242993   4.373   4.839  12.917 -0.7425 -0.2393 -0.0893
 7193TIP3    H142994   4.411   4.762  12.874 -0.8677 -0.7946  0.7839
 7193TIP3    H242995   4.347   4.808  13.004 -1.8456  0.5059 -0.1406
 7194TIP3   OH242996   4.620   4.241   4.728 -0.0060 -0.1891 -0.3959
 7194TIP3    H142997   4.565   4.234   4.806  0.3693  0.3315 -0.0857
 7194TIP3    H242998   4.692   4.180   4.743 -1.2477 -2.0622 -1.4674
 7195TIP3   OH242999   1.583   0.127   2.808 -0.2735  0.1302 -0.7977
 7195TIP3    H143000   1.621   0.056   2.756  1.7472 -0.1310  0.9311
 7195TIP3    H243001   1.607   0.207   2.761  2.0738 -0.0637 -0.0556
 7196TIP3   OH243002   0.932   3.384  12.074 -0.5611 -0.5832  0.2624
 7196TIP3    H143003   0.971   3.430  11.999 -0.1163 -1.4919 -0.0733
 7196TIP3    H243004   0.871   3.448  12.112 -2.4871 -0.8017 -2.1834
 7197TIP3   OH243005   6.546   0.693   0.069  0.4385 -0.1433  0.6204
 7197TIP3    H143006   6.634   0.670   0.041  1.0732  1.0491  1.5733
 7197TIP3    H243007   6.557   0.731   0.156 -1.1349 -0.9116  1.1991
 7198TIP3   OH243008   3.674   3.211   0.561  0.1333  0.0087  0.1156
 7198TIP3    H143009   3.603   3.184   0.503 -2.3396  2.3829  1.7835
 7198TIP3    H243010   3.669   3.307   0.561  2.0019  0.1818  1.9205
 7199TIP3   OH243011   3.749   0.134   2.140 -0.1672  0.3588 -0.1566
 7199TIP3    H143012   3.705   0.181   2.211 -2.6411  0.4641 -1.6476
 7199TIP3    H243013   3.754   0.197   2.069  0.7229 -0.2627 -0.6594
 7200TIP3   OH243014   5.650   1.989   0.063 -0.6042  0.4217  0.3388
 7200TIP3    H143015   5.637   1.923   0.130  0.6287  0.7911  0.9774
 7200TIP3    H243016   5.745   2.003   0.061 -0.5104 -0.1253 -2.0011
 7201TIP3   OH243017   2.571   5.825  12.478  0.1794 -0.7536 -0.4749
 7201TIP3    H143018   2.574   5.732  12.453  0.7798 -0.7597 -0.3933
 7201TIP3    H243019   2.600   5.872  12.400  3.5714 -0.8547  0.5852
 7202TIP3   OH243020   0.579   2.559   0.058  0.0459 -0.5717  0.2152
 7202TIP3    H143021   0.490   2.558   0.022  0.5605 -1.3219 -1.0977
 7202TIP3    H243022   0.636   2.568  -0.018  1.1585 -1.5664  0.8974
 7203TIP3   OH243023   2.742   5.932  15.833  0.1515  0.0735  0.1883
 7203TIP3    H143024   2.713   5.853  15.878 -0.7676 -0.3102 -1.0429
 7203TIP3    H243025   2.822   5.905  15.787  0.3067  0.0919  0.4447
 7204TIP3   OH243026   2.324   1.681   3.594 -0.3977  0.4548 -0.0321
 7204TIP3    H143027   2.374   1.627   3.656 -2.5910 -1.7664 -0.0459
 7204TIP3    H243028   2.390   1.722   3.539  1.5231  0.5690  2.2206
 7205TIP3   OH243029   5.371   1.914  15.596 -0.5028 -0.4204 -0.0840
 7205TIP3    H143030   5.427   1.902  15.519  1.0654 -0.6125  1.0270
 7205TIP3    H243031   5.287   1.943  15.561  0.2624 -0.1971 -1.8303
 7206TIP3   OH243032   4.375   3.348   2.539  0.1465  0.1297  0.0142
 7206TIP3    H143033   4.373   3.369   2.632 -0.5957  1.4774 -0.2712
 7206TIP3    H243034   4.365   3.253   2.535 -3.9112  0.2986  1.2613
 7207TIP3   OH243035   3.562   3.355   4.608 -0.3247  0.0022 -0.1342
 7207TIP3    H143036   3.654   3.376   4.598 -0.6934  2.0640  0.3100
 7207TIP3    H243037   3.535   3.319   4.524  1.0438 -1.4660  0.0091
 7208TIP3   OH243038   5.685   3.718  14.723  0.1251  0.1137 -0.1111
 7208TIP3    H143039   5.601   3.676  14.703  0.2167 -0.2338  0.2185
 7208TIP3    H243040   5.700   3.777  14.650 -0.2851 -0.0107 -0.3000
 7209TIP3   OH243041   2.786   3.621   2.460  0.1726 -0.2940  0.8145
 7209TIP3    H143042   2.877   3.609   2.486 -0.1604 -2.8516  1.0691
 7209TIP3    H243043   2.774   3.561   2.386 -1.3142 -0.0456  0.8207
 7210TIP3   OH243044   5.910   5.721   5.466  0.0552 -0.4311 -0.2837
 7210TIP3    H143045   5.886   5.810   5.491  0.7030 -0.0728 -0.9110
 7210TIP3    H243046   6.005   5.721   5.466  0.0628 -0.8978 -1.0745
 7211TIP3   OH243047   3.005   0.945  11.016  0.3137 -0.5624 -0.0606
 7211TIP3    H143048   2.914   0.921  10.996 -0.2676  1.8263 -0.5780
 7211TIP3    H243049   3.056   0.903  10.947 -0.8995  1.3922 -2.3028
 7212TIP3   OH243050   0.357   3.868  12.123 -0.0917  0.4729  1.0517
 7212TIP3    H143051   0.358   3.772  12.124  0.2552  0.4424 -0.1596
 7212TIP3    H243052   0.426   3.893  12.184  0.1573 -0.0683  1.0004
 7213TIP3   OH243053   3.179   6.734  15.003  0.4660 -0.1500  0.2332
 7213TIP3    H143054   3.229   6.706  14.927  2.5022  0.7867  1.1534
 7213TIP3    H243055   3.088   6.738  14.972  1.0021 -1.3288 -1.6690
 7214TIP3   OH243056   0.850   0.742  16.872  0.0181  0.1093 -0.1466
 7214TIP3    H143057   0.852   0.651  16.901  1.4734  0.7097  1.8071
 7214TIP3    H243058   0.759   0.756  16.846 -0.4957 -1.5817  0.5697
 7215TIP3   OH243059   2.720   4.952  15.760  0.2545 -0.2118 -0.1995
 7215TIP3    H143060   2.735   4.859  15.743 -3.6955 -0.8689 -1.1343
 7215TIP3    H243061   2.756   4.997  15.683  2.0314 -0.9141  0.1746
 7216TIP3   OH243062   3.220   0.311  14.256  0.1196 -0.0101  0.4509
 7216TIP3    H143063   3.237   0.316  14.162 -0.2899  0.0555  0.3794
 7216TIP3    H243064   3.131   0.277  14.262  0.5130 -0.9997  0.8314
 7217TIP3   OH243065   2.787   2.537   1.306  0.3154 -0.4657 -0.0216
 7217TIP3    H143066   2.698   2.572   1.314 -0.2508 -1.7710 -0.3089
 7217TIP3    H243067   2.792   2.466   1.370  0.3825 -1.8473 -1.4793
 7218TIP3   OH243068   4.606   5.752   5.321 -0.4044 -0.2534  0.9070
 7218TIP3    H143069   4.660   5.821   5.283 -0.8270  0.6250  1.8490
 7218TIP3    H243070   4.647   5.734   5.406 -1.1058 -0.1687  1.2681
 7219TIP3   OH243071   1.921   4.081   5.351 -0.4425  0.9505 -0.7540
 7219TIP3    H143072   1.910   4.079   5.256 -0.1070 -0.8582 -0.8040
 7219TIP3    H243073   1.834   4.062   5.386 -1.0585  3.6856 -0.5743
 7220TIP3   OH243074   6.103   5.934   1.230 -0.0221  0.3071  0.1469
 7220TIP3    H143075   6.132   6.025   1.232 -0.8553  0.5889 -0.0781
 7220TIP3    H243076   6.177   5.884   1.265  0.0044  1.1790  1.3756
 7221TIP3   OH243077   5.704   2.580  11.409  0.2097  0.3873 -0.0663
 7221TIP3    H143078   5.620   2.539  11.392 -0.8431  1.8692  1.2872
 7221TIP3    H243079   5.740   2.534  11.484  0.8282 -0.5132 -0.8937
 7222TIP3   OH243080   1.722   2.276  15.599 -0.4745 -0.5449 -0.2931
 7222TIP3    H143081   1.810   2.313  15.594 -1.0715  0.8935 -0.6934
 7222TIP3    H243082   1.704   2.270  15.693 -0.0960 -0.4860 -0.2143
 7223TIP3   OH243083   4.657   2.274  13.448  0.0716 -0.2160  0.1365
 7223TIP3    H143084   4.601   2.197  13.455  0.5384 -0.6862 -1.0783
 7223TIP3    H243085   4.690   2.272  13.359  1.0988  0.7021  0.4729
 7224TIP3   OH243086   5.421   4.490   6.336 -0.2552 -0.6859  0.1640
 7224TIP3    H143087   5.499   4.439   6.315  0.5399  0.9522 -1.0264
 7224TIP3    H243088   5.434   4.518   6.426  1.2551  0.7608 -0.4660
 7225TIP3   OH243089   5.827   4.788   0.662  0.6468  1.1300 -0.0204
 7225TIP3    H143090   5.802   4.811   0.573 -1.6227 -0.7737  0.0406
 7225TIP3    H243091   5.900   4.727   0.651  0.9491  1.5733 -0.5231
 7226TIP3   OH243092   6.603   5.768  12.998 -0.6660 -0.3454 -0.0862
 7226TIP3    H143093   6.561   5.800  12.918  0.1272 -1.8648 -1.1488
 7226TIP3    H243094   6.606   5.673  12.988  0.3965 -0.4948  1.2878
 7227TIP3   OH243095   4.851   2.745  17.170  0.6718  0.4723 -0.0665
 7227TIP3    H143096   4.823   2.830  17.136 -3.1999 -1.7510 -3.3577
 7227TIP3    H243097   4.801   2.734  17.251  0.0692  0.7018 -0.4081
 7228TIP3   OH243098   4.401   5.957   3.846 -0.4171  0.3491  0.7569
 7228TIP3    H143099   4.421   5.937   3.754  0.3568 -0.6399  1.1230
 7228TIP3    H243100   4.312   5.924   3.859 -0.6845  0.8556  0.2672
 7229TIP3   OH243101   2.419   5.665   2.685  0.6270  0.0959  0.4771
 7229TIP3    H143102   2.510   5.642   2.666  0.9236  0.8829  0.8951
 7229TIP3    H243103   2.396   5.730   2.619  0.1563 -0.5649 -0.0170
 7230TIP3   OH243104   5.362   0.442  16.335 -0.0176  0.4997  0.0557
 7230TIP3    H143105   5.389   0.419  16.424 -2.5165 -1.4277  0.4172
 7230TIP3    H243106   5.398   0.372  16.280 -2.1244 -0.7892  0.2281
 7231TIP3   OH243107   5.036   0.422  13.236 -0.5618 -0.2848  0.5921
 7231TIP3    H143108   5.095   0.389  13.304  0.8132  1.3408  0.2462
 7231TIP3    H243109   4.951   0.429  13.280 -0.4499 -2.2256  1.2239
 7232TIP3   OH243110   0.563   3.007  10.785  0.8819  0.2287 -0.4404
 7232TIP3    H143111   0.627   3.034  10.719 -1.4843  0.9740 -2.5820
 7232TIP3    H243112   0.497   3.076  10.783 -0.1960 -0.6897  1.4098
 7233TIP3   OH243113   4.858   6.192  16.835 -0.2304 -0.0213  0.2542
 7233TIP3    H143114   4.950   6.199  16.810  0.4485 -2.7784  1.6878
 7233TIP3    H243115   4.856   6.217  16.928 -0.8054 -0.6726  0.4225
 7234TIP3   OH243116   2.596   6.128  12.029  0.1912  0.1281  0.2071
 7234TIP3    H143117   2.548   6.201  11.990 -0.7741 -0.0879  0.9546
 7234TIP3    H243118   2.616   6.070  11.956  2.3998  1.8634 -0.6910
 7235TIP3   OH243119   2.003   5.535  16.775  0.9391  0.6069 -0.0509
 7235TIP3    H143120   2.089   5.531  16.817  2.0852 -0.3586 -2.3166
 7235TIP3    H243121   1.961   5.452  16.797  0.5055  1.0979  1.0932
 7236TIP3   OH243122   1.938   5.602   5.841  0.3382 -0.0605 -0.2293
 7236TIP3    H143123   2.016   5.585   5.894 -0.4334  0.0717  0.9928
 7236TIP3    H243124   1.877   5.645   5.902 -1.6592 -2.4124 -0.4342
 7237TIP3   OH243125   6.295   4.742  10.751  0.1830 -0.2529 -0.5255
 7237TIP3    H143126   6.273   4.672  10.812 -0.8328 -0.7218 -1.3987
 7237TIP3    H243127   6.297   4.700  10.666 -2.1530  1.0339 -1.3123
 7238TIP3   OH243128   3.633   1.739  13.669 -0.3728 -0.0229  0.3794
 7238TIP3    H143129   3.615   1.695  13.586 -1.3904 -0.4848  0.8291
 7238TIP3    H243130   3.600   1.828  13.656 -1.4309 -0.3644  0.5899
 7239TIP3   OH243131   5.504   0.833  16.661 -0.0281 -0.0554  0.4184
 7239TIP3    H143132   5.468   0.896  16.724  0.2822 -0.2582  0.7969
 7239TIP3    H243133   5.577   0.792  16.706  0.4187  0.0428 -0.1959
 7240TIP3   OH243134   2.089   0.388   2.031 -0.0954  0.0974  0.0512
 7240TIP3    H143135   2.073   0.408   1.939  2.1944 -0.2294 -0.4752
 7240TIP3    H243136   2.114   0.472   2.071 -1.1764  0.2578  0.4295
 7241TIP3   OH243137   5.547   0.548  15.266  0.3332  0.0562  0.6068
 7241TIP3    H143138   5.598   0.629  15.268  1.5062 -0.4311 -3.0215
 7241TIP3    H243139   5.465   0.570  15.312  1.0040  2.9664  0.5917
 7242TIP3   OH243140   2.335   6.001   4.680 -0.7465  0.0201  0.0913
 7242TIP3    H143141   2.353   5.979   4.589  0.1303 -1.4815  0.5850
 7242TIP3    H243142   2.276   6.076   4.676 -1.7341 -0.8071 -1.7234
 7243TIP3   OH243143   0.832   2.294  11.844  0.2314  0.0706 -0.1360
 7243TIP3    H143144   0.858   2.365  11.904  1.2144 -0.4060  0.0254
 7243TIP3    H243145   0.750   2.262  11.880  0.3918  0.3412  0.4933
 7244TIP3   OH243146   1.752   1.593   4.972  0.0956  0.4584  0.5586
 7244TIP3    H143147   1.704   1.515   4.999  0.6069  0.3919  1.2929
 7244TIP3    H243148   1.693   1.637   4.911 -0.4287 -0.2056  0.5729
 7245TIP3   OH243149   1.507   2.170   2.298  0.1655 -0.4046  0.5230
 7245TIP3    H143150   1.438   2.133   2.243 -0.9027 -0.4858  1.8650
 7245TIP3    H243151   1.570   2.099   2.308  1.5819  0.3084 -2.4396
 7246TIP3   OH243152   0.103   1.520  12.794 -0.2886 -0.2185 -0.4453
 7246TIP3    H143153   0.058   1.468  12.727  1.1739 -1.3231 -0.6295
 7246TIP3    H243154   0.036   1.540  12.859 -1.1397 -1.4446 -0.9146
 7247TIP3   OH243155   2.609   3.426   6.019  0.0284 -0.4838 -0.1800
 7247TIP3    H143156   2.549   3.437   6.093  0.9729  1.1109  0.4132
 7247TIP3    H243157   2.696   3.420   6.060  0.5053 -0.2679 -1.1268
 7248TIP3   OH243158   5.533   5.819  12.432 -0.0218 -0.6322  0.3846
 7248TIP3    H143159   5.561   5.729  12.446 -2.1806 -1.2261  1.3530
 7248TIP3    H243160   5.517   5.853  12.520 -1.1136  0.0223 -0.0451
 7249TIP3   OH243161   0.810   1.689   4.483  0.0363 -0.8769 -0.4314
 7249TIP3    H143162   0.733   1.745   4.475  0.7917  0.1041 -1.0017
 7249TIP3    H243163   0.820   1.676   4.578  0.0602  0.2725 -0.2636
 7250TIP3   OH243164   0.986   2.312   4.923  0.0434 -0.0286  0.2836
 7250TIP3    H143165   1.030   2.258   4.989 -0.5343 -1.0473 -0.1411
 7250TIP3    H243166   1.050   2.320   4.852 -0.3985 -1.4369 -0.2964
 7251TIP3   OH243167   0.565   2.353   0.334  0.2021 -0.1873 -0.3392
 7251TIP3    H143168   0.548   2.447   0.338  0.0826 -0.2230  0.0367
 7251TIP3    H243169   0.480   2.312   0.349  0.3504 -0.3570  0.0576
 7252TIP3   OH243170   5.631   1.106  12.767  0.1659  0.2974 -0.0990
 7252TIP3    H143171   5.619   1.033  12.707 -0.5760 -0.3065  0.7458
 7252TIP3    H243172   5.630   1.184  12.711  0.1171 -0.2887 -0.9249
 7253TIP3   OH243173   3.620   1.115  11.380  0.5471 -0.4625  0.0466
 7253TIP3    H143174   3.542   1.123  11.325  1.0160 -0.2970 -0.5996
 7253TIP3    H243175   3.591   1.148  11.466 -0.4380 -1.5579  0.1682
 7254TIP3   OH243176   6.559   2.559  11.943  0.0661  0.2080  0.0289
 7254TIP3    H143177   6.567   2.649  11.912  1.6471  0.6217  1.4589
 7254TIP3    H243178   6.636   2.546  11.999  0.1019 -2.1743 -0.4617
 7255TIP3   OH243179   2.365   5.471  14.385 -0.0409  0.4084  0.4800
 7255TIP3    H143180   2.337   5.388  14.348  0.0879  0.9301 -0.8418
 7255TIP3    H243181   2.460   5.472  14.372 -0.3415  2.1273 -2.6021
 7256TIP3   OH243182   6.683   4.299   0.622  0.3355  0.2797  0.0042
 7256TIP3    H143183   6.635   4.363   0.674  1.2324  0.1480  1.0133
 7256TIP3    H243184   6.749   4.263   0.682  0.4823 -0.8824 -0.8173
 7257TIP3   OH243185   1.171   1.225   5.422  1.0685  0.0824  0.2411
 7257TIP3    H143186   1.228   1.273   5.483  0.9701 -0.3141  0.6516
 7257TIP3    H243187   1.177   1.134   5.451  1.9590 -0.3064 -1.0724
 7258TIP3   OH243188   4.349   2.729  14.463  0.0898  0.2559 -0.3234
 7258TIP3    H143189   4.339   2.719  14.558  1.3884  0.1095 -0.1813
 7258TIP3    H243190   4.288   2.800  14.440  2.1769  2.7525  1.2066
 7259TIP3   OH243191   4.079   0.929   6.421  0.7053 -0.9575  0.4197
 7259TIP3    H143192   4.027   0.957   6.496  1.3339  3.9743 -0.6143
 7259TIP3    H243193   4.020   0.875   6.369 -2.4435  1.7956  0.8366
 7260TIP3   OH243194   0.941   1.003   4.349  0.1371 -0.4247 -0.0108
 7260TIP3    H143195   0.940   0.946   4.273  1.7506 -0.8611  0.2536
 7260TIP3    H243196   0.889   0.957   4.415  0.9278 -1.3258  0.0018
 7261TIP3   OH243197   4.967   0.894  15.164 -0.2618 -0.3471  0.0921
 7261TIP3    H143198   4.879   0.857  15.156  0.5554 -2.4514  0.0715
 7261TIP3    H243199   5.025   0.822  15.137  1.4398  1.2526 -0.7595
 7262TIP3   OH243200   6.097   3.556  16.897  0.2251 -0.0314 -0.0996
 7262TIP3    H143201   6.124   3.605  16.975  1.0617  0.3355 -0.6087
 7262TIP3    H243202   6.004   3.539  16.910  0.1528  0.8205  0.5481
 7263TIP3   OH243203   2.550   1.874   2.989 -0.4820 -0.1802  0.0325
 7263TIP3    H143204   2.504   1.892   3.071 -0.6526  1.3665 -0.3749
 7263TIP3    H243205   2.509   1.794   2.955 -1.0061 -0.3383  0.9995
 7264TIP3   OH243206   6.778   4.745   0.442  0.0759  0.0802 -0.2976
 7264TIP3    H143207   6.776   4.651   0.423  0.7857 -0.0683  0.3622
 7264TIP3    H243208   6.866   4.762   0.473  0.1256  1.0813 -0.9515
 7265TIP3   OH243209   4.300   6.205  13.514  0.6150 -0.5680  0.1334
 7265TIP3    H143210   4.256   6.120  13.514 -1.2407  0.2974 -1.4530
 7265TIP3    H243211   4.281   6.242  13.601 -0.7307 -0.7861 -0.0405
 7266TIP3   OH243212   4.164   3.585   5.352 -0.2104 -0.3752  0.3673
 7266TIP3    H143213   4.169   3.634   5.270 -1.2781 -1.2061 -0.2184
 7266TIP3    H243214   4.108   3.638   5.408 -0.8621 -0.6035 -0.0512
 7267TIP3   OH243215   5.490   0.649   3.902  0.0642 -0.1411  0.2406
 7267TIP3    H143216   5.565   0.649   3.962 -0.3467 -0.0882  0.7672
 7267TIP3    H243217   5.505   0.724   3.845  0.2200  0.1042  0.5969
 7268TIP3   OH243218   0.690   2.090  16.629 -0.1660 -0.2626  0.1847
 7268TIP3    H143219   0.642   2.120  16.552  0.0652 -1.4490 -0.4510
 7268TIP3    H243220   0.660   2.000  16.642 -1.8937  0.6152  2.8691
 7269TIP3   OH243221   6.713   1.636  13.002 -0.2560 -0.3065 -0.3164
 7269TIP3    H143222   6.666   1.695  12.943 -0.1044  0.2853  0.1390
 7269TIP3    H243223   6.722   1.686  13.083 -0.1650 -0.9816  0.0962
 7270TIP3   OH243224   2.546   1.518  17.044  0.6424  0.0775  0.1056
 7270TIP3    H143225   2.531   1.434  17.088  1.0565 -0.8670 -1.4563
 7270TIP3    H243226   2.489   1.516  16.968 -0.1523  1.7278  0.6139
 7271TIP3   OH243227   0.499   6.468   3.832  0.3832 -0.8875  0.1823
 7271TIP3    H143228   0.503   6.373   3.844  1.4097 -0.7898  0.6727
 7271TIP3    H243229   0.512   6.504   3.919  0.1402 -0.2859 -0.0251
 7272TIP3   OH243230   3.570   5.620  13.362 -0.8362  0.4510  0.6072
 7272TIP3    H143231   3.543   5.711  13.359 -0.1162  0.6556  0.1431
 7272TIP3    H243232   3.642   5.613  13.299 -0.6995 -0.3725  0.8301
 7273TIP3   OH243233   3.099   0.964   3.787  0.6705 -0.0522  0.2382
 7273TIP3    H143234   3.168   0.904   3.815 -0.9180 -2.1448 -0.0561
 7273TIP3    H243235   3.017   0.918   3.807 -0.6261  1.7151 -0.6860
 7274TIP3   OH243236   4.972   6.459   3.855  0.4935 -0.3184  0.4375
 7274TIP3    H143237   4.987   6.439   3.948  1.2418 -1.7858  0.0267
 7274TIP3    H243238   5.058   6.480   3.820  0.1808  0.4520  0.1138
 7275TIP3   OH243239   0.020   6.502  12.119 -0.1574 -0.0588  0.2513
 7275TIP3    H143240  -0.031   6.472  12.193 -0.0382 -0.3742  0.2098
 7275TIP3    H243241   0.023   6.597  12.127  0.7670 -0.1537  1.2584
 7276TIP3   OH243242   2.657   4.958  14.826  0.1259 -0.2199  0.2702
 7276TIP3    H143243   2.695   4.875  14.853  1.9683  0.6167  0.3881
 7276TIP3    H243244   2.564   4.938  14.811  0.4716 -2.2193  0.5123
 7277TIP3   OH243245   1.327   1.463  16.649 -0.3467 -0.6799 -0.1414
 7277TIP3    H143246   1.304   1.412  16.572  2.5413 -1.9662 -0.2734
 7277TIP3    H243247   1.346   1.398  16.717 -0.5328  0.3700  0.9598
 7278TIP3   OH243248   1.940   6.159   1.746 -0.1598 -0.1327  0.1251
 7278TIP3    H143249   1.969   6.180   1.657 -1.0509  1.0785  0.0820
 7278TIP3    H243250   2.021   6.147   1.795  0.3672  0.3264 -0.6010
 7279TIP3   OH243251   4.304   1.046  15.698  0.9234  0.4942  0.4131
 7279TIP3    H143252   4.226   1.053  15.752  0.6457 -1.1219  0.2856
 7279TIP3    H243253   4.304   1.124  15.644 -0.4591  0.6441  0.6056
 7280TIP3   OH243254   4.762   2.204  11.501 -0.1354 -0.2656  0.0410
 7280TIP3    H143255   4.751   2.141  11.430  0.7464 -2.2739  1.5780
 7280TIP3    H243256   4.734   2.156  11.579  2.8707  0.3272  1.6278
 7281TIP3   OH243257   4.446   2.115   3.000 -0.3424  0.5398 -0.0942
 7281TIP3    H143258   4.379   2.170   2.959 -1.1187 -0.5006 -0.2629
 7281TIP3    H243259   4.402   2.077   3.077  0.2991  0.4374  0.2302
 7282TIP3   OH243260   0.883   5.794  16.307  0.2027 -0.1199 -0.0291
 7282TIP3    H143261   0.800   5.758  16.276 -0.5727  0.8299  0.8722
 7282TIP3    H243262   0.894   5.876  16.259 -0.5305  0.8761  1.4040
 7283TIP3   OH243263   4.825   0.223   1.743 -0.0704  0.1776 -0.5117
 7283TIP3    H143264   4.801   0.149   1.798 -1.3256  1.3757  0.6477
 7283TIP3    H243265   4.897   0.266   1.790  0.6085 -0.2401 -1.1441
 7284TIP3   OH243266   4.657   5.532  15.088  0.0169 -0.2774  0.4715
 7284TIP3    H143267   4.700   5.461  15.136  2.5943 -0.1179 -1.3652
 7284TIP3    H243268   4.707   5.610  15.111  0.0249  0.1435 -0.8644
 7285TIP3   OH243269   0.990   5.516  16.580 -0.2545  0.8013 -0.6922
 7285TIP3    H143270   0.951   5.466  16.652 -0.1172  0.1951 -1.0330
 7285TIP3    H243271   0.946   5.601  16.583 -0.2422  0.7801  0.1117
 7286TIP3   OH243272   6.177   5.182  12.311  0.3304 -0.2493 -0.2735
 7286TIP3    H143273   6.197   5.131  12.390  2.9484  0.7416 -0.1956
 7286TIP3    H243274   6.252   5.240  12.301 -0.4191  0.3769 -2.9563
 7287TIP3   OH243275   0.888   0.135   5.620 -0.0578 -0.4302  0.1932
 7287TIP3    H143276   0.896   0.042   5.596  1.3650 -0.0960 -0.6880
 7287TIP3    H243277   0.977   0.164   5.636 -0.4100  0.9944 -0.3065
 7288TIP3   OH243278   0.862   2.710   0.309 -0.2700  0.0835  1.3119
 7288TIP3    H143279   0.801   2.748   0.245  0.1180 -0.1720  0.7741
 7288TIP3    H243280   0.865   2.617   0.286  0.1297  0.0521  1.4912
 7289TIP3   OH243281   4.702   5.108   5.079 -0.0890 -0.0130 -0.4376
 7289TIP3    H143282   4.788   5.093   5.116 -0.4459 -1.3026 -0.0844
 7289TIP3    H243283   4.707   5.071   4.990 -0.5346 -0.9233 -0.0934
 7290TIP3   OH243284   5.637   3.822  12.951  0.0625 -0.5955 -0.5401
 7290TIP3    H143285   5.699   3.781  13.012  1.0187 -0.6450 -1.5116
 7290TIP3    H243286   5.591   3.748  12.911  0.2331 -0.6160 -0.6984
 7291TIP3   OH243287   4.848   2.114   3.340  0.0504 -1.0768  0.7980
 7291TIP3    H143288   4.822   2.033   3.383  0.9646 -0.6528  2.2144
 7291TIP3    H243289   4.944   2.113   3.342  0.0761  0.2560  1.2783
 7292TIP3   OH243290   4.198   0.555   0.822 -0.1307  0.1048  0.4206
 7292TIP3    H143291   4.118   0.587   0.780  1.7451  3.5604 -0.9260
 7292TIP3    H243292   4.227   0.482   0.767 -0.8446  0.6920 -0.7764
 7293TIP3   OH243293   0.833   3.974  11.759  0.3166  0.5443 -0.0298
 7293TIP3    H143294   0.905   3.967  11.822  0.2405  1.2794  0.1417
 7293TIP3    H243295   0.872   3.952  11.675  0.3881 -0.5967  0.2771
 7294TIP3   OH243296   3.634   0.192   3.237 -0.3756 -0.2897  0.2980
 7294TIP3    H143297   3.541   0.217   3.234 -0.4076 -0.4265  0.1407
 7294TIP3    H243298   3.680   0.275   3.253 -0.5596 -0.3052  0.9052
 7295TIP3   OH243299   5.851   1.138   4.482 -0.7046 -0.0281  0.7316
 7295TIP3    H143300   5.902   1.128   4.402 -3.3959 -0.5438 -1.0598
 7295TIP3    H243301   5.878   1.065   4.538  0.6793 -0.1068 -0.0047
 7296TIP3   OH243302   5.154   1.523   3.791  0.2717 -0.3511 -0.5931
 7296TIP3    H143303   5.076   1.491   3.836  0.6653 -1.9493 -1.0036
 7296TIP3    H243304   5.220   1.532   3.859  0.9185 -2.9219 -0.8103
 7297TIP3   OH243305   4.703   5.615  12.049 -0.4023 -0.1478 -0.0644
 7297TIP3    H143306   4.765   5.596  11.979  0.9492 -1.2369  1.3676
 7297TIP3    H243307   4.642   5.679  12.010  2.1409  1.7298 -1.2555
 7298TIP3   OH243308   5.277   4.533  12.229  0.4616 -0.2374 -0.8889
 7298TIP3    H143309   5.359   4.500  12.191  0.7132 -0.0443 -0.5189
 7298TIP3    H243310   5.258   4.472  12.301 -0.8049 -1.4969 -2.2091
 7299TIP3   OH243311   3.379   3.953   0.648  0.7866 -0.6660  0.2162
 7299TIP3    H143312   3.379   3.973   0.742  1.3037 -1.3811  0.3867
 7299TIP3    H243313   3.395   4.037   0.605 -1.2322 -0.0055  0.6596
 7300TIP3   OH243314   6.336   0.007   0.755  0.6512  0.2998  0.0712
 7300TIP3    H143315   6.366  -0.064   0.698  2.4057  0.6562  0.4995
 7300TIP3    H243316   6.261   0.045   0.708  0.4302 -1.0608 -0.7249
 7301TIP3   OH243317   6.663   6.267  11.514 -0.2307  0.3230  0.0497
 7301TIP3    H143318   6.707   6.236  11.434  0.5424  1.3447  0.0501
 7301TIP3    H243319   6.572   6.241  11.503  0.3264 -1.7714 -0.0119
 7302TIP3   OH243320   1.638   0.522   1.286  0.3818  0.9122  0.6012
 7302TIP3    H143321   1.606   0.599   1.240  0.4217 -0.2886 -1.5609
 7302TIP3    H243322   1.627   0.543   1.379  0.7640  3.6517  0.1153
 7303TIP3   OH243323   3.545   1.650  17.003  0.4687 -0.4565 -0.4202
 7303TIP3    H143324   3.498   1.579  16.960  0.0137 -1.7575  2.0331
 7303TIP3    H243325   3.487   1.726  16.996 -0.3896 -1.1133 -0.5264
 7304TIP3   OH243326   4.908   0.465  13.943 -0.1039 -0.0419 -0.2850
 7304TIP3    H143327   4.815   0.480  13.962 -0.0282 -0.2176  0.2395
 7304TIP3    H243328   4.915   0.478  13.849 -0.6960 -0.1954 -0.3575
 7305TIP3   OH243329   0.020   2.317  14.557  0.3892  0.1886  0.4998
 7305TIP3    H143330  -0.001   2.403  14.521 -0.8570  0.5642  2.0217
 7305TIP3    H243331  -0.064   2.271  14.560  0.7903 -0.5236  1.1215
 7306TIP3   OH243332   4.732   5.571   0.661  0.2932 -0.3306 -0.4356
 7306TIP3    H143333   4.715   5.534   0.747 -1.0081  1.2682  0.0476
 7306TIP3    H243334   4.667   5.531   0.603 -1.4367  1.4167  0.1841
 7307TIP3   OH243335   2.071   4.386   6.265 -0.2012 -0.0604  0.0701
 7307TIP3    H143336   2.112   4.422   6.343 -1.5378  2.4817 -0.2854
 7307TIP3    H243337   2.004   4.326   6.298 -3.0518  3.4101  1.2455
 7308TIP3   OH243338   2.751   6.786   1.518 -0.2301 -0.6476 -0.0464
 7308TIP3    H143339   2.796   6.833   1.588 -3.7600  2.1581  0.6344
 7308TIP3    H243340   2.739   6.850   1.449 -1.4507 -1.8078 -0.9754
 7309TIP3   OH243341   0.788   5.263   6.028  0.2291  0.0188 -0.1695
 7309TIP3    H143342   0.818   5.262   5.937  1.9029  1.3353  0.2963
 7309TIP3    H243343   0.869   5.265   6.079 -0.6742  1.0278  1.2902
 7310TIP3   OH243344   4.821   4.698  15.556 -0.5962  0.4550  0.2070
 7310TIP3    H143345   4.808   4.650  15.638  0.8138  0.4506  0.4417
 7310TIP3    H243346   4.743   4.678  15.504  0.1234 -2.4634  0.0990
 7311TIP3   OH243347   2.112   2.050  15.185 -0.4101 -0.1818  0.1777
 7311TIP3    H143348   2.066   1.982  15.234  0.3321 -0.5101  0.4292
 7311TIP3    H243349   2.182   2.004  15.139 -1.3040  0.0663 -1.4949
 7312TIP3   OH243350   1.422   4.476   5.305  0.5638 -0.3494 -0.2226
 7312TIP3    H143351   1.399   4.526   5.226  1.6105 -1.5463 -1.3372
 7312TIP3    H243352   1.517   4.471   5.303  0.6044 -0.3352  1.1844
 7313TIP3   OH243353   3.596   6.587  14.065  0.2200 -0.1933  0.1939
 7313TIP3    H143354   3.548   6.586  14.147 -0.7923  0.9656 -0.3421
 7313TIP3    H243355   3.553   6.522  14.010  1.3194 -1.4508  0.7780
 7314TIP3   OH243356   4.965   0.804  13.889 -0.5856  0.2786  0.0542
 7314TIP3    H143357   4.907   0.856  13.835  0.3349  0.5695 -0.6736
 7314TIP3    H243358   4.959   0.715  13.854  1.9289  0.8880 -2.3072
 7315TIP3   OH243359   6.230   3.405   5.995 -0.2410 -0.2101  0.1892
 7315TIP3    H143360   6.245   3.407   5.901  0.0652 -1.8913  0.1694
 7315TIP3    H243361   6.143   3.444   6.006 -1.2459 -1.9337 -1.0452
 7316TIP3   OH243362   5.769   5.274  13.385 -0.3592 -0.3063  0.5281
 7316TIP3    H143363   5.790   5.182  13.371  0.6269 -0.1500  0.9462
 7316TIP3    H243364   5.845   5.322  13.352 -1.2782  0.4185 -0.6079
 7317TIP3   OH243365   2.639   4.563  11.073 -0.0567 -0.2812 -0.5336
 7317TIP3    H143366   2.721   4.608  11.054 -0.4437  0.1863 -1.1519
 7317TIP3    H243367   2.575   4.607  11.016 -0.4573 -1.5742 -1.1048
 7318TIP3   OH243368   4.379   5.826  12.905 -0.4165  0.2315 -0.2879
 7318TIP3    H143369   4.356   5.793  12.992 -1.1108 -0.2156 -0.6295
 7318TIP3    H243370   4.473   5.843  12.910 -0.3234 -0.4068  0.3532
 7319TIP3   OH243371   2.485   5.802   3.181 -0.3609 -0.7681  0.8775
 7319TIP3    H143372   2.558   5.788   3.242 -1.2259 -0.9183  1.9140
 7319TIP3    H243373   2.508   5.881   3.133  0.5684 -0.9176  1.0652
 7320TIP3   OH243374   6.010   5.470  12.886 -0.2724 -0.0144 -0.1913
 7320TIP3    H143375   6.076   5.538  12.901 -0.9484  0.3440  1.3450
 7320TIP3    H243376   6.026   5.407  12.956 -0.3196 -0.9384 -0.9921
 7321TIP3   OH243377   5.788   2.904  17.099 -0.0173  0.2536 -0.7250
 7321TIP3    H143378   5.791   2.926  17.006  0.1540 -1.1342 -1.0701
 7321TIP3    H243379   5.717   2.840  17.107 -1.0226  1.4497  0.3647
 7322TIP3   OH243380   0.069   4.714   5.254 -0.0442 -0.0002 -0.6116
 7322TIP3    H143381   0.132   4.782   5.278 -2.1043  2.1583 -0.9525
 7322TIP3    H243382   0.041   4.738   5.165 -1.7833 -0.4885 -0.2299
 7323TIP3   OH243383   6.180   4.681  11.105 -0.4406 -0.1206 -0.6529
 7323TIP3    H143384   6.166   4.770  11.072 -2.3147 -0.8683 -2.0856
 7323TIP3    H243385   6.225   4.636  11.034 -1.0225 -0.7380 -0.6455
 7324TIP3   OH243386   1.009   1.942  16.770  0.2519 -0.2608  0.1033
 7324TIP3    H143387   0.975   1.900  16.691 -2.1233  1.4856  0.0925
 7324TIP3    H243388   1.036   2.029  16.741  1.7338 -0.4583  0.7856
 7325TIP3   OH243389   5.740   3.379  13.950  0.5453 -0.2785  0.6051
 7325TIP3    H143390   5.828   3.414  13.963  1.0936 -0.4266 -2.1889
 7325TIP3    H243391   5.752   3.284  13.955  0.9369 -0.3821 -1.4569
 7326TIP3   OH243392   4.130   1.207  12.717 -0.4922 -0.0913 -0.0106
 7326TIP3    H143393   4.121   1.289  12.669  1.1705  0.0883 -0.0759
 7326TIP3    H243394   4.099   1.227  12.806  3.2204  1.7282  1.0410
 7327TIP3   OH243395   6.688   0.454   5.588 -0.4298 -0.1959  0.2899
 7327TIP3    H143396   6.686   0.490   5.677  0.5722 -0.9664  0.6432
 7327TIP3    H243397   6.776   0.473   5.557 -0.6059 -0.3988 -0.3474
 7328TIP3   OH243398   6.232   2.456   2.687  0.5823  0.0444  0.0387
 7328TIP3    H143399   6.176   2.503   2.750 -0.2482 -1.5781  0.5501
 7328TIP3    H243400   6.177   2.445   2.610 -0.4344 -2.8573  1.0644
 7329TIP3   OH243401   1.958   3.995  16.718 -0.0630  0.1569 -0.1930
 7329TIP3    H143402   1.944   3.967  16.809 -0.9930 -0.0119 -0.3810
 7329TIP3    H243403   1.979   3.914  16.671 -0.8166  0.0537 -0.3619
 7330TIP3   OH243404   6.302   5.949   4.957 -0.2227  0.1388 -0.1883
 7330TIP3    H143405   6.304   5.999   4.875 -0.3212 -0.9196 -0.8552
 7330TIP3    H243406   6.210   5.922   4.965 -0.4476  1.1235  0.8423
 7331TIP3   OH243407   3.013   3.184   2.008 -0.0217  0.0777  0.2281
 7331TIP3    H143408   2.922   3.212   2.013 -0.7265 -1.6280 -1.6134
 7331TIP3    H243409   3.032   3.147   2.094 -0.3414  2.3043  1.3248
 7332TIP3   OH243410   2.901   1.453   3.741 -0.1779  0.5364 -0.2098
 7332TIP3    H143411   2.845   1.385   3.778  0.4137  0.2881  0.2478
 7332TIP3    H243412   2.841   1.511   3.694 -1.0992  1.4167  1.9313
 7333TIP3   OH243413   2.096   5.872   4.784 -0.2450 -0.0373  0.2788
 7333TIP3    H143414   2.158   5.924   4.733  3.1006 -2.4286  1.5846
 7333TIP3    H243415   2.080   5.924   4.863 -1.1684  1.2599 -0.7229
 7334TIP3   OH243416   6.561   4.308  15.069 -0.3488 -0.0868 -0.1618
 7334TIP3    H143417   6.524   4.362  14.999  1.2825  0.1862 -0.8587
 7334TIP3    H243418   6.543   4.357  15.150 -1.2648  0.1447 -0.4941
 7335TIP3   OH243419   5.746   5.193   6.563 -0.1371 -0.3880  0.1763
 7335TIP3    H143420   5.683   5.213   6.493  1.6475 -1.2105 -1.7531
 7335TIP3    H243421   5.821   5.249   6.543  1.0231 -1.8055  0.4882
 7336TIP3   OH243422   3.280   2.915  16.980  0.4275  0.2438  0.1240
 7336TIP3    H143423   3.264   2.974  17.053 -1.5315 -1.7270  1.4361
 7336TIP3    H243424   3.371   2.887  16.991  1.2827  2.6379 -0.3375
 7337TIP3   OH243425   1.902   5.790  12.437  0.4712 -0.5768  0.0965
 7337TIP3    H143426   1.858   5.714  12.399 -0.8647  0.6015 -0.8099
 7337TIP3    H243427   1.841   5.825  12.501  1.2409 -0.4792  0.7986
 7338TIP3   OH243428   4.328   0.263   3.027  0.2305 -0.0327  0.3516
 7338TIP3    H143429   4.296   0.196   2.967 -2.0327  1.0031  0.3045
 7338TIP3    H243430   4.346   0.339   2.971  0.8255  0.0577  0.6564
 7339TIP3   OH243431   3.779   4.539  10.785  0.1784 -0.4864  0.0104
 7339TIP3    H143432   3.786   4.480  10.860 -0.1943  0.4265  0.7860
 7339TIP3    H243433   3.761   4.482  10.711 -0.9412 -1.2773  0.8661
 7340TIP3   OH243434   4.621   0.017   5.006  0.5972  0.3646  0.4722
 7340TIP3    H143435   4.637   0.079   5.077  0.0081 -0.2293  1.1371
 7340TIP3    H243436   4.695  -0.043   5.009 -0.6010 -1.1556  2.2294
 7341TIP3   OH243437   4.242   1.832  14.922  0.1495  0.0946 -0.5892
 7341TIP3    H143438   4.298   1.888  14.868  0.4192  1.3422  0.9089
 7341TIP3    H243439   4.182   1.892  14.965 -0.1007 -0.8462  0.4340
 7342TIP3   OH243440   3.483   0.954   4.112 -0.5340  0.0870 -0.2736
 7342TIP3    H143441   3.438   0.938   4.195  0.5471  1.2903  0.5665
 7342TIP3    H243442   3.544   0.880   4.103  0.3165  0.6652  0.6878
 7343TIP3   OH243443   5.746   1.359   1.259  0.0038 -0.5382  0.2903
 7343TIP3    H143444   5.787   1.321   1.181  2.1665  1.0286  0.5885
 7343TIP3    H243445   5.748   1.453   1.244 -1.5592 -0.3108  1.3130
 7344TIP3   OH243446   5.723   6.725   2.566 -0.2812 -0.1923 -0.2955
 7344TIP3    H143447   5.674   6.793   2.613  2.8065  1.6647  0.4952
 7344TIP3    H243448   5.771   6.679   2.635  0.4310 -0.7885 -1.1800
 7345TIP3   OH243449   0.274   0.102   3.711 -0.0474 -0.2855  0.4688
 7345TIP3    H143450   0.319   0.172   3.758  0.3519 -1.3021  1.6635
 7345TIP3    H243451   0.339   0.033   3.701 -0.3307 -0.3708 -1.0088
 7346TIP3   OH243452   5.072   4.333   5.591  0.4145  0.1117  0.3367
 7346TIP3    H143453   5.117   4.254   5.562  1.6829  0.3297  1.6317
 7346TIP3    H243454   5.084   4.334   5.686 -2.5747  0.0364  0.8098
 7347TIP3   OH243455   1.837   6.691   3.588 -0.0021 -0.2545  0.4561
 7347TIP3    H143456   1.750   6.714   3.621 -1.0719  1.3151 -2.9871
 7347TIP3    H243457   1.878   6.775   3.571  0.9440 -0.9661 -0.8917
 7348TIP3   OH243458   0.159   4.339   2.292 -0.1084 -0.9328  0.1296
 7348TIP3    H143459   0.233   4.396   2.315  0.0285 -1.3022  0.6250
 7348TIP3    H243460   0.083   4.397   2.291 -0.2633 -1.0124  2.3262
 7349TIP3   OH243461   0.142   1.862   2.256 -0.3202 -0.5380 -0.2929
 7349TIP3    H143462   0.069   1.803   2.239 -1.1833 -0.5616  2.8405
 7349TIP3    H243463   0.220   1.809   2.244 -1.0385 -1.9750  1.0487
 7350TIP3   OH243464   2.059   0.206  11.375 -0.6353  0.1764  0.4196
 7350TIP3    H143465   2.048   0.227  11.468  3.1801  0.0583  1.0656
 7350TIP3    H243466   2.043   0.112  11.370 -2.1120  0.3978  0.6637
 7351TIP3   OH243467   5.190   5.583  13.932  0.4309  0.5297  0.3466
 7351TIP3    H143468   5.275   5.619  13.907 -0.0540  0.2601 -1.8937
 7351TIP3    H243469   5.168   5.522  13.862 -0.9971 -0.4596  1.5832
 7352TIP3   OH243470   4.909   3.740  13.934  0.6996 -0.0495 -0.3506
 7352TIP3    H143471   4.835   3.748  13.875  0.4998  1.3686  0.0583
 7352TIP3    H243472   4.977   3.697  13.882  0.2359  0.3939 -1.3434
 7353TIP3   OH243473   0.490   4.497   3.645  0.4068 -0.2734 -0.2281
 7353TIP3    H143474   0.495   4.541   3.560 -1.7331  0.2336 -0.1629
 7353TIP3    H243475   0.571   4.446   3.652  2.5018  2.6888 -0.8473
 7354TIP3   OH243476   5.026   0.142  11.499  0.3018  0.1074  0.3739
 7354TIP3    H143477   4.994   0.214  11.446 -0.8523 -1.0971 -0.6517
 7354TIP3    H243478   5.121   0.142  11.487  0.1401  0.4176 -0.9777
 7355TIP3   OH243479   0.708   3.013   0.298  0.7773  0.0045  0.3648
 7355TIP3    H143480   0.719   2.928   0.255 -1.1785 -1.2230  2.0573
 7355TIP3    H243481   0.792   3.029   0.340  1.2874 -0.9359 -0.2462
 7356TIP3   OH243482   1.185   1.866  13.283  0.3446  0.1564 -0.2079
 7356TIP3    H143483   1.123   1.928  13.245  1.2645  0.6007 -1.0230
 7356TIP3    H243484   1.130   1.794  13.316 -0.6377  0.8450 -0.3146
 7357TIP3   OH243485   6.738   5.555  12.055  0.2032  0.3012 -0.1237
 7357TIP3    H143486   6.807   5.493  12.035  0.0629  0.2263 -0.3813
 7357TIP3    H243487   6.739   5.562  12.150 -1.6289 -2.2596  0.1806
 7358TIP3   OH243488   5.211   0.669  13.082  0.3553  0.7511  0.3413
 7358TIP3    H143489   5.218   0.576  13.061  0.5497  0.3867  1.8990
 7358TIP3    H243490   5.250   0.677  13.169  2.6346  2.7363 -0.7494
 7359TIP3   OH243491   1.912   0.849   0.469  0.8817 -0.4419 -0.0056
 7359TIP3    H143492   1.858   0.789   0.520 -1.2920  0.2448 -1.3674
 7359TIP3    H243493   1.930   0.922   0.529  0.9369 -1.0101  0.6855
 7360TIP3   OH243494   3.002   3.795   3.172  0.1815  0.1944  0.1864
 7360TIP3    H143495   2.996   3.889   3.190 -0.4739  0.3169 -0.5894
 7360TIP3    H243496   2.917   3.760   3.200 -0.2079  0.1179 -1.0168
 7361TIP3   OH243497   1.570   0.703  13.576  0.6896 -0.2504 -0.4746
 7361TIP3    H143498   1.516   0.713  13.497 -1.0527 -0.4458  0.6413
 7361TIP3    H243499   1.660   0.704  13.543  0.0312 -0.0004 -2.4255
 7362TIP3   OH243500   1.434   6.124   5.842 -0.2193 -0.1741 -0.2899
 7362TIP3    H143501   1.492   6.086   5.908  1.0115  0.5590 -0.9066
 7362TIP3    H243502   1.493   6.160   5.776 -1.3927 -1.6025 -2.2308
 7363TIP3   OH243503   0.696   5.787   1.629  0.6001 -0.5184  0.3459
 7363TIP3    H143504   0.704   5.796   1.534 -0.8518 -2.0361  0.0401
 7363TIP3    H243505   0.644   5.863   1.656 -0.5671 -1.0540 -0.3476
 7364TIP3   OH243506   2.500   3.824   3.412 -0.0179 -0.1735 -0.9327
 7364TIP3    H143507   2.483   3.742   3.457 -0.4148  0.2935 -0.2076
 7364TIP3    H243508   2.480   3.806   3.320  0.7985 -1.1384 -0.9328
 7365TIP3   OH243509   6.252   5.922  10.756  0.1807 -0.4780 -0.6243
 7365TIP3    H143510   6.322   5.858  10.752  1.4813  0.9626 -2.5035
 7365TIP3    H243511   6.214   5.923  10.669  0.3391  1.4205 -0.7196
 7366TIP3   OH243512   5.301   2.469   2.796  0.0547  0.5579 -0.1540
 7366TIP3    H143513   5.346   2.529   2.737 -0.0132  0.6605 -0.1029
 7366TIP3    H243514   5.248   2.414   2.739  0.4120  0.2922 -0.2311
 7367TIP3   OH243515   3.227   6.069   1.032  0.2170  0.4307  0.1898
 7367TIP3    H143516   3.223   6.089   0.939  0.1692 -0.9961 -0.1461
 7367TIP3    H243517   3.312   6.102   1.060  0.9324 -0.5309 -0.7466
 7368TIP3   OH243518   1.906   2.029  12.971  0.0265 -0.1126 -0.1853
 7368TIP3    H143519   1.880   1.979  13.048 -1.6413  0.4673 -0.3246
 7368TIP3    H243520   1.823   2.059  12.933  0.8793  0.9167 -1.3217
 7369TIP3   OH243521   5.687   6.572  10.382  0.6434  0.1442  0.2457
 7369TIP3    H143522   5.591   6.579  10.387  0.5024  0.8245 -2.0586
 7369TIP3    H243523   5.718   6.661  10.401  0.7387  0.1585  0.0282
 7370TIP3   OH243524   0.305   4.253  16.269 -0.1274  0.6178 -1.1387
 7370TIP3    H143525   0.348   4.182  16.318 -2.2563 -0.5213 -0.8029
 7370TIP3    H243526   0.251   4.297  16.333 -1.4546  0.3430 -2.0347
 7371TIP3   OH243527   5.277   0.158  11.982  1.2446  0.3219  0.0200
 7371TIP3    H143528   5.369   0.181  11.996  0.9880  1.2240  0.2784
 7371TIP3    H243529   5.229   0.238  12.000  0.4908  0.1709 -1.2049
 7372TIP3   OH243530   6.775   2.940   1.838  0.1047 -0.1521  0.9228
 7372TIP3    H143531   6.794   2.956   1.930  1.2061 -3.3682  1.3564
 7372TIP3    H243532   6.689   2.897   1.839  0.3959 -0.7519  0.5248
 7373TIP3   OH243533   5.669   0.706   5.212  0.1816 -0.2005 -0.3975
 7373TIP3    H143534   5.598   0.689   5.151 -2.4594  1.0670  2.0527
 7373TIP3    H243535   5.685   0.801   5.206  0.2405 -0.1426  0.4528
 7374TIP3   OH243536   4.633   6.429   3.312 -0.8660  0.1551 -0.5257
 7374TIP3    H143537   4.577   6.415   3.236 -0.6611 -1.1196 -0.4610
 7374TIP3    H243538   4.722   6.431   3.277 -0.7664 -0.4914 -0.3318
 7375TIP3   OH243539   2.565   4.873   6.561  0.0038  0.1227  0.4810
 7375TIP3    H143540   2.522   4.955   6.536 -1.0147 -0.7259 -0.7039
 7375TIP3    H243541   2.655   4.883   6.531 -0.0057  0.9535  0.7032
 7376TIP3   OH243542   1.218   2.122  13.376 -0.1346  0.0310 -0.2203
 7376TIP3    H143543   1.223   2.029  13.396  0.7963  0.1942  0.3715
 7376TIP3    H243544   1.309   2.148  13.361 -0.0865  1.3278  1.8982
 7377TIP3   OH243545   3.294   3.885  14.420 -0.1096 -0.6260  0.2483
 7377TIP3    H143546   3.359   3.860  14.355 -0.1950 -0.3850  0.0724
 7377TIP3    H243547   3.336   3.953  14.472 -0.1818 -0.5512  0.2076
 7378TIP3   OH243548   1.275   1.322  13.384 -0.3027  0.0052 -0.2670
 7378TIP3    H143549   1.227   1.248  13.421  1.2033 -0.8837  0.0073
 7378TIP3    H243550   1.347   1.336  13.445  1.5793 -0.7553 -2.2110
 7379TIP3   OH243551   6.281   0.858   3.836 -0.7373 -0.5847  0.0316
 7379TIP3    H143552   6.322   0.807   3.906  1.0547  0.3371 -0.2853
 7379TIP3    H243553   6.350   0.869   3.770 -2.0650 -0.5402 -1.4090
 7380TIP3   OH243554   4.415   2.462  14.376  0.1441 -0.5458 -0.1320
 7380TIP3    H143555   4.376   2.401  14.438  0.8195 -0.2000  0.6504
 7380TIP3    H243556   4.400   2.548  14.414  2.5626 -0.4431  0.7794
 7381TIP3   OH243557   1.793   0.394  15.962  0.3456 -0.1205 -0.3271
 7381TIP3    H143558   1.776   0.315  15.911  0.3399  0.8221 -1.8663
 7381TIP3    H243559   1.852   0.446  15.906  1.0177  0.5978  1.0020
 7382TIP3   OH243560   1.545   6.438  15.809 -0.6952  0.3254 -0.0804
 7382TIP3    H143561   1.535   6.499  15.736 -2.6289 -2.9689 -2.8777
 7382TIP3    H243562   1.455   6.417  15.835 -0.1271 -1.2990  0.7185
 7383TIP3   OH243563   1.966   5.041  10.510  0.4228  0.0846  0.1392
 7383TIP3    H143564   2.052   5.071  10.480 -1.0837  1.6301 -3.1058
 7383TIP3    H243565   1.915   5.121  10.521 -1.0605 -0.8707  0.4857
 7384TIP3   OH243566   6.638   3.710  15.692 -0.5580  0.0216 -0.5624
 7384TIP3    H143567   6.665   3.619  15.681 -1.5944 -0.5448  1.1995
 7384TIP3    H243568   6.574   3.724  15.621 -1.4143 -1.0794 -0.0445
 7385TIP3   OH243569   6.586   6.367  12.299 -0.1025 -0.1531 -0.0343
 7385TIP3    H143570   6.623   6.351  12.386  0.2077  0.0930 -0.1197
 7385TIP3    H243571   6.507   6.417  12.316 -0.1384 -0.2588  0.1181
 7386TIP3   OH243572   1.971   2.876   3.530 -0.1202  0.2730  0.1220
 7386TIP3    H143573   2.037   2.944   3.545 -0.0412 -0.2419  2.5571
 7386TIP3    H243574   2.018   2.806   3.484  0.5290  0.7011  0.1291
 7387TIP3   OH243575   3.077   6.239   1.299  0.1504  0.0063  0.0980
 7387TIP3    H143576   3.057   6.278   1.214  0.1952  0.9568  0.5075
 7387TIP3    H243577   3.030   6.155   1.299 -0.8745  0.5593 -0.3727
 7388TIP3   OH243578   1.625   2.679  16.225 -0.5708  0.4597 -0.0039
 7388TIP3    H143579   1.590   2.759  16.262 -1.5401  0.0948 -0.1005
 7388TIP3    H243580   1.692   2.708  16.162 -1.2999  1.2148 -0.4491
 7389TIP3   OH243581   4.922   0.779   3.726 -0.3072  0.2401  0.0688
 7389TIP3    H143582   5.006   0.820   3.750  0.9083 -0.6595 -2.3432
 7389TIP3    H243583   4.890   0.741   3.808  2.7378 -1.2163  0.7256
 7390TIP3   OH243584   5.042   3.461   4.294  0.5658 -0.1250 -1.0062
 7390TIP3    H143585   4.977   3.391   4.291  0.3373  0.0300  0.1275
 7390TIP3    H243586   5.117   3.425   4.246 -0.0268 -0.6310 -1.5838
 7391TIP3   OH243587   0.452   4.466  15.936  0.3933  0.0947  0.4451
 7391TIP3    H143588   0.484   4.413  15.863 -0.5623 -0.8081  0.6677
 7391TIP3    H243589   0.372   4.422  15.965 -1.3528  2.5181 -0.3972
 7392TIP3   OH243590   4.876   2.834   5.095 -0.0583  0.7985  1.0780
 7392TIP3    H143591   4.880   2.785   5.177  1.2654  1.7045  1.5959
 7392TIP3    H243592   4.848   2.922   5.120  2.5132  1.7591  0.9846
 7393TIP3   OH243593   1.014   4.190  10.753 -0.1652  0.4445 -0.1261
 7393TIP3    H143594   0.992   4.257  10.818 -0.3322 -1.5820  2.0940
 7393TIP3    H243595   0.929   4.157  10.723 -0.1137  0.1779  0.0122
 7394TIP3   OH243596   0.029   3.121  14.755 -0.4111  0.1825  0.2945
 7394TIP3    H143597   0.075   3.041  14.725  0.4413  1.1734 -1.2095
 7394TIP3    H243598   0.100   3.181  14.779 -1.0677  0.0558  2.7713
 7395TIP3   OH243599   6.694   5.313   3.229  0.6779 -0.0875 -0.2910
 7395TIP3    H143600   6.723   5.223   3.210 -0.7621 -0.0735 -3.0944
 7395TIP3    H243601   6.773   5.366   3.216  0.9885 -0.7160 -1.1266
 7396TIP3   OH243602   0.517   3.913   1.412 -0.4479  0.2987  0.0068
 7396TIP3    H143603   0.436   3.957   1.386 -1.0141  0.4144  1.8196
 7396TIP3    H243604   0.564   3.977   1.464  0.9630  0.3107 -1.2280
 7397TIP3   OH243605   6.647   4.143   2.047  0.4752  0.5563 -1.1124
 7397TIP3    H143606   6.653   4.201   1.970  0.9896 -0.9037 -2.2200
 7397TIP3    H243607   6.558   4.106   2.042  0.2907  0.9350 -0.6428
 7398TIP3   OH243608   2.228   6.096   3.723 -0.1625  0.3389 -0.5722
 7398TIP3    H143609   2.205   6.179   3.766  2.9562  0.1804  1.8517
 7398TIP3    H243610   2.291   6.122   3.656  0.9375 -0.0018  0.2947
 7399TIP3   OH243611   2.900   6.480  16.302 -0.3641 -0.4057 -0.2413
 7399TIP3    H143612   2.925   6.550  16.242 -0.9779  0.6649  0.7099
 7399TIP3    H243613   2.983   6.439  16.327 -0.1540 -1.7031 -2.7063
 7400TIP3   OH243614   0.646   6.098   0.687 -0.1568 -0.1609 -0.1124
 7400TIP3    H143615   0.563   6.125   0.649 -0.6385 -1.0289  0.2821
 7400TIP3    H243616   0.705   6.089   0.613 -0.6588 -0.3589 -0.4946
 7401TIP3   OH243617   3.784   1.392   1.881 -0.2377  0.0901 -0.0275
 7401TIP3    H143618   3.763   1.486   1.884  0.7833  0.4582 -2.1460
 7401TIP3    H243619   3.877   1.390   1.860 -0.8304 -1.2946 -3.1520
 7402TIP3   OH243620   6.289   0.720  10.801 -0.5678  0.5444 -0.2201
 7402TIP3    H143621   6.284   0.630  10.768  0.0097  0.7497 -0.9090
 7402TIP3    H243622   6.374   0.725  10.846 -1.7806 -0.0247  2.2829
 7403TIP3   OH243623   2.048   3.595   2.682  0.3110  0.0553 -0.5415
 7403TIP3    H143624   2.052   3.607   2.587  0.9805  0.6228 -0.4493
 7403TIP3    H243625   2.128   3.636   2.715  0.4371 -0.7658  0.2118
 7404TIP3   OH243626   4.888   6.281   2.722 -0.0367 -0.0245  0.2835
 7404TIP3    H143627   4.975   6.257   2.691 -0.2914  0.2014 -0.6427
 7404TIP3    H243628   4.903   6.352   2.784  0.4336  0.0277  0.1115
 7405TIP3   OH243629   2.275   1.161   1.188  0.0008 -0.0975 -0.2852
 7405TIP3    H143630   2.297   1.080   1.142  0.0905 -0.7387  0.8368
 7405TIP3    H243631   2.360   1.199   1.211 -0.0356 -0.3459  0.2828
 7406TIP3   OH243632   3.628   2.805   0.564  0.0554 -0.5084 -0.0802
 7406TIP3    H143633   3.543   2.763   0.576 -0.1180 -0.4783 -1.1013
 7406TIP3    H243634   3.631   2.829   0.471  0.5037  0.9807  0.2808
 7407TIP3   OH243635   1.120   5.861  12.933 -0.0588  0.1206  0.2298
 7407TIP3    H143636   1.216   5.867  12.933  0.0128 -0.8288  0.1860
 7407TIP3    H243637   1.099   5.826  12.846 -0.5709  1.8435 -0.3814
 7408TIP3   OH243638   5.906   3.052   1.347  0.5003 -0.2425 -0.1440
 7408TIP3    H143639   6.001   3.041   1.344  0.2923 -2.2052 -1.2289
 7408TIP3    H243640   5.881   3.071   1.257 -0.1190  0.6902  0.2086
 7409TIP3   OH243641   3.132   2.444   3.139 -0.4687  0.1842 -0.0747
 7409TIP3    H143642   3.166   2.443   3.228 -1.0060  2.5979  0.2318
 7409TIP3    H243643   3.202   2.405   3.086  0.3101 -0.2787  1.2543
 7410TIP3   OH243644   2.369   3.276  15.088  0.3479 -0.2190  0.0614
 7410TIP3    H143645   2.333   3.192  15.059  1.2899 -0.0923 -1.6138
 7410TIP3    H243646   2.398   3.319  15.007 -0.1020  1.7358  0.8729
 7411TIP3   OH243647   0.734   3.782  14.970 -0.5264 -0.5502  0.4535
 7411TIP3    H143648   0.643   3.764  14.995 -0.7652 -0.0292 -0.0096
 7411TIP3    H243649   0.784   3.709  15.005 -0.6503  0.6791  3.4930
 7412TIP3   OH243650   5.663   1.288   0.951  0.0327  0.0465 -0.3766
 7412TIP3    H143651   5.751   1.251   0.957 -0.1166 -0.3147 -0.3622
 7412TIP3    H243652   5.659   1.326   0.864  0.3297  0.3939 -0.2398
 7413TIP3   OH243653   5.959   3.489   0.167  0.0641 -0.5820 -0.4626
 7413TIP3    H143654   5.924   3.402   0.148 -0.9871 -0.4112  0.5959
 7413TIP3    H243655   5.930   3.508   0.257  0.8952  0.5574 -0.4103
 7414TIP3   OH243656   1.743   3.603  12.521  1.2930 -0.0899 -0.2594
 7414TIP3    H143657   1.650   3.580  12.525  1.0351  0.9099 -0.2586
 7414TIP3    H243658   1.784   3.528  12.479  0.5140 -0.6184 -0.1089
 7415TIP3   OH243659   4.265   5.548  10.575 -0.3179 -0.1356 -0.8746
 7415TIP3    H143660   4.251   5.467  10.624  0.1314 -0.8123 -1.8358
 7415TIP3    H243661   4.356   5.542  10.545  0.3598  1.6244  0.6381
 7416TIP3   OH243662   1.968   0.406   0.029  0.0993  0.1773 -0.0263
 7416TIP3    H143663   1.931   0.429   0.115 -1.1574 -0.5406 -0.3418
 7416TIP3    H243664   2.013   0.485  -0.000 -1.3554  1.1704  0.3138
 7417TIP3   OH243665   4.705   5.871  10.409 -0.3235  0.8279 -0.4648
 7417TIP3    H143666   4.736   5.828  10.488 -0.7057  0.3863 -0.5562
 7417TIP3    H243667   4.785   5.889  10.359  0.1447  2.7969  0.8312
 7418TIP3   OH243668   3.907   6.686  14.653 -0.1212 -0.1059  0.3192
 7418TIP3    H143669   3.999   6.704  14.633 -0.6605  2.1201 -0.4460
 7418TIP3    H243670   3.886   6.743  14.727 -0.5749 -1.5723  1.3633
 7419TIP3   OH243671   5.647   0.804  13.110  0.0971  0.1054  0.2175
 7419TIP3    H143672   5.686   0.888  13.086 -1.2602  0.2539 -1.7399
 7419TIP3    H243673   5.573   0.828  13.167 -0.2891  0.2513 -0.3388
 7420TIP3   OH243674   1.027   0.228  15.968  0.2790  0.0796 -0.4587
 7420TIP3    H143675   0.988   0.310  16.001 -0.0446 -0.0762 -0.4439
 7420TIP3    H243676   0.966   0.160  15.997  0.1109 -0.0853 -1.1675
 7421TIP3   OH243677   4.877   3.820  15.745 -0.3916  0.0170  0.1622
 7421TIP3    H143678   4.951   3.880  15.751 -1.9255  1.9207  1.5011
 7421TIP3    H243679   4.819   3.860  15.680 -2.1738  1.0233  2.1953
 7422TIP3   OH243680   1.983   6.189  16.969  0.0545 -0.1088  0.8412
 7422TIP3    H143681   2.075   6.165  16.959  0.1127  0.1189  0.8170
 7422TIP3    H243682   1.977   6.277  16.931 -0.2316 -0.2383  0.5826
 7423TIP3   OH243683   2.224   2.736  14.236 -0.3560 -0.1315  0.3710
 7423TIP3    H143684   2.228   2.667  14.302  0.4476 -0.0464  0.4157
 7423TIP3    H243685   2.131   2.759  14.231 -0.5640 -0.8759  0.7013
 7424TIP3   OH243686   1.639   4.745   1.305  0.0100 -0.1811 -0.0542
 7424TIP3    H143687   1.728   4.770   1.330 -0.3288 -0.6457  1.7568
 7424TIP3    H243688   1.588   4.826   1.313  0.0955 -0.1067 -0.2472
 7425TIP3   OH243689   3.870   1.075   5.942  0.0788 -0.1790 -0.0488
 7425TIP3    H143690   3.786   1.095   5.901  0.7935 -0.0522 -1.5264
 7425TIP3    H243691   3.863   0.983   5.968  0.0527 -0.6882 -1.7281
 7426TIP3   OH243692   2.051   2.446  17.109  0.7955  0.1806 -0.5017
 7426TIP3    H143693   2.024   2.390  17.182 -1.8116  1.6317 -0.2259
 7426TIP3    H243694   2.011   2.405  17.032  1.2331  0.1482 -0.7133
 7427TIP3   OH243695   1.461   4.298   5.704  0.6425  0.3320  0.4609
 7427TIP3    H143696   1.441   4.221   5.757  0.5269  0.2067  0.2374
 7427TIP3    H243697   1.548   4.324   5.732  0.1340  0.9473  1.5263
 7428TIP3   OH243698   2.231   4.312  15.426  0.3187  0.8025 -0.3138
 7428TIP3    H143699   2.213   4.324  15.332  1.6550 -0.2336 -0.7479
 7428TIP3    H243700   2.154   4.265  15.459 -0.3286  1.4953 -0.7943
 7429TIP3   OH243701   2.103   1.427   2.787 -0.4050  0.0289  0.5574
 7429TIP3    H143702   2.067   1.515   2.799 -3.6045 -0.8511 -1.3314
 7429TIP3    H243703   2.057   1.373   2.852 -0.8253 -0.7381 -0.3461
 7430TIP3   OH243704   0.825   2.409   2.476  0.5187  0.0471  0.9440
 7430TIP3    H143705   0.889   2.337   2.477 -1.0058 -1.3733  0.8249
 7430TIP3    H243706   0.858   2.469   2.409  1.3473 -1.0121  0.3605
 7431TIP3   OH243707   6.720   0.422  13.071 -0.4073  0.4503 -0.4565
 7431TIP3    H143708   6.718   0.448  12.979  0.2377 -1.2064 -0.9804
 7431TIP3    H243709   6.813   0.406  13.089 -0.8008 -2.0842 -0.3959
 7432TIP3   OH243710   4.081   2.487  14.468 -0.6881 -0.1352 -0.0506
 7432TIP3    H143711   4.112   2.494  14.558 -0.5313 -3.0175  0.2106
 7432TIP3    H243712   3.986   2.489  14.474 -0.6804  2.0088 -0.1216
 7433TIP3   OH243713   0.167   3.433  11.463 -0.1437  0.2152 -0.0927
 7433TIP3    H143714   0.108   3.358  11.462  0.6773 -0.4398 -0.1134
 7433TIP3    H243715   0.110   3.508  11.477 -1.0951 -0.3008 -1.1051
 7434TIP3   OH243716   4.709   3.084   4.805  0.2244  0.5174 -0.4004
 7434TIP3    H143717   4.793   3.115   4.838  0.3945 -0.4743  0.1384
 7434TIP3    H243718   4.721   2.990   4.791 -1.4125 -0.0847  1.7673
 7435TIP3   OH243719   4.822   0.201  13.022  0.1242  0.3240  0.0372
 7435TIP3    H143720   4.783   0.159  13.098 -1.5976  1.9466  0.1301
 7435TIP3    H243721   4.857   0.129  12.970 -0.3109 -0.9606  1.4582
 7436TIP3   OH243722   1.266   0.608  10.594  0.1403 -0.1814  0.5372
 7436TIP3    H143723   1.238   0.574  10.679 -2.8291 -0.5618 -0.4786
 7436TIP3    H243724   1.266   0.703  10.605  0.0174 -0.2359  1.0276
 7437TIP3   OH243725   3.659   3.617  12.051  0.8813  0.5758  0.0242
 7437TIP3    H143726   3.657   3.625  12.146 -2.5584 -1.7607  0.3613
 7437TIP3    H243727   3.582   3.665  12.021  1.1415  0.1342 -1.4385
 7438TIP3   OH243728   2.798   3.856  15.868  0.1497 -0.1404 -0.3909
 7438TIP3    H143729   2.878   3.804  15.876  0.6459  0.6773  0.1195
 7438TIP3    H243730   2.730   3.793  15.847  1.2029 -0.6784 -2.5037
 7439TIP3   OH243731   3.847   3.755  17.117  0.8749 -0.4349  0.2376
 7439TIP3    H143732   3.883   3.844  17.114 -0.0375 -0.0238  0.9108
 7439TIP3    H243733   3.762   3.762  17.074  0.0186 -0.5704  1.8336
 7440TIP3   OH243734   6.415   4.527   4.877 -0.1929  0.1951 -0.6294
 7440TIP3    H143735   6.470   4.452   4.855  1.5924  0.4450  2.3638
 7440TIP3    H243736   6.362   4.497   4.950  0.7949  1.8306  0.8531
 7441TIP3   OH243737   3.093   2.075   3.168  0.6055 -0.7443 -0.8417
 7441TIP3    H143738   3.029   2.079   3.097 -0.4534 -0.7575  0.0800
 7441TIP3    H243739   3.177   2.069   3.124 -0.0000 -0.4013 -2.0952
 7442TIP3   OH243740   3.125   6.771   2.368  0.3347  0.3150 -0.1515
 7442TIP3    H143741   3.132   6.703   2.300  1.3030  0.6512 -0.4039
 7442TIP3    H243742   3.051   6.825   2.340  0.3984  0.1458 -0.6688
 7443TIP3   OH243743   2.022   1.947  11.835  0.1143 -0.0344  0.1010
 7443TIP3    H143744   2.015   2.042  11.828 -1.0581 -0.0569  0.7999
 7443TIP3    H243745   1.966   1.924  11.908  1.3285 -1.1594  0.7080
 7444TIP3   OH243746   3.837   2.345  15.471  0.4097 -0.5183  0.0333
 7444TIP3    H143747   3.913   2.402  15.455  2.0316 -2.1337  1.6151
 7444TIP3    H243748   3.843   2.322  15.563 -1.6706 -1.2357  0.0392
 7445TIP3   OH243749   2.562   1.439  13.440  0.4435 -0.3640  0.5541
 7445TIP3    H143750   2.535   1.512  13.383  1.4361 -0.5860 -0.2271
 7445TIP3    H243751   2.638   1.472  13.487  0.8467 -0.8654  0.2572
 7446TIP3   OH243752   6.708   6.129   5.175  0.2157  0.0176 -0.1627
 7446TIP3    H143753   6.699   6.187   5.250  0.4982  0.9377 -0.8209
 7446TIP3    H243754   6.637   6.065   5.186 -0.7499  1.0813  0.0638
 7447TIP3   OH243755   6.580   5.094   4.167  0.1472  0.1545  0.0582
 7447TIP3    H143756   6.609   5.088   4.258 -0.3064 -0.8845  0.1455
 7447TIP3    H243757   6.490   5.062   4.168  1.2012 -3.3643 -1.2385
 7448TIP3   OH243758   2.433   4.834  13.373  0.3885  0.1347 -0.5683
 7448TIP3    H143759   2.462   4.747  13.402 -2.2561 -0.0976  1.8389
 7448TIP3    H243760   2.424   4.826  13.278  1.3178 -1.8568 -0.5451
 7449TIP3   OH243761   5.218   6.710   1.917 -0.1299  0.1980 -0.4439
 7449TIP3    H143762   5.285   6.727   1.850  2.2002 -0.6198  1.5318
 7449TIP3    H243763   5.227   6.784   1.978 -0.6220 -0.2204  0.1462
 7450TIP3   OH243764   2.102   4.697  15.540  0.1394  0.0332  0.3143
 7450TIP3    H143765   2.025   4.640  15.536 -1.9124  2.6405 -0.1258
 7450TIP3    H243766   2.093   4.744  15.622  0.4717  1.3580 -0.3826
 7451TIP3   OH243767   3.915   2.757   2.978  0.1678 -0.7142 -0.0775
 7451TIP3    H143768   3.859   2.707   3.037 -0.8922  2.3614  1.7573
 7451TIP3    H243769   3.864   2.766   2.898 -0.6653 -0.4955  0.4740
 7452TIP3   OH243770   2.234   0.411  16.343 -0.0761 -0.1723  0.8108
 7452TIP3    H143771   2.285   0.453  16.413  0.3480  1.5637 -0.4786
 7452TIP3    H243772   2.268   0.322  16.338  1.0042  0.1744  1.7274
 7453TIP3   OH243773   6.239   0.285  13.127  0.4213  0.2022  0.1110
 7453TIP3    H143774   6.173   0.227  13.163 -1.3534  2.7300  1.2783
 7453TIP3    H243775   6.212   0.300  13.036 -0.1778  0.5817  0.3432
 7454TIP3   OH243776   3.282   4.034  16.220  0.4743  0.3288  0.2358
 7454TIP3    H143777   3.258   3.962  16.279 -2.4532  0.4307 -0.6895
 7454TIP3    H243778   3.245   4.112  16.260  0.2378  0.7187 -0.7214
 7455TIP3   OH243779   3.232   3.448  12.847  0.3777  0.0304 -0.3121
 7455TIP3    H143780   3.220   3.357  12.823  0.6629 -0.3630  0.9413
 7455TIP3    H243781   3.184   3.498  12.781 -1.9156 -1.1332  0.3934
 7456TIP3   OH243782   1.422   2.758  11.421 -0.0858  0.3809  0.9653
 7456TIP3    H143783   1.449   2.850  11.415 -0.0441  0.4800  2.2147
 7456TIP3    H243784   1.436   2.736  11.514 -0.4208 -0.7829  0.7528
 7457TIP3   OH243785   1.036   1.919  10.310  0.4029 -0.0038 -1.0082
 7457TIP3    H143786   0.942   1.902  10.324  0.5965  0.4631  1.0781
 7457TIP3    H243787   1.055   1.997  10.361  2.1644 -0.7232 -0.4821
 7458TIP3   OH243788   5.305   2.422  16.902  0.3920  0.1685 -0.4348
 7458TIP3    H143789   5.291   2.505  16.857  1.1628  0.0227 -0.9668
 7458TIP3    H243790   5.393   2.430  16.940  0.3570 -0.2957 -0.2505
 7459TIP3   OH243791   5.606   3.923  13.945 -0.4383 -0.4477  0.0030
 7459TIP3    H143792   5.601   3.829  13.933  0.0977 -0.4758 -0.0185
 7459TIP3    H243793   5.579   3.937  14.036 -0.2414 -0.6480  0.0922
 7460TIP3   OH243794   4.709   1.170   3.273 -0.0530 -0.0567 -0.1038
 7460TIP3    H143795   4.730   1.080   3.246  0.1066  0.4088 -1.6332
 7460TIP3    H243796   4.755   1.225   3.209 -2.1046  1.0741 -0.6845
 7461TIP3   OH243797   3.865   5.030   6.862  0.9143 -0.2395 -0.1410
 7461TIP3    H143798   3.916   4.950   6.874  1.8262  0.0230 -2.0400
 7461TIP3    H243799   3.857   5.040   6.768 -2.6957 -0.2527  0.0272
 7462TIP3   OH243800   3.018   3.455   3.063  0.0684 -0.3436  0.3603
 7462TIP3    H143801   3.009   3.360   3.067  0.8181 -0.3703  2.5784
 7462TIP3    H243802   2.945   3.489   3.114  0.5660  0.2064  0.7249
 7463TIP3   OH243803   2.157   5.720  10.422  0.3597 -0.0747 -0.0607
 7463TIP3    H143804   2.235   5.681  10.383  1.3506  2.1568 -0.4324
 7463TIP3    H243805   2.103   5.746  10.347 -0.3927 -0.8364  0.1880
 7464TIP3   OH243806   4.483   2.810   1.811  0.5744 -0.5377  0.1426
 7464TIP3    H143807   4.481   2.902   1.786 -0.9731 -0.4948  0.3397
 7464TIP3    H243808   4.522   2.766   1.735  0.7228  0.1920 -0.2153
 7465TIP3   OH243809   5.785   4.581   1.708 -0.0848 -0.0235  0.8992
 7465TIP3    H143810   5.840   4.579   1.630 -1.9753 -2.0852 -0.5415
 7465TIP3    H243811   5.753   4.491   1.716 -3.3239  1.0401  1.4644
 7466TIP3   OH243812   3.164   3.517   4.208 -0.0891  0.6180 -0.2029
 7466TIP3    H143813   3.136   3.542   4.119  2.0774 -0.1051 -1.1398
 7466TIP3    H243814   3.185   3.600   4.250 -1.0488  0.9634 -0.3594
 7467TIP3   OH243815   2.592   5.000  11.016  0.1507 -0.1967  0.1176
 7467TIP3    H143816   2.575   5.094  11.028  1.7709  0.1491 -0.0995
 7467TIP3    H243817   2.671   4.984  11.068 -1.9627 -2.2183  3.0621
 7468TIP3   OH243818   4.030   5.277  13.564  0.3440  0.3527 -0.6888
 7468TIP3    H143819   3.977   5.284  13.486 -0.3960 -0.6261 -0.2967
 7468TIP3    H243820   4.048   5.367  13.590 -1.6689  0.7346 -0.4737
 7469TIP3   OH243821   0.441   4.791  15.699  0.0374 -0.2419 -0.0677
 7469TIP3    H143822   0.521   4.738  15.703  1.3155  1.5708 -0.3863
 7469TIP3    H243823   0.370   4.727  15.704  1.4908 -1.9369  0.0103
 7470TIP3   OH243824   3.285   2.342   6.549  0.4407  0.0458 -0.2006
 7470TIP3    H143825   3.224   2.328   6.621 -0.1623  1.8851 -0.3024
 7470TIP3    H243826   3.259   2.279   6.482 -0.2363 -0.3580  0.4349
 7471TIP3   OH243827   3.201   3.820  14.671 -0.1510 -0.4984  0.1450
 7471TIP3    H143828   3.238   3.877  14.604  0.8073 -2.1666 -0.8184
 7471TIP3    H243829   3.171   3.879  14.739  0.2069  1.1735 -1.0889
 7472TIP3   OH243830   1.208   1.589  15.839  0.5603 -0.1053 -0.0552
 7472TIP3    H143831   1.290   1.636  15.823 -0.3210  1.8044  0.7404
 7472TIP3    H243832   1.141   1.645  15.801 -0.6205 -0.2755  1.6730
 7473TIP3   OH243833   0.962   4.519  14.406 -0.1863 -0.4487 -0.5581
 7473TIP3    H143834   0.872   4.550  14.413  0.4555  1.2941  0.6601
 7473TIP3    H243835   1.010   4.592  14.368  0.4107 -2.1111 -3.2850
 7474TIP3   OH243836   0.592   5.544  11.838 -0.7384  0.2332 -0.4732
 7474TIP3    H143837   0.639   5.523  11.757 -1.0431  0.6009 -0.7492
 7474TIP3    H243838   0.560   5.633  11.824 -0.1007  0.6074  0.3786
 7475TIP3   OH243839   1.035   3.487   1.756 -0.3475 -0.0693  0.1587
 7475TIP3    H143840   1.123   3.494   1.794  0.1907  0.0683 -1.0442
 7475TIP3    H243841   0.992   3.419   1.807  0.7815 -0.7852  0.1995
 7476TIP3   OH243842   2.234   1.187   0.900  0.2499  0.1572 -0.4262
 7476TIP3    H143843   2.208   1.190   0.992  1.7108  2.3332 -0.0134
 7476TIP3    H243844   2.189   1.110   0.865 -0.9711 -0.2754  1.8940
 7477TIP3   OH243845   5.403   0.917  15.145  0.2308  0.3981  0.4491
 7477TIP3    H143846   5.391   0.993  15.088  0.9024 -0.1535 -0.4530
 7477TIP3    H243847   5.498   0.902  15.145  0.0411 -0.9116 -0.0149
 7478TIP3   OH243848   0.449   0.628   4.315  0.1965 -0.2839 -0.0918
 7478TIP3    H143849   0.512   0.591   4.376  0.1890  0.5587  0.4478
 7478TIP3    H243850   0.488   0.711   4.287  0.4126 -0.8749 -1.6065
 7479TIP3   OH243851   4.192   1.949  13.616 -0.5388 -0.2097 -0.0824
 7479TIP3    H143852   4.149   2.031  13.638 -1.5829 -0.9111  0.5568
 7479TIP3    H243853   4.286   1.969  13.620 -0.7772  1.1871 -0.9131
 7480TIP3   OH243854   2.876   6.504   6.253  0.4712  0.1174  0.3916
 7480TIP3    H143855   2.791   6.492   6.212  1.0749  0.7442 -1.1187
 7480TIP3    H243856   2.857   6.525   6.344 -1.0296  1.5803 -0.2259
 7481TIP3   OH243857   2.285   3.378   0.222  0.0317 -0.1654  0.5023
 7481TIP3    H143858   2.299   3.414   0.309  0.9791  0.4939  0.0966
 7481TIP3    H243859   2.218   3.433   0.183  1.1501  0.9247  0.0489
 7482TIP3   OH243860   0.824   4.643  16.714  0.4071  0.3195  1.2164
 7482TIP3    H143861   0.915   4.675  16.712 -0.0681  1.9170 -1.9632
 7482TIP3    H243862   0.820   4.577  16.645 -1.1361  1.3965  0.1971
 7483TIP3   OH243863   5.223   3.291   0.123  0.0887  0.0069 -0.1720
 7483TIP3    H143864   5.167   3.217   0.099  1.5434 -1.3810  0.5274
 7483TIP3    H243865   5.250   3.329   0.040 -1.4676  0.4266 -0.5340
 7484TIP3   OH243866   6.545   4.994  14.685 -0.4481 -0.3717 -0.0506
 7484TIP3    H143867   6.583   4.906  14.690  2.6029  0.8292  0.0830
 7484TIP3    H243868   6.475   4.993  14.750  0.3660 -2.3327  0.8938
 7485TIP3   OH243869   2.530   3.421  14.010  0.7882 -0.6897  0.1087
 7485TIP3    H143870   2.604   3.429  14.070  0.4110 -1.4197  0.6977
 7485TIP3    H243871   2.561   3.359  13.943  1.0564 -0.2151 -0.2092
 7486TIP3   OH243872   3.165   5.325   2.364 -0.1868 -0.3010  0.1515
 7486TIP3    H143873   3.093   5.281   2.318  0.8298 -0.4280 -1.4040
 7486TIP3    H243874   3.214   5.254   2.405  0.3875 -0.4680 -0.7926
 7487TIP3   OH243875   4.772   0.431   3.217 -0.3553  0.2158 -0.3886
 7487TIP3    H143876   4.851   0.437   3.164 -0.5472 -0.1208 -0.7188
 7487TIP3    H243877   4.733   0.347   3.192  0.0307 -0.3885  0.9459
 7488TIP3   OH243878   3.557   1.079   4.848 -0.3438  0.0796 -0.0823
 7488TIP3    H143879   3.468   1.081   4.812 -0.1035  1.5444 -0.6767
 7488TIP3    H243880   3.598   1.158   4.813  1.5692 -1.1574 -0.7203
 7489TIP3   OH243881   2.631   4.863   5.426 -0.6821  0.4713  0.2950
 7489TIP3    H143882   2.649   4.776   5.462  0.4270  0.4787 -0.2125
 7489TIP3    H243883   2.639   4.922   5.500  1.8287  0.5179  0.0591
 7490TIP3   OH243884   6.292   3.429   5.726 -0.1168  0.3721 -0.3370
 7490TIP3    H143885   6.344   3.504   5.699  0.0273  1.3152  2.2333
 7490TIP3    H243886   6.352   3.355   5.720  1.4506  1.3304  1.8599
 7491TIP3   OH243887   2.100   3.134  14.156 -0.0539 -0.4154  0.4638
 7491TIP3    H143888   2.025   3.141  14.215  1.0746  1.5615  1.7777
 7491TIP3    H243889   2.062   3.133  14.069 -1.7998 -3.5894  1.0847
 7492TIP3   OH243890   5.069   2.715  15.190  0.3586  0.0608  0.1536
 7492TIP3    H143891   5.098   2.657  15.261  1.4504  0.2650 -0.1085
 7492TIP3    H243892   5.136   2.783  15.186 -1.1398  1.6752  0.8017
 7493TIP3   OH243893   1.379   0.678   1.891  0.6205 -0.0606 -0.1918
 7493TIP3    H143894   1.392   0.600   1.839 -1.2829  0.3257 -1.3643
 7493TIP3    H243895   1.460   0.688   1.941  0.5418 -3.3320  0.8090
 7494TIP3   OH243896   0.205   6.230   2.366  0.1909 -0.3072 -0.0152
 7494TIP3    H143897   0.297   6.258   2.367 -0.1799  1.0193  1.6719
 7494TIP3    H243898   0.161   6.293   2.309  0.1062 -0.0245  0.3505
 7495TIP3   OH243899   3.370   1.525   1.191 -0.2645 -0.7611  0.1492
 7495TIP3    H143900   3.434   1.589   1.160 -1.7391  1.5507  1.5335
 7495TIP3    H243901   3.422   1.455   1.231  1.4150 -0.3613 -1.2265
 7496TIP3   OH243902   1.385   3.430   4.211 -0.4645 -0.3025  0.1059
 7496TIP3    H143903   1.466   3.480   4.208  0.5873 -1.9481 -2.5323
 7496TIP3    H243904   1.412   3.342   4.239 -1.2014 -0.9910 -1.2394
 7497TIP3   OH243905   5.003   6.437   4.116 -0.2608  0.2257  0.0515
 7497TIP3    H143906   5.019   6.525   4.150  0.9637  0.3297 -0.7261
 7497TIP3    H243907   5.089   6.406   4.087 -1.2034  0.2138 -3.0714
 7498TIP3   OH243908   5.533   2.333  17.025  0.0683  0.4524 -0.1413
 7498TIP3    H143909   5.593   2.383  17.079  1.1042 -0.1232 -0.7178
 7498TIP3    H243910   5.500   2.265  17.083  1.6018 -0.5091 -0.3318
 7499TIP3   OH243911   0.113   4.661  15.478 -0.9376  0.0401 -0.0423
 7499TIP3    H143912   0.204   4.667  15.448 -0.5454 -0.3693  1.0239
 7499TIP3    H243913   0.117   4.675  15.572 -2.0015  0.1156  0.0082
 7500TIP3   OH243914   2.258   5.447  12.543 -0.4428 -0.8289  0.7309
 7500TIP3    H143915   2.182   5.412  12.495 -0.5725 -1.1067  1.1334
 7500TIP3    H243916   2.235   5.538  12.561  0.0956 -0.3603 -0.7433
 7501TIP3   OH243917   0.694   6.776   4.679 -0.0217 -0.0817  0.2295
 7501TIP3    H143918   0.721   6.684   4.675  1.5727  0.2750  1.5867
 7501TIP3    H243919   0.645   6.783   4.761 -0.9408  0.1130 -0.3173
 7502TIP3   OH243920   2.215   2.563   0.269 -0.1846  0.1782 -0.1747
 7502TIP3    H143921   2.180   2.640   0.223  1.8034  0.7036 -0.9136
 7502TIP3    H243922   2.236   2.595   0.356 -1.5343 -0.1561  0.2941
 7503TIP3   OH243923   0.320   4.401  14.478 -0.6067 -0.0805 -0.5094
 7503TIP3    H143924   0.285   4.461  14.544  0.1924 -0.5967  0.4132
 7503TIP3    H243925   0.308   4.446  14.395  0.8625  1.8117  0.2420
 7504TIP3   OH243926   5.222   0.053  12.271  0.8725  0.8957  0.7060
 7504TIP3    H143927   5.135   0.048  12.312  0.3962  0.1652 -0.3342
 7504TIP3    H243928   5.203   0.065  12.178  1.8908  0.3351  0.4121
 7505TIP3   OH243929   2.024   1.477  16.715  0.7257 -0.6559  0.9306
 7505TIP3    H143930   1.954   1.475  16.780 -0.2502 -2.6031 -0.0916
 7505TIP3    H243931   2.055   1.386  16.709  0.9553 -0.5072 -1.0917
 7506TIP3   OH243932   0.363   0.993  16.884  0.1871  0.5707 -0.4060
 7506TIP3    H143933   0.346   0.967  16.975  0.2085  2.5836  0.2422
 7506TIP3    H243934   0.276   1.002  16.845  0.1533  0.3190 -0.3882
 7507TIP3   OH243935   1.685   6.183   1.877  0.3853  0.5518 -0.0521
 7507TIP3    H143936   1.664   6.273   1.902  2.8448  1.0235  0.5565
 7507TIP3    H243937   1.776   6.187   1.847  0.8966 -1.8719  0.9491
 7508TIP3   OH243938   4.163   5.628   3.192 -0.5973  0.3290 -0.8179
 7508TIP3    H143939   4.198   5.573   3.263 -1.0463  1.9200  0.7120
 7508TIP3    H243940   4.082   5.584   3.166 -0.8938  0.1854  0.2981
 7509TIP3   OH243941   1.732   0.600   4.823 -0.9619  0.2849  0.2980
 7509TIP3    H143942   1.778   0.532   4.872  0.4624  1.0539  0.0957
 7509TIP3    H243943   1.682   0.552   4.756  0.1536 -0.5663  0.0380
 7510TIP3   OH243944   0.188   4.460   0.607  0.5531  0.0265  0.2717
 7510TIP3    H143945   0.199   4.482   0.515  1.7873 -0.4712  0.2823
 7510TIP3    H243946   0.202   4.366   0.611 -1.0063 -0.2151  0.7629
 7511TIP3   OH243947   5.429   1.601   1.129  0.1480 -0.9551  0.2451
 7511TIP3    H143948   5.503   1.659   1.150  0.9371 -2.0188  0.4849
 7511TIP3    H243949   5.369   1.656   1.079  0.6050  0.2327  0.9554
 7512TIP3   OH243950   5.550   5.698   1.925  0.3172  0.0455 -0.9049
 7512TIP3    H143951   5.523   5.732   1.839 -1.7604  0.0645 -0.3122
 7512TIP3    H243952   5.517   5.763   1.987 -0.0466 -0.9824  0.0091
 7513TIP3   OH243953   0.327   2.948   6.213  0.1393 -0.4858 -0.3985
 7513TIP3    H143954   0.275   2.991   6.281 -0.0232 -0.2350 -0.6786
 7513TIP3    H243955   0.272   2.953   6.135  1.6087  2.1556 -1.4044
 7514TIP3   OH243956   0.974   5.910  16.865 -0.0017  0.1893 -0.5107
 7514TIP3    H143957   0.972   5.846  16.793 -0.2340  1.0281 -1.2725
 7514TIP3    H243958   1.058   5.896  16.907 -0.1737 -0.8283 -0.4630
 7515TIP3   OH243959   5.902   4.969   4.337 -0.2134 -0.2855 -0.5049
 7515TIP3    H143960   5.967   4.943   4.401 -1.3795  0.1720  0.9125
 7515TIP3    H243961   5.886   5.062   4.354  0.4114  0.2072 -2.3506
 7516TIP3   OH243962   3.532   2.453  13.322  0.8098 -0.3877 -0.1750
 7516TIP3    H143963   3.533   2.369  13.276 -0.5852 -1.6710  1.9605
 7516TIP3    H243964   3.440   2.468  13.342  1.0541  1.6196 -0.3839
 7517TIP3   OH243965   4.544   3.923  13.922 -0.5424 -0.7353  0.1543
 7517TIP3    H143966   4.596   3.985  13.873 -1.3872 -0.2750 -0.1825
 7517TIP3    H243967   4.582   3.922  14.010 -1.2213  1.1344  0.5040
 7518TIP3   OH243968   2.702   1.699   1.334  0.1291  0.0516 -0.5013
 7518TIP3    H143969   2.650   1.713   1.413 -0.1552 -0.1058 -0.6579
 7518TIP3    H243970   2.792   1.721   1.359  0.0044  0.2101 -0.1958
 7519TIP3   OH243971   2.798   6.672   2.038  0.1516  0.5857 -0.0453
 7519TIP3    H143972   2.854   6.750   2.045 -1.2944  1.6527  0.2226
 7519TIP3    H243973   2.859   6.600   2.023  1.5243  1.8060 -0.6144
 7520TIP3   OH243974   4.190   4.950   2.791 -0.0770  0.2488  0.3317
 7520TIP3    H143975   4.191   4.854   2.797 -0.3301  0.2400  0.2521
 7520TIP3    H243976   4.117   4.969   2.733 -0.1740  0.5008  0.5366
 7521TIP3   OH243977   0.246   5.690   5.535 -0.0645 -0.1560 -0.2435
 7521TIP3    H143978   0.336   5.700   5.503  0.0455 -1.0781 -0.2508
 7521TIP3    H243979   0.234   5.764   5.595  0.0074  1.1314 -1.7464
 7522TIP3   OH243980   0.470   3.211  12.093 -0.0400  0.6774 -0.7501
 7522TIP3    H143981   0.435   3.181  12.008  1.6565 -0.1169 -1.2146
 7522TIP3    H243982   0.519   3.290  12.072 -0.6964  1.2319 -0.2607
 7523TIP3   OH243983   3.394   6.043  11.625 -0.0396 -0.1837  0.5299
 7523TIP3    H143984   3.476   6.085  11.651  0.7798  0.3112 -2.4782
 7523TIP3    H243985   3.413   5.949  11.630  0.4699 -0.0794  0.6465
 7524TIP3   OH243986   2.505   0.476   0.393  0.1918 -0.7985  0.1110
 7524TIP3    H143987   2.588   0.522   0.378  0.9174 -1.5102  1.7318
 7524TIP3    H243988   2.484   0.495   0.484 -0.8364 -1.5687  0.0462
 7525TIP3   OH243989   6.216   3.268   0.955  0.3569 -0.0353  0.3110
 7525TIP3    H143990   6.144   3.237   1.010  0.2071 -1.5203 -0.6794
 7525TIP3    H243991   6.213   3.363   0.964 -1.1311 -0.1146  1.0370
 7526TIP3   OH243992   3.872   4.670   5.617  0.1850  0.7516 -0.1781
 7526TIP3    H143993   3.834   4.742   5.567 -0.8711  0.7982  0.6448
 7526TIP3    H243994   3.837   4.591   5.576  2.7825  0.5407 -2.2602
 7527TIP3   OH243995   5.253   5.818  16.621 -0.4356 -0.3366  0.0972
 7527TIP3    H143996   5.183   5.791  16.681 -1.0425 -0.8546 -0.8115
 7527TIP3    H243997   5.233   5.910  16.601  0.2405  0.0993  1.2977
 7528TIP3   OH243998   3.395   6.475   1.000  0.3420  0.4381  0.0300
 7528TIP3    H143999   3.396   6.566   0.969 -0.6364  0.2073 -0.7202
 7528TIP3    H244000   3.325   6.434   0.950 -0.7073 -0.1926  1.9231
 7529TIP3   OH244001   4.773   4.865  15.869 -0.5698 -0.7070 -0.1462
 7529TIP3    H144002   4.779   4.911  15.786 -0.9931 -0.4749 -0.0454
 7529TIP3    H244003   4.837   4.793  15.861 -0.4489 -0.5515 -0.5809
 7530TIP3   OH244004   1.299   6.549  14.787  0.4929 -0.2243  0.6893
 7530TIP3    H144005   1.278   6.506  14.870  0.5886  1.3883  1.5813
 7530TIP3    H244006   1.359   6.620  14.811  0.4098  0.3592 -0.7474
 7531TIP3   OH244007   2.028   3.201  15.272  0.1987 -0.0509 -0.8085
 7531TIP3    H144008   1.994   3.249  15.196  1.0745  2.4850  0.3015
 7531TIP3    H244009   1.963   3.214  15.340 -0.7331 -2.5752 -1.1061
 7532TIP3   OH244010   2.705   0.584   5.007  0.2075 -0.1442 -0.1364
 7532TIP3    H144011   2.726   0.599   4.914 -3.7217  0.0881 -1.1714
 7532TIP3    H244012   2.630   0.641   5.023 -0.0402 -1.1662  2.8534
 7533TIP3   OH244013   3.953   4.468   2.360 -0.3372 -0.2602  0.4582
 7533TIP3    H144014   3.924   4.523   2.433 -0.8292  0.2068 -0.0804
 7533TIP3    H244015   3.876   4.417   2.336  0.2845 -1.6849  1.3695
 7534TIP3   OH244016   5.207   1.540   2.623  0.1818  0.0948  0.0107
 7534TIP3    H144017   5.165   1.469   2.671 -0.3274  0.4157  0.0395
 7534TIP3    H244018   5.135   1.596   2.593  0.6432  1.9981  2.1348
 7535TIP3   OH244019   4.185   2.475   0.453 -0.0939 -0.7615  0.1107
 7535TIP3    H144020   4.183   2.394   0.402 -1.9567 -0.6742 -0.0251
 7535TIP3    H244021   4.109   2.469   0.511  1.7848 -0.7262  2.7292
 7536TIP3   OH244022   3.933   1.685  13.836  0.2407 -0.3031  0.6467
 7536TIP3    H144023   4.011   1.729  13.869 -0.8961  1.7335  0.7340
 7536TIP3    H244024   3.878   1.755  13.800 -1.4406 -1.6995  0.3330
 7537TIP3   OH244025   6.378   6.127  12.562 -0.2276 -0.0380 -0.2364
 7537TIP3    H144026   6.315   6.198  12.573  0.5301  0.4497  1.1218
 7537TIP3    H244027   6.463   6.168  12.575  0.2368 -1.1593  0.4496
 7538TIP3   OH244028   6.538   0.560   1.040 -0.2550 -0.2679  0.5164
 7538TIP3    H144029   6.450   0.526   1.055  0.7672 -2.4046  2.2779
 7538TIP3    H244030   6.579   0.496   0.982  1.2757 -1.4572  2.7647
 7539TIP3   OH244031   3.897   4.474   1.251  0.3041  0.6063  0.4979
 7539TIP3    H144032   3.803   4.469   1.265  0.2338  2.1470  0.7679
 7539TIP3    H244033   3.919   4.394   1.204 -0.9497 -0.3097  1.4070
 7540TIP3   OH244034   5.047   3.928  12.750  0.1881  0.3159  0.0167
 7540TIP3    H144035   5.132   3.915  12.709 -0.4001  0.6820 -1.3848
 7540TIP3    H244036   5.014   3.839  12.764  0.2067  0.1752 -0.7664
 7541TIP3   OH244037   3.083   6.397  13.089  0.4464 -0.0502 -0.4956
 7541TIP3    H144038   3.165   6.370  13.047  1.3977 -0.9493  1.7669
 7541TIP3    H244039   3.046   6.316  13.124  0.7555  0.8410  2.0859
 7542TIP3   OH244040   5.036   1.594   1.181 -0.4547  0.2062  0.4588
 7542TIP3    H144041   5.048   1.508   1.221 -1.8756  0.1348  0.7947
 7542TIP3    H244042   5.074   1.585   1.094 -0.4777 -0.7413  0.5296
 7543TIP3   OH244043   3.677   3.534   1.594  0.6432 -0.1610  0.1010
 7543TIP3    H144044   3.649   3.604   1.653  0.6748  1.5591 -1.8543
 7543TIP3    H244045   3.610   3.531   1.526  1.4997 -0.9305 -0.7369
 7544TIP3   OH244046   1.576   6.346   2.734  0.4154 -0.1260  0.0133
 7544TIP3    H144047   1.513   6.383   2.795 -1.1980  1.4066 -2.4298
 7544TIP3    H244048   1.534   6.267   2.700  1.0991 -0.7092  0.4836
 7545TIP3   OH244049   3.833   2.110   4.377  0.3288  0.0365  0.0351
 7545TIP3    H144050   3.921   2.074   4.384 -0.5368 -1.9218  1.7820
 7545TIP3    H244051   3.798   2.105   4.466 -1.7286  0.2575 -0.7139
 7546TIP3   OH244052   3.403   5.965   0.600  0.4028 -0.0442 -0.2117
 7546TIP3    H144053   3.343   5.903   0.643  0.3473  0.7278  0.8570
 7546TIP3    H244054   3.468   5.909   0.557  0.3230 -0.8551  0.6938
 7547TIP3   OH244055   0.298   6.529   4.632  0.8840  0.1115 -0.3546
 7547TIP3    H144056   0.345   6.511   4.713  1.6277 -1.2207 -1.0420
 7547TIP3    H244057   0.270   6.442   4.601 -3.7925  0.8722  0.9758
 7548TIP3   OH244058   3.031   5.198   4.586 -0.8643  0.2199 -0.1627
 7548TIP3    H144059   3.101   5.145   4.625 -0.9748 -0.3531 -0.7211
 7548TIP3    H244060   3.029   5.277   4.639  0.3223  0.3185 -0.2340
 7549TIP3   OH244061   5.248   5.707   1.691 -0.9965 -0.6903 -0.2172
 7549TIP3    H144062   5.342   5.725   1.688 -0.6800 -2.1937 -0.1162
 7549TIP3    H244063   5.209   5.771   1.631 -0.1403  1.1820  1.0984
 7550TIP3   OH244064   0.886   3.013   3.581  0.1226 -0.0334 -0.1178
 7550TIP3    H144065   0.963   2.961   3.605 -1.8260 -1.8859  2.7242
 7550TIP3    H244066   0.874   3.073   3.655 -1.3700 -0.0686 -0.3072
 7551TIP3   OH244067   5.570   6.471  15.579 -0.3093  0.3071  0.2536
 7551TIP3    H144068   5.552   6.377  15.585  0.7794  0.1581  2.2126
 7551TIP3    H244069   5.641   6.477  15.514 -0.7030 -0.1577 -0.2319
 7552TIP3   OH244070   2.920   1.003  15.935  0.1069 -0.3273 -0.5445
 7552TIP3    H144071   2.856   0.942  15.972  0.4754 -1.2577 -1.4103
 7552TIP3    H244072   3.005   0.965  15.956  0.3627  0.2274 -0.5409
 7553TIP3   OH244073   5.502   3.752  16.745 -0.1377  0.0592 -0.2584
 7553TIP3    H144074   5.465   3.763  16.833  1.8508 -0.5270  0.7147
 7553TIP3    H244075   5.594   3.731  16.760  0.1333 -0.6434 -2.4829
 7554TIP3   OH244076   1.170   6.769  13.572 -0.0131  0.5263  0.3675
 7554TIP3    H144077   1.104   6.792  13.637 -1.2911  0.5545 -0.9064
 7554TIP3    H244078   1.207   6.686  13.604 -0.0248  0.9426  1.5356
 7555TIP3   OH244079   0.553   0.005  16.035  0.0542 -0.0123  0.2248
 7555TIP3    H144080   0.533  -0.022  15.945  1.3306  0.1126 -0.1181
 7555TIP3    H244081   0.514   0.092  16.042 -2.8553 -1.2359  0.8832
 7556TIP3   OH244082   2.047   2.298  13.891 -0.0282 -0.4351  0.2289
 7556TIP3    H144083   2.093   2.226  13.848  1.5317 -0.7387  2.2551
 7556TIP3    H244084   2.105   2.374  13.880 -1.1290  0.2803 -0.9150
 7557TIP3   OH244085   5.121   2.658   4.857  0.2906  0.6148 -0.4186
 7557TIP3    H144086   5.150   2.568   4.868  1.3545  1.0967  1.0099
 7557TIP3    H244087   5.126   2.673   4.762 -0.4783 -0.9769 -0.7418
 7558TIP3   OH244088   0.136   0.489  11.217  0.5440 -0.6039 -0.0051
 7558TIP3    H144089   0.190   0.505  11.140  1.3237  3.2969  1.1222
 7558TIP3    H244090   0.048   0.514  11.191  0.6137 -0.2722  0.0749
 7559TIP3   OH244091   2.524   6.688   1.646  0.4984 -0.0441  0.3208
 7559TIP3    H144092   2.490   6.606   1.610 -1.1261  0.7922 -0.1349
 7559TIP3    H244093   2.607   6.702   1.599 -0.3700 -0.2267 -1.3424
 7560TIP3   OH244094   1.801   4.805  11.104  0.4799 -0.7780 -0.4721
 7560TIP3    H144095   1.730   4.784  11.043  1.2061 -2.1581 -0.8841
 7560TIP3    H244096   1.767   4.877  11.157  0.4214  1.6233 -3.5418
 7561TIP3   OH244097   3.502   6.349   5.646 -0.1419  0.8654 -0.1121
 7561TIP3    H144098   3.525   6.315   5.559 -1.0576  0.4820 -0.2237
 7561TIP3    H244099   3.472   6.438   5.630 -0.3077  0.7959 -0.1947
 7562TIP3   OH244100   3.518   4.197   5.610  0.1757  0.2739 -0.4252
 7562TIP3    H144101   3.530   4.268   5.673  3.2239 -0.3805 -0.0774
 7562TIP3    H244102   3.495   4.241   5.528 -0.9703  1.3669  0.4450
 7563TIP3   OH244103   6.735   4.274   2.729  0.0649  0.3472 -0.2745
 7563TIP3    H144104   6.812   4.274   2.671  0.0411  0.5326 -0.3059
 7563TIP3    H244105   6.683   4.348   2.700 -0.1958  0.1417 -0.3419
 7564TIP3   OH244106   4.663   2.918  15.496  0.2934 -1.0433 -0.5340
 7564TIP3    H144107   4.719   2.974  15.443 -1.8779  0.2661 -1.5687
 7564TIP3    H244108   4.632   2.851  15.435  0.9346 -1.9625  0.1138
 7565TIP3   OH244109   6.462   0.527  11.853  0.3288 -0.1888 -0.2009
 7565TIP3    H144110   6.500   0.443  11.829 -1.0811 -0.9425  0.0730
 7565TIP3    H244111   6.472   0.533  11.948 -0.1863 -0.3804 -0.1299
 7566TIP3   OH244112   1.111   4.135   2.042 -0.0873 -0.2780  0.2505
 7566TIP3    H144113   1.127   4.224   2.072 -2.1264  0.3270 -0.2887
 7566TIP3    H244114   1.169   4.124   1.967  0.3829  0.5107  0.4896
 7567TIP3   OH244115   2.954   1.572  12.319 -0.1017 -0.1861 -0.4714
 7567TIP3    H144116   2.942   1.659  12.281 -1.7575 -0.1248  0.0975
 7567TIP3    H244117   2.882   1.564  12.382 -0.9087 -2.5471 -1.5802
 7568TIP3   OH244118   1.736   3.362  13.935  0.1165 -0.2793 -0.6268
 7568TIP3    H144119   1.747   3.358  13.840 -2.1376 -0.1694 -0.9350
 7568TIP3    H244120   1.710   3.453  13.952 -0.0908 -0.4558  0.0272
 7569TIP3   OH244121   2.682   3.063  14.043 -0.2510 -0.0511  0.7129
 7569TIP3    H144122   2.685   3.156  14.067 -1.1276 -0.4813  2.6902
 7569TIP3    H244123   2.589   3.040  14.050 -0.0506 -1.0733  0.1530
 7570TIP3   OH244124   2.183   5.639   4.398 -0.1844 -0.1843  0.0086
 7570TIP3    H144125   2.232   5.586   4.335 -0.0559 -1.3975  1.0773
 7570TIP3    H244126   2.113   5.582   4.428 -0.9525  0.7885  0.1097
 7571TIP3   OH244127   0.406   6.310  14.273  0.9584 -0.2053  0.2904
 7571TIP3    H144128   0.339   6.338  14.336 -0.6501 -0.9676 -0.9941
 7571TIP3    H244129   0.367   6.234  14.230  2.1840  0.0415 -1.3339
 7572TIP3   OH244130   4.784   1.550  12.372  0.2807  0.5332 -0.3799
 7572TIP3    H144131   4.815   1.555  12.463  1.6500  1.1921 -0.8631
 7572TIP3    H244132   4.748   1.462  12.365 -0.2554  0.6170  0.9240
 7573TIP3   OH244133   4.889   4.630   3.879 -0.3300 -0.1614  0.5700
 7573TIP3    H144134   4.814   4.644   3.821 -0.4629 -0.1580  0.7433
 7573TIP3    H244135   4.884   4.537   3.903  0.8385 -0.6796 -0.9821
 7574TIP3   OH244136   0.208   2.641   1.971  0.1568  0.6804  0.4665
 7574TIP3    H144137   0.148   2.580   2.012 -0.3842  1.6991  1.2472
 7574TIP3    H244138   0.273   2.586   1.927  0.7027 -0.4588  2.5984
 7575TIP3   OH244139   6.745   3.639   0.872 -0.7949  0.1572 -1.0559
 7575TIP3    H144140   6.835   3.669   0.858 -0.4779 -0.4276 -0.3328
 7575TIP3    H244141   6.710   3.622   0.784  0.2703 -0.9724 -1.2814
 7576TIP3   OH244142   4.741   1.508  16.218  0.1205  0.4017  0.3527
 7576TIP3    H144143   4.788   1.447  16.162 -0.0302  2.0545 -1.6759
 7576TIP3    H244144   4.809   1.542  16.277  0.8276  0.4452 -0.4587
 7577TIP3   OH244145   2.490   2.381   1.235 -0.4784 -0.9040  0.0439
 7577TIP3    H144146   2.547   2.348   1.165 -0.7625  1.5983 -1.4899
 7577TIP3    H244147   2.530   2.349   1.316  0.6922 -2.6973 -1.1666
 7578TIP3   OH244148   1.738   2.425   3.634  0.3331  0.3608 -0.2199
 7578TIP3    H144149   1.798   2.489   3.670  0.7354  0.2019 -0.5925
 7578TIP3    H244150   1.782   2.341   3.647 -0.8724 -0.0322  1.6957
 7579TIP3   OH244151   2.218   5.969  12.703 -0.4324  0.0726  0.4043
 7579TIP3    H144152   2.208   6.059  12.735  2.3591  0.5590  0.1900
 7579TIP3    H244153   2.246   5.919  12.780 -2.5460 -0.8187  0.6615
 7580TIP3   OH244154   5.008   1.526   2.048 -0.2687 -0.1444  0.8482
 7580TIP3    H144155   5.040   1.510   2.137 -1.5852  1.3622  1.6347
 7580TIP3    H244156   4.940   1.592   2.058 -0.9194 -0.4272 -1.2198
 7581TIP3   OH244157   2.500   0.057  16.541  0.2725 -0.0115  0.0589
 7581TIP3    H144158   2.499   0.049  16.637  2.4653  2.0742  0.3457
 7581TIP3    H244159   2.587   0.093  16.521 -0.3712  0.2163 -2.6853
 7582TIP3   OH244160   0.570   2.946  11.563  0.3251  0.4256  0.4066
 7582TIP3    H144161   0.592   2.967  11.654  0.8199 -0.3128  0.4662
 7582TIP3    H244162   0.620   2.866  11.544 -1.2698 -0.5399  0.1056
 7583TIP3   OH244163   4.190   3.979  12.038 -0.0495 -0.5615  0.4640
 7583TIP3    H144164   4.130   3.961  11.966 -0.3205  0.2193  0.4827
 7583TIP3    H244165   4.219   4.069  12.022 -1.9369  0.5119  2.6206
 7584TIP3   OH244166   5.748   0.649  12.809  0.2770 -0.2442 -0.4236
 7584TIP3    H144167   5.688   0.636  12.883  2.5992 -0.1188  1.6179
 7584TIP3    H244168   5.749   0.565  12.763  1.9993 -1.8780  2.3159
 7585TIP3   OH244169   0.432   5.462   3.691 -0.8335  0.2067 -0.0544
 7585TIP3    H144170   0.435   5.378   3.646 -1.6112 -0.7179  1.5305
 7585TIP3    H244171   0.384   5.519   3.631 -0.6105 -0.5672 -0.9974
 7586TIP3   OH244172   2.436   6.651  11.777  0.2069  0.4396 -0.1258
 7586TIP3    H144173   2.453   6.648  11.683 -0.3338 -0.3266 -0.2043
 7586TIP3    H244174   2.520   6.672  11.816  0.7794 -0.7281 -0.6804
 7587TIP3   OH244175   4.465   5.338  11.498 -0.7918  0.3932 -0.6168
 7587TIP3    H144176   4.455   5.309  11.588 -0.1511 -0.1796 -0.7180
 7587TIP3    H244177   4.416   5.420  11.493  0.2089  1.1095  0.5924
 7588TIP3   OH244178   1.935   5.533  12.191  0.0467  0.0216  0.4049
 7588TIP3    H144179   2.025   5.562  12.174  0.5690 -2.0655 -0.7163
 7588TIP3    H244180   1.882   5.587  12.133  0.8668 -0.4641 -0.8436
 7589TIP3   OH244181   5.046   5.435  14.250  0.2568 -0.5141 -0.2283
 7589TIP3    H144182   5.134   5.454  14.217  0.3093  0.1374  0.2771
 7589TIP3    H244183   5.022   5.512  14.301 -0.5197 -0.7854 -0.1698
 7590TIP3   OH244184   5.309   4.615   4.608 -0.0314 -0.1314 -0.2577
 7590TIP3    H144185   5.376   4.658   4.661 -0.5403 -0.2005  0.4664
 7590TIP3    H244186   5.230   4.665   4.624 -0.3402 -0.5581 -0.4252
 7591TIP3   OH244187   4.373   0.896   0.564  0.0951 -0.0381  0.0310
 7591TIP3    H144188   4.394   0.984   0.594 -0.0811  0.4837 -1.2918
 7591TIP3    H244189   4.453   0.866   0.521 -0.2158 -0.0448 -0.5586
 7592TIP3   OH244190   4.902   3.908  10.684  0.7706  0.4935  0.1068
 7592TIP3    H144191   4.857   3.967  10.624  1.4556 -0.4450 -1.3868
 7592TIP3    H244192   4.952   3.965  10.742 -1.0926  1.4900  0.8182
 7593TIP3   OH244193   4.807   3.028  17.202  0.7049 -0.0851  0.2275
 7593TIP3    H144194   4.826   3.061  17.114 -0.9565 -1.0793 -0.5430
 7593TIP3    H244195   4.740   3.087  17.236  0.7984 -0.1576  0.5399
 7594TIP3   OH244196   1.682   3.711  13.057 -0.0848 -0.0859  0.3558
 7594TIP3    H144197   1.646   3.626  13.082 -1.7949  0.3951 -0.2985
 7594TIP3    H244198   1.777   3.697  13.054 -0.3048 -1.9156  0.4410
 7595TIP3   OH244199   0.507   3.591   5.011  1.0730 -0.3636  0.4187
 7595TIP3    H144200   0.570   3.604   5.082  0.5020 -0.6714  0.9963
 7595TIP3    H244201   0.467   3.506   5.030 -0.7429  0.5790  1.0455
 7596TIP3   OH244202   5.748   5.454  16.309  0.3037  0.1539  0.0680
 7596TIP3    H144203   5.739   5.549  16.297  0.8513  0.0734 -1.1463
 7596TIP3    H244204   5.658   5.422  16.311  0.1282  0.5436 -0.9998
 7597TIP3   OH244205   1.925   3.365  12.094 -0.1288  0.0605 -0.5660
 7597TIP3    H144206   1.848   3.311  12.114  0.8969 -1.0334  0.6462
 7597TIP3    H244207   1.943   3.349  12.001 -0.1615 -1.3159 -0.3501
 7598TIP3   OH244208   4.950   2.602  14.157  0.1344 -0.4335 -0.3022
 7598TIP3    H144209   4.860   2.628  14.139 -0.5000 -0.0184  2.8666
 7598TIP3    H244210   4.989   2.679  14.199  1.7306 -0.8937 -0.8744
 7599TIP3   OH244211   0.206   4.693   3.235 -0.1115  0.1951  0.5616
 7599TIP3    H144212   0.165   4.709   3.150 -0.8630  0.0058  0.8822
 7599TIP3    H244213   0.300   4.705   3.219 -0.2748  0.4890 -0.2153
 7600TIP3   OH244214   5.929   3.778  16.662  0.0369  0.0391 -0.4865
 7600TIP3    H144215   5.856   3.717  16.668 -2.2790  2.2172 -3.3471
 7600TIP3    H244216   5.963   3.765  16.573  2.9520 -0.5917  0.6132
 7601TIP3   OH244217   6.343   1.119   0.725 -0.7322 -0.0331  0.1085
 7601TIP3    H144218   6.335   1.115   0.820 -0.7568  1.0592  0.1661
 7601TIP3    H244219   6.400   1.195   0.709  0.0050 -0.7418 -0.7136
 7602TIP3   OH244220   3.964   2.659   0.970  0.2939  0.2707 -0.1098
 7602TIP3    H144221   3.906   2.680   0.897  3.0281 -1.6737 -3.1670
 7602TIP3    H244222   3.916   2.596   1.023 -2.7476  3.5935  1.4660
 7603TIP3   OH244223   2.726   0.884   5.237 -0.1800  0.2230  0.5856
 7603TIP3    H144224   2.682   0.865   5.154  1.4394  1.3082 -0.5972
 7603TIP3    H244225   2.735   0.980   5.237 -2.3064  0.5339  3.2167
 7604TIP3   OH244226   0.672   5.609   0.455  0.7065 -0.2068 -0.3019
 7604TIP3    H144227   0.657   5.656   0.373 -0.4600  0.4175  0.2472
 7604TIP3    H244228   0.621   5.528   0.446  0.9002 -0.3253 -0.3462
 7605TIP3   OH244229   1.756   1.975  15.958 -0.6727 -0.2146 -0.4924
 7605TIP3    H144230   1.779   1.893  16.002  0.0736 -0.3681 -1.1408
 7605TIP3    H244231   1.831   1.992  15.900  0.9499  2.8002  2.1914
 7606TIP3   OH244232   4.169   2.805  16.117  0.1972  0.0125  0.0672
 7606TIP3    H144233   4.100   2.795  16.052 -0.4217 -2.5301  1.0234
 7606TIP3    H244234   4.123   2.812  16.200  1.0539  0.7836  0.4956
 7607TIP3   OH244235   2.340   0.160  16.287 -0.8672 -0.2698 -0.2479
 7607TIP3    H144236   2.388   0.152  16.204 -0.4144  1.5792 -0.2270
 7607TIP3    H244237   2.391   0.109  16.349 -1.0842 -1.4947 -1.0520
 7608TIP3   OH244238   2.463   1.056   0.630 -0.0158 -0.1076 -0.0965
 7608TIP3    H144239   2.434   0.999   0.559  0.3019 -1.3180  0.7148
 7608TIP3    H244240   2.558   1.047   0.632 -0.0692 -0.5938  0.8825
 7609TIP3   OH244241   2.509   2.631   5.326 -0.0646  0.2941  0.1666
 7609TIP3    H144242   2.491   2.540   5.302  1.2411  0.3870 -1.3721
 7609TIP3    H244243   2.572   2.626   5.398 -0.2191 -0.0193  0.2791
 7610TIP3   OH244244   3.549   4.723  15.572  0.1482 -0.8092 -0.6236
 7610TIP3    H144245   3.589   4.646  15.531 -0.2568 -1.2047 -0.2818
 7610TIP3    H244246   3.460   4.695  15.592  0.0586 -0.3065 -0.3273
 7611TIP3   OH244247   0.346   1.678   2.118 -0.0804 -0.9727  0.5284
 7611TIP3    H144248   0.384   1.601   2.159 -0.1657 -0.6668  1.1865
 7611TIP3    H244249   0.398   1.691   2.039 -0.8134 -2.4080 -0.2464
 7612TIP3   OH244250   2.546   2.750   0.314  0.0681  0.5842 -0.1658
 7612TIP3    H144251   2.489   2.739   0.239 -0.0334  1.7168 -0.2706
 7612TIP3    H244252   2.620   2.691   0.297 -0.5341 -0.0761 -0.5452
 7613TIP3   OH244253   2.644   6.245  10.900  0.0112  0.3431  0.5857
 7613TIP3    H144254   2.626   6.152  10.908 -1.8936  0.3642 -2.0190
 7613TIP3    H244255   2.737   6.254  10.923  0.0484 -2.0215  1.6616
 7614TIP3   OH244256   3.338   2.680  11.815 -0.1212 -0.3514 -0.0887
 7614TIP3    H144257   3.387   2.628  11.879  0.9381  0.8465  0.0937
 7614TIP3    H244258   3.246   2.667  11.840  0.2290 -0.5443  1.1927
 7615TIP3   OH244259   0.416   6.626  17.159 -0.5950  0.5332 -0.5249
 7615TIP3    H144260   0.392   6.547  17.111  0.5707 -0.3470  0.2923
 7615TIP3    H244261   0.511   6.623  17.165 -0.6096  1.4445  0.4458
 7616TIP3   OH244262   2.764   1.381   1.890 -0.1226  0.0597 -0.2170
 7616TIP3    H144263   2.701   1.313   1.866 -0.2844 -0.2573  0.9972
 7616TIP3    H244264   2.847   1.350   1.853 -0.3485 -0.4200 -0.3367
 7617TIP3   OH244265   4.009   6.174   2.582  0.0034 -0.0019  0.2176
 7617TIP3    H144266   4.083   6.130   2.540 -1.1303 -0.1680 -1.7517
 7617TIP3    H244267   3.934   6.118   2.562 -1.0956  1.5817 -0.2419
 7618TIP3   OH244268   2.631   0.267   2.690 -0.6120 -0.6750  0.2787
 7618TIP3    H144269   2.606   0.175   2.697 -1.4061 -0.5008 -0.2275
 7618TIP3    H244270   2.725   0.267   2.708 -0.6129 -1.5764  0.3373
 7619TIP3   OH244271   6.552   5.735   2.072  0.7107 -0.2194 -0.4697
 7619TIP3    H144272   6.560   5.712   2.165 -0.5348 -0.3597 -0.3763
 7619TIP3    H244273   6.567   5.829   2.069  0.5423 -0.1773 -0.0932
 7620TIP3   OH244274   1.234   5.792  15.120  0.2077 -0.3870 -0.0681
 7620TIP3    H144275   1.281   5.821  15.198 -1.5982 -1.7231  1.5945
 7620TIP3    H244276   1.141   5.806  15.141 -0.3333 -0.8134 -1.9716
 7621TIP3   OH244277   5.091   3.521   4.863  0.5315 -0.2452  0.3660
 7621TIP3    H144278   5.050   3.443   4.900  0.2700 -0.3887 -0.2073
 7621TIP3    H244279   5.135   3.563   4.937  3.0462 -2.4036  0.2329
 7622TIP3   OH244280   0.168   4.786   3.840 -0.0684  0.3692  0.2252
 7622TIP3    H144281   0.153   4.795   3.746  1.3208 -1.2361 -0.1916
 7622TIP3    H244282   0.255   4.747   3.848 -0.9983 -1.6120  2.0697
 7623TIP3   OH244283   4.724   5.541  12.661 -0.2667 -0.9626  0.5014
 7623TIP3    H144284   4.808   5.499  12.679  1.1491  1.8269  0.9673
 7623TIP3    H244285   4.672   5.473  12.618  2.1000 -2.8899  0.4770
 7624TIP3   OH244286   5.790   3.172  17.084  0.3767  0.1621 -0.1295
 7624TIP3    H144287   5.776   3.081  17.109  1.0224 -0.0938 -0.6775
 7624TIP3    H244288   5.735   3.222  17.145  0.4779 -0.5531  0.5669
 7625TIP3   OH244289   0.142   4.793   2.060 -0.2751  0.2905  0.1904
 7625TIP3    H144290   0.175   4.850   1.991 -0.0934 -1.8234 -1.6065
 7625TIP3    H244291   0.211   4.793   2.126  0.2990  1.1135 -0.3930
 7626TIP3   OH244292   4.030   4.894   1.765 -0.1772  0.2388 -0.0079
 7626TIP3    H144293   4.020   4.932   1.853  0.6132  0.1615  0.1305
 7626TIP3    H244294   4.010   4.801   1.777  2.4652 -0.3238  0.6940
 7627TIP3   OH244295   0.160   6.081   5.068  0.4593  0.0022  0.0285
 7627TIP3    H144296   0.084   6.115   5.117  0.4836 -0.4729  0.4077
 7627TIP3    H244297   0.200   6.159   5.030 -0.2740  0.2524 -0.2585
 7628TIP3   OH244298   5.473   6.157  15.091 -0.9123  0.3627  0.1052
 7628TIP3    H144299   5.492   6.157  15.184  0.8524  0.8675 -0.2247
 7628TIP3    H244300   5.529   6.088  15.055 -1.5327  0.2108 -0.6049
 7629TIP3   OH244301   1.606   4.898  17.179  0.0719  0.0588 -0.0837
 7629TIP3    H144302   1.631   4.839  17.109 -0.0913  1.2068 -1.1490
 7629TIP3    H244303   1.517   4.927  17.157  0.4253  1.2794 -0.0219
 7630TIP3   OH244304   2.823   2.563  13.990 -0.1147 -0.1061 -0.0131
 7630TIP3    H144305   2.848   2.476  13.957  1.3530  0.8636 -1.6716
 7630TIP3    H244306   2.866   2.569  14.076  0.4646 -0.7088 -0.2503
 7631TIP3   OH244307   2.592   0.580  16.491 -0.2979 -0.3586 -0.5597
 7631TIP3    H144308   2.635   0.610  16.571 -0.9229  0.5317 -0.5391
 7631TIP3    H244309   2.499   0.578  16.513 -0.2321 -3.9590 -0.0485
 7632TIP3   OH244310   6.492   2.031  13.163  0.2341  0.0568  0.3874
 7632TIP3    H144311   6.457   1.942  13.169 -0.2153  0.1509 -0.5587
 7632TIP3    H244312   6.437   2.082  13.222  0.8052 -0.3740  1.3100
 7633TIP3   OH244313   0.564   0.039  15.222 -0.4352  0.4432  0.0766
 7633TIP3    H144314   0.512   0.078  15.292 -1.0129  0.5439 -0.3940
 7633TIP3    H244315   0.501   0.023  15.152  0.3254  1.4433 -0.8698
 7634TIP3   OH244316   0.367   5.690  10.205 -0.4802 -0.1876 -1.0087
 7634TIP3    H144317   0.300   5.751  10.174 -0.5824 -0.9030 -2.2529
 7634TIP3    H244318   0.317   5.619  10.245 -0.3623  0.4480  0.3584
 7635TIP3   OH244319   3.803   5.705  15.674  0.1786  0.2960  0.1684
 7635TIP3    H144320   3.787   5.796  15.648  1.2745  0.8335  1.2373
 7635TIP3    H244321   3.831   5.712  15.766 -2.6785 -1.3797  1.3106
 7636TIP3   OH244322   0.616   6.190  13.147  0.1346  0.0312  0.1404
 7636TIP3    H144323   0.679   6.120  13.166  0.8311  0.6995  0.3342
 7636TIP3    H244324   0.666   6.255  13.097 -0.1061  1.0500  1.1690
 7637TIP3   OH244325   6.684   6.505   4.140  0.4981  0.4431 -0.3475
 7637TIP3    H144326   6.676   6.595   4.111  0.6474  0.4134 -0.4818
 7637TIP3    H244327   6.769   6.476   4.107 -0.1037 -0.1539 -1.4293
 7638TIP3   OH244328   2.720   5.515  17.131 -0.2707 -0.7457 -0.2637
 7638TIP3    H144329   2.670   5.596  17.129  1.4282  0.3259 -0.4331
 7638TIP3    H244330   2.677   5.459  17.065  1.3046  1.7203 -3.6548
 7639TIP3   OH244331   5.875   4.533   5.605 -0.4078  0.1201 -0.2600
 7639TIP3    H144332   5.845   4.508   5.692  1.8538  0.0131  0.5655
 7639TIP3    H244333   5.932   4.461   5.578 -0.5937  0.4403 -1.5673
 7640TIP3   OH244334   2.089   3.479  12.963  0.1222 -0.4870 -0.0622
 7640TIP3    H144335   2.159   3.446  13.020  0.3193  0.2275  0.1183
 7640TIP3    H244336   2.029   3.405  12.954  1.0994 -1.2503 -0.5498
 7641TIP3   OH244337   5.265   3.074  11.302 -0.0993  0.3767 -0.2107
 7641TIP3    H144338   5.282   3.021  11.224 -0.2768  0.1172 -0.0728
 7641TIP3    H244339   5.180   3.043  11.335  0.6939 -0.5978  0.9853
 7642TIP3   OH244340   5.091   1.999  12.516 -0.1337  0.0707 -0.6487
 7642TIP3    H144341   5.161   1.936  12.498  0.6246  1.1185 -1.4848
 7642TIP3    H244342   5.086   2.002  12.612  0.2443 -0.7880 -0.5892
 7643TIP3   OH244343   4.178   5.761  10.445  0.1067  0.0906 -0.0585
 7643TIP3    H144344   4.195   5.682  10.496 -1.8150  0.1985  0.8366
 7643TIP3    H244345   4.264   5.799  10.428  0.8962 -0.8772  1.6203
 7644TIP3   OH244346   2.546   3.329  12.324 -0.4231  0.4016  0.1999
 7644TIP3    H144347   2.640   3.342  12.326 -0.4678  0.6293  1.5903
 7644TIP3    H244348   2.534   3.234  12.320 -0.1389  0.3806 -0.1500
 7645TIP3   OH244349   1.121   5.099   0.562 -0.2193 -0.0581  0.4230
 7645TIP3    H144350   1.052   5.039   0.536 -1.6319  0.8438  1.9008
 7645TIP3    H244351   1.194   5.080   0.503 -0.8285 -2.7489  0.4349
 7646TIP3   OH244352   5.694   2.033   3.215 -0.0501 -0.2936 -0.3987
 7646TIP3    H144353   5.722   2.112   3.260 -0.9937 -1.0471  1.6492
 7646TIP3    H244354   5.625   2.062   3.156  0.6013  0.6007 -0.7456
 7647TIP3   OH244355   5.470   0.758   0.359 -0.8095 -0.0471 -0.6134
 7647TIP3    H144356   5.385   0.797   0.380  0.1552  0.9903  1.6829
 7647TIP3    H244357   5.534   0.815   0.401  0.9405 -1.9096 -0.5770
 7648TIP3   OH244358   3.638   2.393   5.271 -0.1510 -0.0984 -0.3164
 7648TIP3    H144359   3.708   2.380   5.207 -0.9750  0.4056 -1.3608
 7648TIP3    H244360   3.564   2.423   5.219 -0.7088  0.8058  0.9579
 7649TIP3   OH244361   3.288   0.598  15.158 -0.3568 -0.0249  0.1092
 7649TIP3    H144362   3.225   0.533  15.189 -0.2189 -0.5227 -0.6443
 7649TIP3    H244363   3.241   0.681  15.163 -0.5297 -0.1672  1.0883
 7650TIP3   OH244364   3.373   2.575  14.441 -0.1929  0.6836 -0.1541
 7650TIP3    H144365   3.383   2.551  14.349 -2.6320  0.5135 -0.4247
 7650TIP3    H244366   3.303   2.640  14.442 -2.5289 -1.6360  1.8017
 7651TIP3   OH244367   0.367   5.148  14.575 -0.2055 -0.1337 -0.3066
 7651TIP3    H144368   0.273   5.162  14.562  0.0513 -0.1490 -2.6777
 7651TIP3    H244369   0.409   5.202  14.507  1.5417  0.2938  1.0424
 7652TIP3   OH244370   5.469   2.094  13.930  0.6198 -0.0688  0.1322
 7652TIP3    H144371   5.525   2.161  13.890  0.6372 -0.4151 -0.4376
 7652TIP3    H244372   5.384   2.105  13.887  0.1838  0.5792  1.1314
 7653TIP3   OH244373   0.623   3.363  15.285  0.0098 -0.2397 -0.3848
 7653TIP3    H144374   0.631   3.375  15.191  1.7803 -0.7766 -0.3240
 7653TIP3    H244375   0.597   3.449  15.318 -0.2083  0.0562 -1.3100
 7654TIP3   OH244376   6.148   4.533  11.427  0.5122  0.2388  0.0530
 7654TIP3    H144377   6.073   4.536  11.487  0.1985  0.4468 -0.3439
 7654TIP3    H244378   6.125   4.466  11.364  0.3034  0.8580 -0.5368
 7655TIP3   OH244379   0.697   2.686  12.522  0.0720  0.1297 -0.2959
 7655TIP3    H144380   0.707   2.772  12.482  1.2570  0.5288  0.7840
 7655TIP3    H244381   0.776   2.675  12.576 -0.9003 -0.8643  0.9874
 7656TIP3   OH244382   0.700   0.190   1.304 -0.1040  0.0926 -0.4260
 7656TIP3    H144383   0.673   0.180   1.212  1.4540 -1.1961 -0.7807
 7656TIP3    H244384   0.794   0.209   1.300 -0.4802  2.8193  0.8381
 7657TIP3   OH244385   2.159   4.995   4.769 -0.0862 -0.1161 -0.3340
 7657TIP3    H144386   2.194   5.081   4.749  0.9515  0.3065  2.8167
 7657TIP3    H244387   2.229   4.934   4.745  0.0043  0.1005 -0.6184
 7658TIP3   OH244388   3.007   1.279  10.720  0.2338  0.7524 -0.1257
 7658TIP3    H144389   3.052   1.305  10.639  1.3506  1.1187  0.5819
 7658TIP3    H244390   3.022   1.185  10.726  1.6855  1.0053  0.5385
 7659TIP3   OH244391   6.775   0.710   2.458 -0.0838  0.2625 -0.3885
 7659TIP3    H144392   6.839   0.647   2.492 -0.8266 -0.9854 -1.2120
 7659TIP3    H244393   6.719   0.730   2.532 -0.5751 -1.0048 -0.4002
 7660TIP3   OH244394   2.593   2.868   4.052 -0.2134  0.7828 -0.2824
 7660TIP3    H144395   2.500   2.883   4.063 -0.5384 -1.4176  0.7018
 7660TIP3    H244396   2.619   2.822   4.133  1.0681 -1.1570 -1.6942
 7661TIP3   OH244397   1.044   4.701  16.112  0.1122  0.5335 -0.2845
 7661TIP3    H144398   1.013   4.764  16.177 -0.2887 -1.5152  1.6062
 7661TIP3    H244399   0.975   4.700  16.045 -0.0209  1.8119 -0.1972
 7662TIP3   OH244400   1.982   4.324  16.708 -0.2869 -0.0653 -0.0111
 7662TIP3    H144401   1.998   4.231  16.690  1.9245  0.4006 -0.6634
 7662TIP3    H244402   2.059   4.369  16.674 -2.7751  2.4072 -2.9551
 7663TIP3   OH244403   6.628   5.805  10.521 -0.4120  1.0333 -0.4884
 7663TIP3    H144404   6.570   5.869  10.479  0.4972  1.5214 -1.0332
 7663TIP3    H244405   6.610   5.723  10.476 -0.4886  1.2421 -0.8408
 7664TIP3   OH244406   1.977   4.561   3.744 -0.3721  0.0346 -0.5252
 7664TIP3    H144407   1.960   4.556   3.650 -1.5431  0.9611 -0.3824
 7664TIP3    H244408   1.935   4.643   3.772 -1.7754 -1.1855  1.1597
 7665TIP3   OH244409   0.590   0.662   6.026 -0.1171  0.0235 -0.1798
 7665TIP3    H144410   0.565   0.747   5.990  1.0452  0.6086  0.3275
 7665TIP3    H244411   0.651   0.684   6.098  0.1232 -1.2262  0.0138
 7666TIP3   OH244412   6.006   4.723  12.978 -0.0230  0.0841 -0.2094
 7666TIP3    H144413   6.080   4.665  12.997 -0.5389 -0.1009  1.3276
 7666TIP3    H244414   5.964   4.683  12.901 -0.7840 -2.0526  1.2121
 7667TIP3   OH244415   5.635   6.087  10.926 -0.7644 -0.1300 -0.3825
 7667TIP3    H144416   5.680   6.030  10.988 -1.4633  0.3281  0.5645
 7667TIP3    H244417   5.678   6.070  10.842 -0.0120 -0.9838  0.1639
 7668TIP3   OH244418   6.130   6.003   5.288  0.0110 -0.1301 -0.2998
 7668TIP3    H144419   6.079   6.009   5.369 -0.3496 -1.9033 -0.3502
 7668TIP3    H244420   6.168   6.090   5.277  2.2263 -0.4742  3.1546
 7669TIP3   OH244421   0.747   0.257   5.391 -0.2136 -0.0598  0.0468
 7669TIP3    H144422   0.670   0.207   5.419 -1.5733  1.8008 -0.1726
 7669TIP3    H244423   0.815   0.234   5.454 -1.1181 -1.3178  0.6048
 7670TIP3   OH244424   2.635   3.477  11.245  0.0784  0.0559  0.5973
 7670TIP3    H144425   2.662   3.396  11.201 -1.5127 -0.0312 -0.2775
 7670TIP3    H244426   2.564   3.511  11.191  1.4290  2.6590  0.3029
 7671TIP3   OH244427   6.154   5.970  14.329  0.0687 -0.5082  0.1404
 7671TIP3    H144428   6.106   5.928  14.400  0.2863  0.3187  0.7836
 7671TIP3    H244429   6.110   5.939  14.250  0.0809 -1.7619  0.5947
 7672TIP3   OH244430   5.444   3.861  17.025 -0.1464  0.7899  0.4167
 7672TIP3    H144431   5.491   3.866  17.109 -0.2654 -0.1685  0.5534
 7672TIP3    H244432   5.476   3.936  16.975  0.4598  0.9657  1.0535
 7673TIP3   OH244433   4.572   4.665  13.784 -0.2186  0.3716 -0.3983
 7673TIP3    H144434   4.552   4.580  13.745 -1.2653  0.2667  0.3407
 7673TIP3    H244435   4.629   4.708  13.719  0.3230 -0.8724 -0.7820
 7674TIP3   OH244436   5.257   0.132   0.799  0.3164  0.8154 -0.5811
 7674TIP3    H144437   5.283   0.131   0.890  0.2663 -3.1468 -0.4584
 7674TIP3    H244438   5.162   0.120   0.801  0.4199 -0.1898 -1.1227
 7675TIP3   OH244439   6.462   5.407  15.990  0.2771 -0.0751  0.5886
 7675TIP3    H144440   6.439   5.500  15.994  2.3268  0.4526  3.7561
 7675TIP3    H244441   6.556   5.406  15.975  0.3494 -1.6188  0.9992
 7676TIP3   OH244442   0.206   3.808   1.158 -0.0259 -0.3402 -0.0268
 7676TIP3    H144443   0.134   3.781   1.215  0.3563 -1.1604  0.0833
 7676TIP3    H244444   0.268   3.735   1.161  0.0885 -0.3214 -1.3513
 7677TIP3   OH244445   6.035   3.068   5.434  0.7335 -0.4293  0.2822
 7677TIP3    H144446   6.057   3.039   5.346 -1.0109 -1.1763  0.0400
 7677TIP3    H244447   6.096   3.019   5.491  1.2592 -0.6403 -0.4445
 7678TIP3   OH244448   2.102   5.641  16.510  0.0561 -0.8790 -0.1429
 7678TIP3    H144449   2.181   5.599  16.475 -0.1435 -2.7082  1.4302
 7678TIP3    H244450   2.083   5.593  16.591 -2.1869  0.0700 -0.0306
 7679TIP3   OH244451   4.394   6.214  16.628 -0.4160 -0.2223  0.5952
 7679TIP3    H144452   4.350   6.155  16.689 -1.8197  0.2039  0.0308
 7679TIP3    H244453   4.355   6.195  16.543  0.4431  0.2329  0.0846
 7680TIP3   OH244454   1.161   0.087  12.072 -0.2132 -0.0629 -0.1432
 7680TIP3    H144455   1.110   0.027  12.017  0.4581  0.6930 -1.6433
 7680TIP3    H244456   1.149   0.173  12.031  0.2183  0.5464  0.9734
 7681TIP3   OH244457   1.850   2.551   5.621 -1.0185 -0.2216  0.0500
 7681TIP3    H144458   1.924   2.609   5.604  0.2222 -1.6039  0.4922
 7681TIP3    H244459   1.774   2.609   5.629  0.3423  1.4547  1.6024
 7682TIP3   OH244460   5.917   1.125  11.220 -0.1034 -0.3107 -0.1786
 7682TIP3    H144461   5.885   1.056  11.162 -0.9512  0.5255 -0.7317
 7682TIP3    H244462   5.838   1.167  11.254  0.3746  1.3610 -1.0461
 7683TIP3   OH244463   2.686   0.632   4.443  0.0600  0.4811 -0.1684
 7683TIP3    H144464   2.686   0.574   4.367 -1.4232  0.7329 -0.3917
 7683TIP3    H244465   2.609   0.687   4.431  0.0471  0.8171  1.3052
 7684TIP3   OH244466   1.436   1.956   0.386 -0.1174  0.3469 -0.6781
 7684TIP3    H144467   1.378   2.027   0.414 -1.1952 -0.4003 -0.9399
 7684TIP3    H244468   1.461   1.978   0.297 -0.6926  0.2564 -0.8659
 7685TIP3   OH244469   2.132   5.516   1.503  0.1422 -0.2661 -0.1351
 7685TIP3    H144470   2.060   5.469   1.461  1.2479 -0.8796 -1.4280
 7685TIP3    H244471   2.208   5.498   1.447  1.2696  0.4876  1.1011
 7686TIP3   OH244472   3.942   3.897   1.373  0.4570  0.7003 -0.2567
 7686TIP3    H144473   3.892   3.963   1.325  0.2751  0.9437  0.2602
 7686TIP3    H244474   3.941   3.820   1.315  0.0604  0.9190 -0.5494
 7687TIP3   OH244475   5.111   0.910   3.875  0.1145  0.4380  0.0112
 7687TIP3    H144476   5.193   0.869   3.905 -0.0909 -0.6266 -0.8020
 7687TIP3    H244477   5.140   0.984   3.822  0.5020  1.2266  1.2925
 7688TIP3   OH244478   6.452   6.393  15.373 -0.0651  0.3338  0.3939
 7688TIP3    H144479   6.418   6.335  15.442 -1.7375 -0.0652 -0.7020
 7688TIP3    H244480   6.419   6.480  15.396 -0.3651  0.2562  0.2543
 7689TIP3   OH244481   4.189   6.770  13.752  0.1397 -0.1604  0.2014
 7689TIP3    H144482   4.143   6.749  13.671  0.6876 -0.5125 -0.0280
 7689TIP3    H244483   4.140   6.843  13.790  0.2015  0.3667 -0.7246
 7690TIP3   OH244484   3.452   6.266  15.732 -0.1762 -0.0709 -0.1242
 7690TIP3    H144485   3.365   6.303  15.717 -0.5219 -1.2478 -1.2619
 7690TIP3    H244486   3.447   6.224  15.818 -0.9001 -0.5290 -0.3786
 7691TIP3   OH244487   6.385   4.398  15.761  0.3300  0.2425 -0.4103
 7691TIP3    H144488   6.387   4.442  15.676  1.9514  1.9659  0.4393
 7691TIP3    H244489   6.432   4.316  15.746 -0.4975 -0.0743 -1.4298
 7692TIP3   OH244490   0.277   5.130  12.714  0.7851 -0.2857 -0.2470
 7692TIP3    H144491   0.260   5.049  12.666  0.2990 -0.1159 -0.3632
 7692TIP3    H244492   0.191   5.163  12.739  1.0289 -0.3025  0.6391
 7693TIP3   OH244493   2.904   5.509  11.930 -0.2482  0.1623  0.1715
 7693TIP3    H144494   2.844   5.441  11.899  0.8217 -0.4361 -0.6790
 7693TIP3    H244495   2.972   5.514  11.862 -0.1312  1.8662  0.3625
 7694TIP3   OH244496   4.269   2.859  11.401 -0.1041  0.3598 -0.1562
 7694TIP3    H144497   4.327   2.876  11.476  1.2313 -0.3422 -0.9929
 7694TIP3    H244498   4.265   2.764  11.396 -0.3231  0.4060 -0.8760
 7695TIP3   OH244499   5.851   4.680  15.269  0.0319  0.0314  0.2357
 7695TIP3    H144500   5.836   4.773  15.253 -1.6619  0.1654  2.2651
 7695TIP3    H244501   5.777   4.636  15.227  1.0452 -0.4895 -1.0855
 7696TIP3   OH244502   3.979   5.200   5.556  0.7332 -0.0840  0.2831
 7696TIP3    H144503   3.970   5.191   5.651  2.1442 -0.4638  0.3977
 7696TIP3    H244504   4.023   5.120   5.529  1.8777  0.7719 -0.4576
 7697TIP3   OH244505   2.765   3.045   0.276 -0.3473  0.2941  0.1978
 7697TIP3    H144506   2.741   2.987   0.205  2.1029  0.4502 -0.8464
 7697TIP3    H244507   2.692   3.108   0.282 -0.5564  0.3672 -2.2694
 7698TIP3   OH244508   1.396   0.005   5.130 -0.5946 -0.4009  0.4702
 7698TIP3    H144509   1.323   0.067   5.132 -1.3374 -1.2613  0.8145
 7698TIP3    H244510   1.373  -0.057   5.061 -0.9452 -1.5581  1.6007
 7699TIP3   OH244511   2.767   0.109   0.643  0.4572 -0.1534  0.2472
 7699TIP3    H144512   2.798   0.186   0.595 -0.0938  1.0059  1.6796
 7699TIP3    H244513   2.845   0.074   0.685  0.5415  0.2569  0.4401
 7700TIP3   OH244514   5.506   1.843  10.925  0.3399  0.5777  0.5700
 7700TIP3    H144515   5.581   1.857  10.867 -0.4515  0.0539 -0.6049
 7700TIP3    H244516   5.436   1.897  10.889 -0.2130  0.1130  0.9216
 7701TIP3   OH244517   3.806   5.944   0.247 -0.2278  0.0117  0.0212
 7701TIP3    H144518   3.889   5.909   0.278  0.4574  1.6668  0.1277
 7701TIP3    H244519   3.790   5.898   0.164 -0.8302 -2.6115  1.4819
 7702TIP3   OH244520   5.427   6.648   3.623  0.1913 -0.3350  0.0203
 7702TIP3    H144521   5.424   6.590   3.546 -0.2735 -1.1862  0.6631
 7702TIP3    H244522   5.421   6.589   3.698 -0.2452  0.5467  0.6993
 7703TIP3   OH244523   4.172   4.489  15.482 -0.0458  0.4003  0.6678
 7703TIP3    H144524   4.125   4.408  15.460  2.6405 -0.7577 -1.4810
 7703TIP3    H244525   4.263   4.462  15.490  0.8836  3.1486  0.4020
 7704TIP3   OH244526   4.763   4.243   5.129 -0.4314 -0.5944 -0.4589
 7704TIP3    H144527   4.770   4.203   5.042 -0.4409 -0.6768 -0.4214
 7704TIP3    H244528   4.782   4.336   5.114 -0.9270 -0.5183 -0.6293
 7705TIP3   OH244529   2.641   6.712   4.207  0.8968  0.4702  0.0031
 7705TIP3    H144530   2.709   6.759   4.159  0.9084  1.2053  0.7182
 7705TIP3    H244531   2.687   6.671   4.280  0.2956  3.0752  2.0215
 7706TIP3   OH244532   5.992   5.754  15.461  0.3996 -0.1715  0.4664
 7706TIP3    H144533   5.970   5.688  15.395  0.3296 -0.6709  0.9802
 7706TIP3    H244534   6.033   5.705  15.532  2.3951  0.6051 -0.0563
 7707TIP3   OH244535   4.078   3.783   5.841 -0.9432  0.3418 -0.1383
 7707TIP3    H144536   4.143   3.732   5.890  0.3463  1.8086 -0.2509
 7707TIP3    H244537   4.069   3.864   5.891  0.6281  2.0250 -2.4244
 7708TIP3   OH244538   2.705   2.411   5.760  0.0181  0.1007 -0.1446
 7708TIP3    H144539   2.611   2.397   5.750  0.2502 -1.8802  0.1262
 7708TIP3    H244540   2.741   2.324   5.773  1.7509  0.9333  1.0344
 7709TIP3   OH244541   1.222   0.818   2.638  0.3816  0.2553  0.5745
 7709TIP3    H144542   1.142   0.789   2.594 -0.3120  1.5858  0.9090
 7709TIP3    H244543   1.289   0.813   2.570 -0.2022  0.1101 -0.0065
 7710TIP3   OH244544   0.742   3.122   1.629  0.0325  0.1776 -0.6654
 7710TIP3    H144545   0.696   3.120   1.546  0.9023  0.6024 -1.1725
 7710TIP3    H244546   0.719   3.207   1.668  0.6490  0.5489 -1.0867
 7711TIP3   OH244547   3.231   1.222  12.627 -0.3914 -0.1473 -0.1439
 7711TIP3    H144548   3.287   1.219  12.550  2.0520 -0.2782  1.5049
 7711TIP3    H244549   3.173   1.297  12.612 -0.8354 -0.9131 -2.5868
 7712TIP3   OH244550   3.778   3.567   2.353  0.0870 -0.4301 -0.6225
 7712TIP3    H144551   3.768   3.513   2.432  0.4269 -0.8129 -0.8393
 7712TIP3    H244552   3.721   3.643   2.369  1.1015  0.1287  0.5305
 7713TIP3   OH244553   4.621   6.349  15.640 -0.3839  0.1906 -0.4176
 7713TIP3    H144554   4.537   6.321  15.676 -0.2544 -0.1302 -0.3685
 7713TIP3    H244555   4.656   6.272  15.595  1.3986 -0.7252  2.3203
 7714TIP3   OH244556   4.791   2.291  15.610  0.0383 -0.0914 -0.1172
 7714TIP3    H144557   4.852   2.362  15.588  1.2852 -0.7139  1.1346
 7714TIP3    H244558   4.835   2.211  15.579 -0.6148 -0.4723 -0.0850
 7715TIP3   OH244559   1.610   4.909   2.600  0.0083 -0.4198  0.0183
 7715TIP3    H144560   1.610   4.876   2.690  0.5034  0.9312  0.5413
 7715TIP3    H244561   1.666   4.848   2.552 -1.5300 -2.1050  0.2244
 7716TIP3   OH244562   2.571   2.794   3.299 -0.5329 -0.1376 -0.0877
 7716TIP3    H144563   2.603   2.883   3.312 -0.3012  0.1227 -2.1228
 7716TIP3    H244564   2.573   2.755   3.386 -0.5741  1.8080  0.8495
 7717TIP3   OH244565   5.873   4.488  11.771 -0.3480  0.8921 -0.0179
 7717TIP3    H144566   5.883   4.457  11.681  1.9772 -2.9825  1.2967
 7717TIP3    H244567   5.945   4.550  11.784  0.0197  0.5745 -0.5162
 7718TIP3   OH244568   5.429   2.204  15.386 -0.4864 -0.3821  0.1963
 7718TIP3    H144569   5.441   2.294  15.414  1.6882  0.0005 -1.7030
 7718TIP3    H244570   5.334   2.194  15.376 -0.7161  1.9666 -0.4131
 7719TIP3   OH244571   6.655   4.555  14.470 -0.1036 -0.6388  0.6373
 7719TIP3    H144572   6.627   4.479  14.418 -2.6662  1.1948 -0.8679
 7719TIP3    H244573   6.689   4.617  14.406  1.4685 -0.2417  1.7905
 7720TIP3   OH244574   4.513   0.523   5.636  0.4934  0.2555  0.6441
 7720TIP3    H144575   4.450   0.579   5.681 -0.4648 -1.3299  1.3643
 7720TIP3    H244576   4.558   0.582   5.576  0.6721  2.1184  2.4806
 7721TIP3   OH244577   3.572   4.800   2.824  0.8439 -0.5722  0.4778
 7721TIP3    H144578   3.487   4.756   2.833  1.1398 -1.3615 -0.4397
 7721TIP3    H244579   3.610   4.795   2.911  0.8531 -2.1343  0.4135
 7722TIP3   OH244580   2.869   4.070  15.711  0.6636 -0.6681 -0.2260
 7722TIP3    H144581   2.795   4.081  15.652 -0.0041  0.5611  0.7758
 7722TIP3    H244582   2.860   3.981  15.745 -0.5419 -0.4487  0.0845
 7723TIP3   OH244583   2.709   5.807   3.971 -0.4981 -0.1819  0.2565
 7723TIP3    H144584   2.656   5.860   4.030 -1.5163 -0.0687 -0.7293
 7723TIP3    H244585   2.754   5.745   4.029 -0.6810  0.5833  1.2411
 7724TIP3   OH244586   4.966   3.209  16.614 -0.0517 -0.2683 -0.2797
 7724TIP3    H144587   4.973   3.182  16.523  3.0707  1.3871 -0.6937
 7724TIP3    H244588   5.013   3.292  16.618 -1.0811  0.3144  2.6485
 7725TIP3   OH244589   6.406   6.105  13.749  0.0797 -0.3034 -0.2553
 7725TIP3    H144590   6.425   6.163  13.675 -1.6009  2.7266  1.4414
 7725TIP3    H244591   6.311   6.090  13.743  0.2213 -1.4716  0.3175
 7726TIP3   OH244592   5.135   6.099  13.010  0.1724  0.2911 -0.5327
 7726TIP3    H144593   5.068   6.166  13.027 -0.5663 -0.0621 -1.9732
 7726TIP3    H244594   5.205   6.147  12.965  0.0697  0.2817 -0.7018
 7727TIP3   OH244595   5.616   2.767   1.215  0.7155 -0.1015 -0.5978
 7727TIP3    H144596   5.606   2.750   1.121  1.9628 -0.2842 -0.7166
 7727TIP3    H244597   5.527   2.770   1.248  0.2232  0.5795 -1.9008
 7728TIP3   OH244598   1.192   3.868  14.782 -0.4982 -0.1608 -0.3843
 7728TIP3    H144599   1.237   3.855  14.866 -1.7037  0.6303  0.4152
 7728TIP3    H244600   1.183   3.963  14.774 -1.4862 -0.2808 -0.8079
 7729TIP3   OH244601   1.644   3.534   3.880 -0.1912  0.0411  0.4951
 7729TIP3    H144602   1.692   3.478   3.941  1.8672 -0.6840 -1.6364
 7729TIP3    H244603   1.556   3.540   3.917  0.3574 -2.0886  2.3821
 7730TIP3   OH244604   1.156   3.218   2.329 -0.0466 -0.0855 -0.1422
 7730TIP3    H144605   1.219   3.216   2.402  0.6179  0.0288 -0.7086
 7730TIP3    H244606   1.191   3.155   2.266 -0.6739 -0.2557 -0.3259
 7731TIP3   OH244607   3.733   1.885  14.493 -0.1642  0.0991  0.3028
 7731TIP3    H144608   3.717   1.804  14.541  0.2301 -0.3726 -0.3446
 7731TIP3    H244609   3.810   1.866  14.439 -1.5206  0.0782 -1.7206
 7732TIP3   OH244610   3.852   2.290  13.883 -0.1088 -0.1234 -0.1176
 7732TIP3    H144611   3.903   2.224  13.930 -1.0810  0.3226  1.6902
 7732TIP3    H244612   3.817   2.347  13.953 -1.3146  0.8244 -1.4290
 7733TIP3   OH244613   5.077   1.895   1.890  0.3637 -0.5354  0.3632
 7733TIP3    H144614   5.050   1.814   1.846  1.9119 -0.6708 -0.3933
 7733TIP3    H244615   5.145   1.869   1.951  3.1423  0.4774 -2.0423
 7734TIP3   OH244616   0.565   4.620   2.260  0.3715 -0.0238  0.6229
 7734TIP3    H144617   0.516   4.544   2.290  0.5485  0.2403  1.6316
 7734TIP3    H244618   0.504   4.693   2.268  0.2005 -0.0541 -0.3451
 7735TIP3   OH244619   1.775   6.294   4.334  0.1333  0.0877  0.9600
 7735TIP3    H144620   1.816   6.295   4.248 -2.9322 -0.1544 -0.6389
 7735TIP3    H244621   1.807   6.213   4.374  1.7506  0.2906  0.1577
 7736TIP3   OH244622   6.052   6.226   1.953 -0.2509 -0.4986  0.1788
 7736TIP3    H144623   6.102   6.157   1.911  0.5622 -0.3946  0.9506
 7736TIP3    H244624   6.083   6.307   1.913  0.0322 -0.4544  0.4803
 7737TIP3   OH244625   2.818   4.280  14.514 -0.3439  0.4704 -0.0324
 7737TIP3    H144626   2.879   4.207  14.503 -1.3877 -0.2586 -1.3437
 7737TIP3    H244627   2.752   4.247  14.575  0.0009  0.8889  0.5779
 7738TIP3   OH244628   1.410   5.225   5.079  0.2893  0.0151 -0.3937
 7738TIP3    H144629   1.496   5.185   5.088  2.3051  2.7021 -4.5483
 7738TIP3    H244630   1.363   5.168   5.017  0.4094  0.3376 -0.7838
 7739TIP3   OH244631   3.500   4.633  15.877  0.0866  0.1812  0.0293
 7739TIP3    H144632   3.419   4.684  15.885  0.0752 -0.0595  1.9143
 7739TIP3    H244633   3.563   4.695  15.840 -0.3191  1.1287  0.8694
 7740TIP3   OH244634   4.044   6.450  11.246 -0.4197  0.0628  0.2539
 7740TIP3    H144635   4.038   6.394  11.168  0.0299 -1.6612  1.3919
 7740TIP3    H244636   3.998   6.401  11.314 -0.9078  1.5935  1.0667
 7741TIP3   OH244637   0.450   5.605   2.884 -0.3742  0.2548  0.0454
 7741TIP3    H144638   0.532   5.622   2.930  0.1498  2.5811 -1.5872
 7741TIP3    H244639   0.452   5.664   2.809 -3.4712  0.2699 -0.1376
 7742TIP3   OH244640   4.298   0.443  11.318 -0.4270  0.1610  0.3860
 7742TIP3    H144641   4.244   0.369  11.290  1.3829 -0.4157 -1.8702
 7742TIP3    H244642   4.367   0.403  11.371  0.1164  0.3415 -0.1888
 7743TIP3   OH244643   6.435   2.198   1.702  0.2264 -0.3719 -0.0040
 7743TIP3    H144644   6.342   2.216   1.708 -0.0154 -0.5584 -2.3734
 7743TIP3    H244645   6.446   2.113   1.745 -1.1467 -1.4895 -1.7417
 7744TIP3   OH244646   2.840   5.451   4.376  0.2627 -0.0843  0.0549
 7744TIP3    H144647   2.846   5.356   4.388 -0.0396  0.0185  1.1410
 7744TIP3    H244648   2.766   5.477   4.431  0.8363  0.8872  0.3851
 7745TIP3   OH244649   1.317   3.314  14.581 -0.3898  0.0832  0.0258
 7745TIP3    H144650   1.395   3.285  14.534 -0.2869 -0.9999  0.8468
 7745TIP3    H244651   1.253   3.331  14.512  0.8886  2.1152 -0.7502
 7746TIP3   OH244652   3.025   1.152  15.494  0.1602  0.6548 -0.5462
 7746TIP3    H144653   2.930   1.154  15.489  0.1760  0.2656 -1.1584
 7746TIP3    H244654   3.051   1.086  15.429  0.8662  1.1158 -0.7433
 7747TIP3   OH244655   1.866   3.378  11.417  0.4053  0.1586  0.2762
 7747TIP3    H144656   1.937   3.356  11.356  0.3278  1.7593 -0.4335
 7747TIP3    H244657   1.795   3.408  11.361  0.4163  1.9176  1.1337
 7748TIP3   OH244658   1.094   3.525   1.487  0.9617 -0.1278  0.0897
 7748TIP3    H144659   1.081   3.483   1.571 -0.0900 -1.6128 -0.7707
 7748TIP3    H244660   1.099   3.619   1.507 -2.2354 -0.1335  1.5554
 7749TIP3   OH244661   6.059   2.323  17.046  0.1617 -0.5565 -0.7549
 7749TIP3    H144662   5.973   2.283  17.043 -0.5606  0.8918 -3.7642
 7749TIP3    H244663   6.116   2.260  17.002 -0.1952 -0.0160 -2.0624
 7750TIP3   OH244664   4.010   4.038  12.783  0.3157  0.4701  0.1463
 7750TIP3    H144665   3.978   3.976  12.848 -1.1965  0.2564 -0.7582
 7750TIP3    H244666   3.936   4.097  12.768  0.5237  0.3436 -1.5625
 7751TIP3   OH244667   1.259   3.046   4.666 -0.2699  0.2414 -0.4306
 7751TIP3    H144668   1.189   3.090   4.618  0.6004  0.7719 -1.2572
 7751TIP3    H244669   1.340   3.077   4.625  0.4645 -0.2348  0.6019
 7752TIP3   OH244670   2.134   4.093   0.715 -0.0073  0.8158 -0.3006
 7752TIP3    H144671   2.171   4.167   0.667 -0.8676  0.4892 -1.5482
 7752TIP3    H244672   2.165   4.016   0.667 -1.8401  0.5203 -1.1079
 7753TIP3   OH244673   3.553   2.218   0.043  0.5785  0.2626  0.1915
 7753TIP3    H144674   3.567   2.282   0.114  1.7882 -0.6261  0.7761
 7753TIP3    H244675   3.521   2.140   0.088  2.1293 -0.5810 -0.1207
 7754TIP3   OH244676   4.084   6.267  16.310 -0.6435  0.4084  0.2915
 7754TIP3    H144677   4.051   6.280  16.221  1.1912  0.8324 -0.3773
 7754TIP3    H244678   4.045   6.184  16.338 -1.1398  0.1937 -0.9552
 7755TIP3   OH244679   4.409   5.091  12.049  0.5389 -0.5131 -0.1037
 7755TIP3    H144680   4.480   5.138  12.006  1.4469 -2.3431 -0.7113
 7755TIP3    H244681   4.449   5.052  12.127 -0.9286  2.1972  2.2143
 7756TIP3   OH244682   4.835   1.986   5.113 -0.1121  0.0824  0.1645
 7756TIP3    H144683   4.781   1.950   5.184  0.0389 -0.3149  0.0796
 7756TIP3    H244684   4.858   1.910   5.059 -1.9018  0.6012 -1.4736
 7757TIP3   OH244685   3.566   2.935  11.411  0.1194 -0.4238 -0.1909
 7757TIP3    H144686   3.485   2.984  11.394 -0.7488 -1.5597  0.4614
 7757TIP3    H244687   3.584   2.950  11.503 -0.5622 -1.8514  0.2042
 7758TIP3   OH244688   1.088   4.652   4.947 -0.0824  0.3071 -0.0125
 7758TIP3    H144689   1.072   4.744   4.968 -0.8689  0.0918  0.3526
 7758TIP3    H244690   1.012   4.606   4.981  0.5949 -0.5612  0.3818
 7759TIP3   OH244691   1.078   0.937   5.747 -0.7221  0.5782 -0.0172
 7759TIP3    H144692   1.030   0.896   5.675 -0.0815  1.0932 -0.7538
 7759TIP3    H244693   1.096   1.026   5.716  1.3684  0.1810 -0.1115
 7760TIP3   OH244694   4.336   6.705  11.131  0.1263  0.0817  0.6369
 7760TIP3    H144695   4.260   6.761  11.119  1.7709  2.1516 -1.0961
 7760TIP3    H244696   4.352   6.666  11.045  0.5044 -1.0407  1.1956
 7761TIP3   OH244697   2.125   3.934   0.943 -0.8612  0.3880 -0.2310
 7761TIP3    H144698   2.110   3.975   0.858 -0.3282  1.4210  0.1584
 7761TIP3    H244699   2.055   3.869   0.951 -1.1904  0.6000 -1.2539
 7762TIP3   OH244700   5.251   1.646   1.787 -0.6004 -0.2241  0.2908
 7762TIP3    H144701   5.234   1.609   1.700 -0.7735 -0.0048  0.2293
 7762TIP3    H244702   5.257   1.571   1.845 -3.5344 -0.3039  0.6461
 7763TIP3   OH244703   6.716   2.556   3.414  0.5498 -0.4873 -0.5839
 7763TIP3    H144704   6.703   2.576   3.507 -2.3393 -2.4810 -0.4295
 7763TIP3    H244705   6.652   2.609   3.368 -0.5737 -2.1565 -1.0352
 7764TIP3   OH244706   5.465   0.141  12.391 -0.2050 -0.2670  0.0917
 7764TIP3    H144707   5.427   0.212  12.443  0.4020  1.4836 -1.7445
 7764TIP3    H244708   5.393   0.111  12.336  0.2407  1.0214 -1.2595
 7765TIP3   OH244709   5.040   5.218  13.654 -0.0092  0.5550 -0.4530
 7765TIP3    H144710   4.961   5.173  13.623  0.7597 -0.8945 -0.4284
 7765TIP3    H244711   5.109   5.188  13.595  0.5983  1.5203 -0.2557
 7766TIP3   OH244712   4.983   2.397  13.811 -0.5042 -0.3593 -0.5708
 7766TIP3    H144713   4.945   2.318  13.772  1.5555  0.1359 -4.0405
 7766TIP3    H244714   4.991   2.458  13.738 -0.2473  2.3991  1.6149
 7767TIP3   OH244715   3.909   6.412  11.884  0.1741 -0.2096  0.0141
 7767TIP3    H144716   3.869   6.466  11.816  1.1701 -0.2872 -0.6578
 7767TIP3    H244717   3.984   6.370  11.841  0.0444 -1.3068  0.7990
 7768TIP3   OH244718   1.250   3.797   1.030 -0.2775 -0.5544  0.5795
 7768TIP3    H144719   1.268   3.722   0.973  0.9188  0.2657 -0.1599
 7768TIP3    H244720   1.243   3.872   0.970 -1.2441 -0.0185  1.3226
 7769TIP3   OH244721   0.301   2.595   0.195 -0.1662 -0.9473  0.7374
 7769TIP3    H144722   0.361   2.581   0.269  0.4489 -2.1077  0.0478
 7769TIP3    H244723   0.281   2.688   0.197  2.8402 -0.1956  0.1071
 7770TIP3   OH244724   1.175   6.665   4.722  0.0557  0.0200 -0.6709
 7770TIP3    H144725   1.205   6.641   4.810  2.1330 -1.0516 -1.6322
 7770TIP3    H244726   1.148   6.583   4.682  1.0666  0.1840 -1.7338
 7771TIP3   OH244727   5.442   0.565   2.826 -0.6028  0.8246 -0.4101
 7771TIP3    H144728   5.401   0.637   2.778 -1.4609  0.3932 -0.3463
 7771TIP3    H244729   5.529   0.557   2.787 -0.9704  1.0533 -1.3005
 7772TIP3   OH244730   1.001   2.174  16.613  0.1232 -0.0449 -0.0728
 7772TIP3    H144731   0.909   2.150  16.623  0.9281 -2.9458  1.4746
 7772TIP3    H244732   0.999   2.264  16.581 -3.2210  0.0350  0.0306
 7773TIP3   OH244733   3.041   6.166  16.602 -0.2275 -0.5000  0.4852
 7773TIP3    H144734   3.108   6.108  16.639 -0.3765 -0.6629  0.4983
 7773TIP3    H244735   2.985   6.189  16.677 -0.4926 -0.7805  0.3752
 7774TIP3   OH244736   2.966   3.125   1.313 -0.2848  0.3374 -0.0622
 7774TIP3    H144737   2.997   3.133   1.404 -2.3401  1.9368  0.5960
 7774TIP3    H244738   2.946   3.032   1.303  2.1747 -0.3002  0.2820
 7775TIP3   OH244739   1.699   2.179  14.823  0.0988  0.2331 -0.1037
 7775TIP3    H144740   1.765   2.110  14.834 -1.8943 -1.7604  0.1701
 7775TIP3    H244741   1.652   2.181  14.907 -1.8392 -0.2786 -1.1197
 7776TIP3   OH244742   6.209   5.866  11.952 -0.6221  0.5849 -0.4389
 7776TIP3    H144743   6.252   5.780  11.941  0.2448  1.1957 -2.2163
 7776TIP3    H244744   6.278   5.922  11.989 -0.4046  1.1075 -1.5891
 7777TIP3   OH244745   4.572   2.339   1.035  0.5453 -0.4096 -0.4115
 7777TIP3    H144746   4.632   2.402   0.996 -0.8385  1.7673  0.8087
 7777TIP3    H244747   4.486   2.378   1.024 -0.3358 -1.9545  0.6737
 7778TIP3   OH244748   3.308   3.523  16.918 -0.3108  0.1324 -0.4812
 7778TIP3    H144749   3.335   3.453  16.859  2.2403  0.6365 -0.0002
 7778TIP3    H244750   3.359   3.509  16.998 -2.2083  0.6362  0.9015
 7779TIP3   OH244751   6.281   0.781  10.515 -0.5354 -0.1446 -0.0233
 7779TIP3    H144752   6.301   0.788  10.608 -1.7943 -1.4484  0.3871
 7779TIP3    H244753   6.196   0.737  10.512 -0.8392  0.4790 -1.7793
 7780TIP3   OH244754   3.074   4.020   0.525 -0.4478  0.7373 -0.1213
 7780TIP3    H144755   3.047   3.928   0.537  1.0652  0.1724 -0.8410
 7780TIP3    H244756   3.039   4.065   0.602 -1.2610 -0.4260  0.2232
 7781TIP3   OH244757   0.960   1.006   2.465 -0.2316  0.2789 -0.0990
 7781TIP3    H144758   1.035   1.056   2.434  1.1549 -0.6139  1.6468
 7781TIP3    H244759   0.985   0.915   2.452 -1.7606 -0.0565 -1.0625
 7782TIP3   OH244760   4.313   2.880  10.651 -0.2479 -0.0586 -0.1848
 7782TIP3    H144761   4.240   2.941  10.658  0.3081  0.6719 -0.4603
 7782TIP3    H244762   4.274   2.793  10.655 -0.8510  0.2688  2.6097
 7783TIP3   OH244763   3.269   2.465   3.423  0.1621  0.2007  0.2123
 7783TIP3    H144764   3.273   2.560   3.412  2.6077  0.1216 -0.2102
 7783TIP3    H244765   3.255   2.452   3.517 -0.5872  0.9593  0.2110
 7784TIP3   OH244766   5.314   4.922   5.687  0.2643 -0.2514 -0.0734
 7784TIP3    H144767   5.240   4.863   5.669  1.0225 -1.0447 -0.6867
 7784TIP3    H244768   5.375   4.906   5.615  0.0366  2.0704 -0.8355
 7785TIP3   OH244769   0.573   5.326  15.194 -0.0134  0.0082 -0.2449
 7785TIP3    H144770   0.542   5.386  15.127  0.2341  0.2281 -0.1646
 7785TIP3    H244771   0.668   5.320  15.179 -0.2637 -1.7782 -1.4090
 7786TIP3   OH244772   0.091   1.514   2.205  0.0131 -0.0626 -1.0801
 7786TIP3    H144773   0.076   1.606   2.187  1.3956  0.2815 -0.5871
 7786TIP3    H244774   0.003   1.474   2.202 -0.3928  0.8937 -3.1686
 7787TIP3   OH244775   2.979   2.989  16.792  0.0338  0.1153  0.4310
 7787TIP3    H144776   2.925   2.921  16.751 -0.3211  0.2482  0.6696
 7787TIP3    H244777   3.068   2.953  16.791 -0.2304 -0.5946  1.0355
 7788TIP3   OH244778   4.906   6.448   2.944  0.1283 -0.3862  0.8745
 7788TIP3    H144779   4.953   6.528   2.966 -0.4042  0.1855 -0.0172
 7788TIP3    H244780   4.873   6.415   3.028 -1.2179  1.3313  1.0731
 7789TIP3   OH244781   0.268   4.662  12.470 -0.6251  0.1110  0.5501
 7789TIP3    H144782   0.349   4.645  12.422 -1.9504 -0.5499 -1.5912
 7789TIP3    H244783   0.284   4.627  12.558  2.6879  3.3483  1.4863
 7790TIP3   OH244784   5.137   0.565   5.939 -0.1359 -0.1831 -0.1932
 7790TIP3    H144785   5.138   0.585   6.033  0.4157  1.7652 -0.5751
 7790TIP3    H244786   5.094   0.641   5.899  3.3918  1.1276 -1.8952
 7791TIP3   OH244787   4.761   1.756   0.007 -0.1855  0.4875  0.2738
 7791TIP3    H144788   4.679   1.788  -0.029 -0.8267 -2.6095 -1.3707
 7791TIP3    H244789   4.736   1.682   0.062  1.4337  0.1635  0.6198
 7792TIP3   OH244790   4.588   2.146   3.434 -0.0919 -0.5706 -0.5106
 7792TIP3    H144791   4.655   2.147   3.366  1.2109 -1.3292  0.7008
 7792TIP3    H244792   4.564   2.053   3.442  0.0080 -0.5436  0.2454
 7793TIP3   OH244793   5.135   6.439   1.591 -0.2459 -0.2298  0.2011
 7793TIP3    H144794   5.089   6.428   1.508  0.2097 -0.7065  0.0075
 7793TIP3    H244795   5.091   6.512   1.634 -1.3169 -0.7935  0.1042
 7794TIP3   OH244796   5.509   2.806  12.289 -0.2200 -0.3485 -0.4530
 7794TIP3    H144797   5.590   2.757  12.276 -0.3033 -0.5160 -0.3466
 7794TIP3    H244798   5.463   2.759  12.358 -1.1251 -1.1730 -1.5814
 7795TIP3   OH244799   1.697   6.156  14.292  0.1186 -0.0058 -0.2497
 7795TIP3    H144800   1.664   6.245  14.285  0.6934  0.3822  1.3790
 7795TIP3    H244801   1.639   6.103  14.238 -0.2906  1.3412 -1.1523
 7796TIP3   OH244802   5.027   1.853  16.529 -0.3737 -0.2890  0.2689
 7796TIP3    H144803   5.085   1.878  16.601 -1.0156 -1.0496  1.0582
 7796TIP3    H244804   5.082   1.801  16.470 -0.1480 -0.6734  0.8144
 7797TIP3   OH244805   0.102   0.704   5.371 -0.1004 -0.0075  0.0333
 7797TIP3    H144806   0.174   0.732   5.314  1.6680 -2.1692  1.0362
 7797TIP3    H244807   0.142   0.698   5.458 -1.4561 -1.2971  0.6094
 7798TIP3   OH244808   2.780   3.716   0.127  0.7245  0.5707 -0.1959
 7798TIP3    H144809   2.779   3.804   0.088 -0.2152 -0.1449 -1.9292
 7798TIP3    H244810   2.873   3.692   0.129  0.9934  1.6383  0.3822
 7799TIP3   OH244811   0.282   0.628   3.076  0.6157 -0.7767 -0.0283
 7799TIP3    H144812   0.199   0.594   3.109 -1.1684  3.3310  0.2833
 7799TIP3    H244813   0.260   0.667   2.991  2.1683  0.5165  0.1188
 7800TIP3   OH244814   2.921   4.338   5.785  0.2405 -0.0990  0.1511
 7800TIP3    H144815   3.009   4.362   5.814  0.3558 -0.9446  0.5196
 7800TIP3    H244816   2.932   4.255   5.739 -0.3255 -0.0721 -0.0442
 7801TIP3   OH244817   5.285   5.364   6.149  0.0661  0.0990  0.6741
 7801TIP3    H144818   5.324   5.285   6.187  0.7960 -0.3260 -0.8802
 7801TIP3    H244819   5.349   5.395   6.085 -1.2342  0.5693 -0.4734
 7802TIP3   OH244820   3.176   2.826  13.097  0.0310  0.0868  1.0276
 7802TIP3    H144821   3.166   2.860  13.186  1.1089 -0.7746  1.5010
 7802TIP3    H244822   3.264   2.788  13.096 -0.0272 -0.0320 -0.3713
 7803TIP3   OH244823   5.521   4.795   5.967 -0.4842 -0.0844  0.3444
 7803TIP3    H144824   5.547   4.706   5.946 -1.0138 -0.0189 -0.5981
 7803TIP3    H244825   5.591   4.827   6.025  1.5256  0.0315 -1.9708
 7804TIP3   OH244826   4.830   0.466   2.742 -0.2496 -0.6664 -0.2060
 7804TIP3    H144827   4.903   0.479   2.802 -0.2671 -3.2972  0.4858
 7804TIP3    H244828   4.756   0.509   2.786  0.5727  0.9833 -0.3555
 7805TIP3   OH244829   4.602   0.110  14.062 -0.5743 -0.1105  0.0926
 7805TIP3    H144830   4.695   0.125  14.075 -0.5711 -1.5028  2.0652
 7805TIP3    H244831   4.559   0.174  14.119 -0.8089  0.0672 -0.2820
 7806TIP3   OH244832   5.860   1.546  15.743  0.3957  0.2767  0.4726
 7806TIP3    H144833   5.876   1.453  15.727  0.8435  0.7530 -2.3794
 7806TIP3    H244834   5.775   1.563  15.703 -0.7268  0.7438  2.8532
 7807TIP3   OH244835   2.604   4.852   4.299 -0.1059 -0.0745  0.4520
 7807TIP3    H144836   2.596   4.934   4.252 -2.8085 -0.7567 -0.4477
 7807TIP3    H244837   2.656   4.796   4.241  0.7033  0.6018  0.5169
 7808TIP3   OH244838   5.271   2.904  14.024  0.2916  0.5777  0.2741
 7808TIP3    H144839   5.323   2.841  13.974  2.1408  2.9146 -0.9617
 7808TIP3    H244840   5.289   2.882  14.115  1.1141 -0.4804 -0.1148
 7809TIP3   OH244841   4.737   0.082   2.679 -0.3712 -0.4967 -0.0285
 7809TIP3    H144842   4.658   0.066   2.731 -0.3226 -0.2483  0.1230
 7809TIP3    H244843   4.706   0.113   2.595 -0.4323 -0.3201  0.0596
 7810TIP3   OH244844   6.408   2.921  10.523 -0.2878  0.5606 -0.6574
 7810TIP3    H144845   6.429   2.831  10.500 -1.9511  0.3506 -1.5124
 7810TIP3    H244846   6.493   2.964  10.534  0.5400 -1.2855  0.6028
 7811TIP3   OH244847   4.216   0.613   2.509 -0.2508 -0.6128 -0.0622
 7811TIP3    H144848   4.162   0.536   2.492  0.8094 -0.8653 -2.8533
 7811TIP3    H244849   4.277   0.616   2.436  1.1138  1.7329  1.0505
 7812TIP3   OH244850   5.775   3.374  12.321  0.2974  0.2233 -0.0133
 7812TIP3    H144851   5.851   3.429  12.343 -1.3914  2.5277  0.3750
 7812TIP3    H244852   5.739   3.347  12.405 -1.6324  2.5574 -0.0127
 7813TIP3   OH244853   0.197   2.937  13.974 -0.4009  0.1199 -0.2870
 7813TIP3    H144854   0.291   2.943  13.993 -0.1787  0.5432 -1.4216
 7813TIP3    H244855   0.154   2.982  14.046  0.2967  0.3263  0.0047
 7814TIP3   OH244856   2.885   6.693   1.178  0.0328 -0.2048  0.2199
 7814TIP3    H144857   2.866   6.786   1.196  1.5933  0.1351  0.2548
 7814TIP3    H244858   2.977   6.692   1.152 -0.8511 -1.2556 -3.5398
 7815TIP3   OH244859   0.215   5.577  15.981 -0.0776  0.1025 -0.5592
 7815TIP3    H144860   0.261   5.642  16.034  0.0147  0.0430 -0.5663
 7815TIP3    H244861   0.187   5.511  16.044 -1.6808  0.9916 -0.2677
 7816TIP3   OH244862   3.068   2.264   5.738 -0.2752  0.0055  0.0075
 7816TIP3    H144863   3.146   2.280   5.686 -0.3636 -1.2292 -0.5432
 7816TIP3    H244864   3.072   2.329   5.809  1.2646 -0.0710  0.0147
 7817TIP3   OH244865   3.675   1.860   5.174  0.6609 -0.4595  0.5485
 7817TIP3    H144866   3.696   1.784   5.120  0.5106 -1.3435  1.6949
 7817TIP3    H244867   3.587   1.842   5.207  1.7822 -1.3286  3.2992
 7818TIP3   OH244868   2.535   3.525   3.128 -0.3701 -0.1769 -0.2324
 7818TIP3    H144869   2.560   3.617   3.125 -2.0867  0.3984  1.2342
 7818TIP3    H244870   2.452   3.521   3.081 -0.2323 -1.0220 -0.4264
 7819TIP3   OH244871   3.271   2.657  12.162 -0.6872 -0.4065  1.3274
 7819TIP3    H144872   3.264   2.669  12.256 -1.4224 -1.3067  1.4049
 7819TIP3    H244873   3.193   2.606  12.138 -1.4631  1.3146 -0.0437
 7820TIP3   OH244874   0.624   5.790  11.404  0.2188  0.0938  0.0487
 7820TIP3    H144875   0.639   5.863  11.465  2.9803 -1.3696  1.2900
 7820TIP3    H244876   0.665   5.819  11.323  0.5952  0.2546  0.2920
 7821TIP3   OH244877   1.966   2.014  14.945  0.1178 -0.4706 -0.4414
 7821TIP3    H144878   2.032   2.055  15.001  1.2989 -0.6187 -1.6915
 7821TIP3    H244879   1.913   1.962  15.006 -0.5592  1.7531  0.9639
 7822TIP3   OH244880   2.911   3.461  16.311 -0.1161  0.0079 -0.4079
 7822TIP3    H144881   2.817   3.472  16.328 -0.0087 -0.3710  0.4845
 7822TIP3    H244882   2.915   3.410  16.230 -0.7467 -2.5937  1.0914
 7823TIP3   OH244883   6.565   0.692  14.136 -0.5982 -0.1160  0.7739
 7823TIP3    H144884   6.554   0.786  14.146 -0.0148  0.0388  0.0786
 7823TIP3    H244885   6.512   0.653  14.205  0.1188  0.7483  1.8420
 7824TIP3   OH244886   5.700   0.008   1.362  0.3010  0.1479 -0.0910
 7824TIP3    H144887   5.626   0.038   1.310 -1.4800 -1.8381  1.1321
 7824TIP3    H244888   5.667  -0.067   1.411  1.9741  1.4596  3.4550
 7825TIP3   OH244889   2.768   5.176   4.492  0.3589 -0.4556 -0.0559
 7825TIP3    H144890   2.783   5.141   4.404  1.7645 -0.6569  0.2332
 7825TIP3    H244891   2.854   5.173   4.534  0.1089  1.4069  0.6993
 7826TIP3   OH244892   0.481   2.198  12.720 -0.3030  0.3491 -0.0232
 7826TIP3    H144893   0.448   2.255  12.790 -0.4706 -1.4532  1.4303
 7826TIP3    H244894   0.409   2.138  12.702  0.0137  0.3119 -1.2425
 7827TIP3   OH244895   3.336   6.515   3.855 -0.2809  0.3267 -0.4652
 7827TIP3    H144896   3.260   6.480   3.902 -0.9837  0.1499 -1.7122
 7827TIP3    H244897   3.410   6.468   3.891 -0.8468 -0.0867  0.1896
 7828TIP3   OH244898   3.943   0.326  14.428  0.6662 -0.0039  0.3526
 7828TIP3    H144899   3.952   0.236  14.397  3.2521  0.0818  0.6308
 7828TIP3    H244900   3.875   0.364  14.372 -0.2993 -2.0143  0.0544
 7829TIP3   OH244901   3.186   1.645  11.096  0.4569  0.2584  0.0187
 7829TIP3    H144902   3.094   1.647  11.069  0.3352 -0.8615  0.2906
 7829TIP3    H244903   3.194   1.564  11.146  1.7590 -0.0228 -0.6128
 7830TIP3   OH244904   6.285   4.723   0.204 -0.4020  0.0184  0.9251
 7830TIP3    H144905   6.207   4.693   0.157 -0.8480  0.6950  1.2229
 7830TIP3    H244906   6.339   4.644   0.213 -0.5168 -0.2273 -0.2895
 7831TIP3   OH244907   5.281   4.489  13.061 -0.3426  0.2490 -0.1018
 7831TIP3    H144908   5.243   4.523  13.141  0.6901  0.0458  0.4973
 7831TIP3    H244909   5.347   4.426  13.090 -0.0363  0.0754 -1.1127
 7832TIP3   OH244910   2.889   2.483   3.275 -0.3562 -0.1919 -0.1125
 7832TIP3    H144911   2.968   2.455   3.228 -0.6452  0.8798 -1.3057
 7832TIP3    H244912   2.878   2.575   3.249 -0.3366  0.5844  2.3877
 7833TIP3   OH244913   5.015   1.044   2.214 -0.5871  0.1506 -0.0650
 7833TIP3    H144914   4.985   1.111   2.152 -0.6101  0.3451  0.1569
 7833TIP3    H244915   5.107   1.032   2.194 -0.5239  0.4269  0.0581
 7834TIP3   OH244916   1.514   3.564  12.880 -0.0648 -0.1669 -0.2986
 7834TIP3    H144917   1.435   3.614  12.897 -0.5705 -1.1726  0.4666
 7834TIP3    H244918   1.580   3.603  12.937 -0.3563 -0.1293  0.0178
 7835TIP3   OH244919   2.768   4.040  13.445 -0.3425  0.2476  0.4998
 7835TIP3    H144920   2.787   4.026  13.352 -0.4021 -1.2974  0.6837
 7835TIP3    H244921   2.828   4.110  13.471 -1.0031  1.3895 -0.9022
 7836TIP3   OH244922   3.447   5.500   1.437  0.2235 -0.1048 -0.4092
 7836TIP3    H144923   3.418   5.460   1.355 -1.1015 -0.9752  0.4311
 7836TIP3    H244924   3.489   5.581   1.410 -1.6079  0.4410 -1.8816
 7837TIP3   OH244925   5.802   0.030  10.416 -0.1624 -0.2357  0.0256
 7837TIP3    H144926   5.774   0.120  10.397  2.0516  0.6757  0.8044
 7837TIP3    H244927   5.859   0.006  10.343  3.0398  0.8363  1.9814
 7838TIP3   OH244928   2.614   0.855  15.806  0.0305  0.2772  0.0552
 7838TIP3    H144929   2.619   0.950  15.795 -0.8546  0.2093 -1.1739
 7838TIP3    H244930   2.589   0.823  15.719  1.7613 -1.2206  0.0537
 7839TIP3   OH244931   2.562   6.200   0.671 -0.2928 -0.2664 -0.4511
 7839TIP3    H144932   2.530   6.290   0.679  0.5792  0.0705 -0.5973
 7839TIP3    H244933   2.629   6.204   0.602 -0.1798 -1.0054 -0.3978
 7840TIP3   OH244934   4.604   2.212  14.615 -0.3543 -0.2083  0.1492
 7840TIP3    H144935   4.649   2.275  14.559 -1.9383  0.2487 -0.6669
 7840TIP3    H244936   4.652   2.215  14.698  1.2745  0.0171 -0.7568
 7841TIP3   OH244937   4.674   4.015  15.077  0.5120 -0.0084 -0.0032
 7841TIP3    H144938   4.664   3.944  15.141  1.8819  0.8764  1.2780
 7841TIP3    H244939   4.705   3.972  14.998 -0.3756 -1.0303  0.1711
 7842TIP3   OH244940   6.409   6.751  15.054  0.0266 -0.4879  0.0968
 7842TIP3    H144941   6.389   6.825  15.111  2.9844  1.9646 -1.7134
 7842TIP3    H244942   6.454   6.688  15.110  0.5051  0.6618  1.0443
 7843TIP3   OH244943   2.566   2.398  16.749 -0.1167  0.2676 -0.1578
 7843TIP3    H144944   2.513   2.319  16.743 -1.2486  1.0861 -1.9210
 7843TIP3    H244945   2.512   2.466  16.709  2.2160  1.1835 -2.0522
 7844TIP3   OH244946   5.384   2.521   5.981  0.4231 -0.1461 -0.0052
 7844TIP3    H144947   5.318   2.504   6.049  2.7238 -1.5380  2.0531
 7844TIP3    H244948   5.363   2.609   5.950 -2.2535 -0.4352  0.6661
 7845TIP3   OH244949   6.745   5.389   3.838  0.4820  0.1915  0.1868
 7845TIP3    H144950   6.771   5.330   3.767 -0.6053 -0.5826  0.4069
 7845TIP3    H244951   6.710   5.466   3.793 -0.8990 -0.6062 -0.1578
 7846TIP3   OH244952   1.180   1.955   1.926 -0.4499  0.3285 -0.1632
 7846TIP3    H144953   1.131   2.036   1.939 -0.3760  0.4697 -0.7179
 7846TIP3    H244954   1.251   1.979   1.867  0.5679  0.2228  0.9762
 7847TIP3   OH244955   1.082   3.720   4.315 -0.0061  0.5539  0.6555
 7847TIP3    H144956   1.161   3.725   4.369  0.1978  0.6225  0.3561
 7847TIP3    H244957   1.025   3.789   4.348  0.1737  0.6847  0.6927
 7848TIP3   OH244958   2.659   4.085   2.738  0.0392  0.0461 -0.2502
 7848TIP3    H144959   2.568   4.095   2.712 -0.1842 -0.3017  0.3731
 7848TIP3    H244960   2.706   4.154   2.690 -0.6985  0.8673  0.1826
 7849TIP3   OH244961   2.697   4.954   1.524 -0.2320  0.2765 -0.5363
 7849TIP3    H144962   2.696   5.016   1.452 -0.0687  2.0255  0.8914
 7849TIP3    H244963   2.617   4.973   1.573  1.4343  1.7706  1.7999
 7850TIP3   OH244964   5.658   1.067   1.520  0.1827 -0.3502 -0.3751
 7850TIP3    H144965   5.706   1.008   1.577 -2.3938 -1.3311  0.9312
 7850TIP3    H244966   5.576   1.084   1.566  0.0387  2.8302 -1.5502
 7851TIP3   OH244967   0.720   6.551   3.475 -0.5899  0.1654 -0.2826
 7851TIP3    H144968   0.812   6.553   3.498 -0.3045 -0.6900 -1.2726
 7851TIP3    H244969   0.717   6.585   3.385 -1.1749 -0.2618 -0.4284
 7852TIP3   OH244970   5.047   0.434  14.345  0.2101  0.0410  0.1902
 7852TIP3    H144971   4.959   0.425  14.309  0.6878 -0.6693 -0.8361
 7852TIP3    H244972   5.095   0.358  14.311  1.5092  0.9800 -0.1422
 7853TIP3   OH244973   1.828   0.071   4.675 -0.5770 -0.0014 -0.7143
 7853TIP3    H144974   1.733   0.070   4.663 -0.7585  1.7985  0.1896
 7853TIP3    H244975   1.840   0.115   4.760  1.0308 -1.0666 -0.3519
 7854TIP3   OH244976   2.556   6.741   1.120 -0.0680 -0.2554 -0.2606
 7854TIP3    H144977   2.534   6.705   1.035  0.8305  1.5246 -1.3113
 7854TIP3    H244978   2.518   6.680   1.183 -0.0928 -2.0348 -1.9068
 7855TIP3   OH244979   4.040   6.385   2.055  0.2952 -0.1711 -0.6904
 7855TIP3    H144980   4.017   6.298   2.089  0.3766  0.0580 -0.0364
 7855TIP3    H244981   3.960   6.437   2.066  0.7208  0.2698  0.3891
 7856TIP3   OH244982   6.632   3.032   0.797 -0.1546 -0.8227 -0.5548
 7856TIP3    H144983   6.580   3.113   0.798  1.0436 -0.0148  1.2575
 7856TIP3    H244984   6.669   3.027   0.885  0.5525 -2.8762 -0.9332
 7857TIP3   OH244985   2.496   4.596   6.154  0.2316  0.5195 -0.3317
 7857TIP3    H144986   2.536   4.683   6.160 -2.8680  2.0415  0.9121
 7857TIP3    H244987   2.404   4.613   6.136 -0.4782 -2.5617 -0.2519
 7858TIP3   OH244988   5.512   6.515   4.054 -0.4436 -0.3287 -0.0187
 7858TIP3    H144989   5.592   6.557   4.086  0.1383 -1.2716 -0.2296
 7858TIP3    H244990   5.537   6.474   3.972 -1.0077 -1.0858  0.1793
 7859TIP3   OH244991   3.565   4.719  14.092  0.1357 -0.3657 -0.2075
 7859TIP3    H144992   3.483   4.673  14.110  0.9601 -2.5551 -1.6982
 7859TIP3    H244993   3.584   4.700  14.000  2.2017  0.2866  0.0269
 7860TIP3   OH244994   1.581   6.032  14.561  0.2399 -1.2518  0.1735
 7860TIP3    H144995   1.551   6.086  14.634 -2.6503 -0.0989 -1.6895
 7860TIP3    H244996   1.657   6.078  14.526 -1.1530  0.7991 -0.3276
 7861TIP3   OH244997   5.496   0.700  14.929 -0.3539  0.2835  0.4491
 7861TIP3    H144998   5.575   0.732  14.974 -1.1564  0.7070  1.6112
 7861TIP3    H244999   5.424   0.724  14.987 -1.1375 -2.5040  0.7845
 7862TIP3   OH245000   5.344   3.240   4.781  0.2690 -0.3996  0.0995
 7862TIP3    H145001   5.334   3.221   4.874 -1.5464 -2.4130 -0.4298
 7862TIP3    H245002   5.375   3.158   4.742 -1.5395 -0.4421 -1.3998
 7863TIP3   OH245003   0.595   2.044   0.517  0.0775  0.3469 -0.4601
 7863TIP3    H145004   0.581   2.118   0.575 -1.0904 -0.3292  0.1700
 7863TIP3    H245005   0.509   2.026   0.479  0.8434  0.8628 -2.5464
 7864TIP3   OH245006   1.340   5.518  11.178 -0.1667 -0.3632 -0.2272
 7864TIP3    H145007   1.313   5.447  11.121  0.2373 -0.0617 -0.8125
 7864TIP3    H245008   1.373   5.585  11.118  0.4848 -0.1348  0.3690
 7865TIP3   OH245009   1.494   0.161   3.747  0.0268 -0.1736 -0.2344
 7865TIP3    H145010   1.412   0.115   3.764 -0.4925  0.5367 -0.7820
 7865TIP3    H245011   1.519   0.133   3.659  0.8516 -1.0738  0.2590
 7866TIP3   OH245012   4.006   2.961  15.163 -0.2087  0.6574  0.0034
 7866TIP3    H145013   4.026   2.915  15.245 -0.7170 -0.0402 -0.2495
 7866TIP3    H245014   4.076   2.935  15.103 -0.7618 -0.2195 -0.2910
 7867TIP3   OH245015   1.608   3.994  11.355  0.1074  0.1777 -1.0343
 7867TIP3    H145016   1.630   4.066  11.295  1.1020  0.5064 -0.2906
 7867TIP3    H245017   1.530   4.025  11.401  0.0683  0.4448 -1.2713
 7868TIP3   OH245018   1.939   5.350   0.485 -1.0556  0.1184 -0.6214
 7868TIP3    H145019   1.933   5.255   0.498  0.3279  0.0660 -0.2151
 7868TIP3    H245020   1.903   5.364   0.397 -1.7885 -0.7033 -0.4689
 7869TIP3   OH245021   1.152   5.203   0.223 -0.8916 -0.0854 -0.2762
 7869TIP3    H145022   1.185   5.274   0.168 -0.9953  0.9744  0.9785
 7869TIP3    H245023   1.070   5.237   0.260 -0.4437 -0.4330  1.1216
 7870TIP3   OH245024   2.535   6.764  11.127  0.4835 -0.0225  0.1891
 7870TIP3    H145025   2.583   6.803  11.201 -0.9038  2.0848  0.0522
 7870TIP3    H245026   2.587   6.788  11.050  0.5313  0.0668  0.2489
 7871TIP3   OH245027   1.789   1.871  13.182  0.4524 -0.1640  0.2820
 7871TIP3    H145028   1.817   1.781  13.199  0.6267  0.1692  1.8933
 7871TIP3    H245029   1.813   1.919  13.261 -0.6077  1.0893 -0.1257
 7872TIP3   OH245030   3.207   1.862   2.914  0.2685  0.5064 -0.0716
 7872TIP3    H145031   3.196   1.812   2.995 -1.7083 -0.2547 -0.7505
 7872TIP3    H245032   3.126   1.911   2.904 -0.4699 -1.0266 -2.6133
 7873TIP3   OH245033   5.202   3.307   3.072  0.2794  0.3047  0.2824
 7873TIP3    H145034   5.129   3.257   3.035 -0.1955  1.9044 -1.1188
 7873TIP3    H245035   5.276   3.288   3.015  0.2570  0.6731  0.1222
 7874TIP3   OH245036   4.274   4.631   1.563  0.4929  0.1370 -0.1756
 7874TIP3    H145037   4.315   4.679   1.490 -0.0978  1.6634  0.4507
 7874TIP3    H245038   4.343   4.573   1.595  1.8338  1.7910  0.1088
 7875TIP3   OH245039   2.763   3.686  13.655  0.0341 -0.5160  0.0717
 7875TIP3    H145040   2.857   3.670  13.660  0.2933  0.7412 -0.4075
 7875TIP3    H245041   2.752   3.776  13.687 -1.0274 -0.7124  0.3008
 7876TIP3   OH245042   6.008   6.277  16.563  0.1101 -0.0337  0.2725
 7876TIP3    H145043   6.087   6.226  16.579  0.8093  0.4010 -1.5740
 7876TIP3    H245044   5.938   6.227  16.606  1.0335 -1.6005  0.0154
 7877TIP3   OH245045   5.168   3.682  15.132  0.4994 -0.4739 -0.6613
 7877TIP3    H145046   5.155   3.716  15.044  0.5104 -0.0823 -0.5137
 7877TIP3    H245047   5.243   3.730  15.166 -0.2863  0.3106  0.0267
 7878TIP3   OH245048   5.539   3.968  14.545  0.2032 -0.1940 -0.3915
 7878TIP3    H145049   5.604   3.919  14.495  0.4097 -1.2329  0.8219
 7878TIP3    H245050   5.486   3.900  14.587 -0.3885  0.6381  0.2298
 7879TIP3   OH245051   0.249   0.516  10.967 -0.3256  0.0558 -0.3322
 7879TIP3    H145052   0.339   0.548  10.961 -0.3506  0.0727 -0.6133
 7879TIP3    H245053   0.238   0.459  10.891 -0.3218 -0.5278  0.0911
 7880TIP3   OH245054   2.454   0.210  15.765  0.0104 -0.5157  0.2911
 7880TIP3    H145055   2.477   0.181  15.677 -2.7304 -0.2672 -0.5906
 7880TIP3    H245056   2.359   0.217  15.764 -0.0052  0.8260  2.8819
 7881TIP3   OH245057   5.583   0.934  12.551 -0.1300  1.0913 -0.0694
 7881TIP3    H145058   5.532   0.959  12.474  0.2886  1.5609 -0.1950
 7881TIP3    H245059   5.567   0.840  12.560  0.7235  0.7949 -1.4009
 7882TIP3   OH245060   3.677   6.207   4.878 -0.2804  0.1242 -0.2095
 7882TIP3    H145061   3.663   6.116   4.905 -0.8528  0.4832  0.7404
 7882TIP3    H245062   3.699   6.201   4.785 -0.9501 -0.9402 -0.3149
 7883TIP3   OH245063   6.037   1.741  15.822 -0.1142 -0.5542  0.8065
 7883TIP3    H145064   6.107   1.711  15.880  0.8038 -1.0842 -0.5263
 7883TIP3    H245065   5.993   1.660  15.794  0.9288 -0.5606 -1.0065
 7884TIP3   OH245066   4.279   1.226  15.492 -0.2291  0.4365 -0.2086
 7884TIP3    H145067   4.361   1.216  15.444 -0.4840 -0.2661 -0.5156
 7884TIP3    H245068   4.214   1.243  15.424 -0.4838  0.0817 -0.0555
 7885TIP3   OH245069   3.083   4.278  12.533  0.2830  0.4206 -0.3068
 7885TIP3    H145070   3.157   4.298  12.476  0.3696 -0.2040 -0.4262
 7885TIP3    H245071   3.109   4.197  12.578 -1.0983 -0.9294 -1.7941
 7886TIP3   OH245072   3.554   5.097  11.841  0.2181 -0.4827 -0.0015
 7886TIP3    H145073   3.587   5.181  11.810 -0.6713  0.6975  2.0738
 7886TIP3    H245074   3.517   5.116  11.927 -0.5255 -2.9016  0.2783
 7887TIP3   OH245075   3.009   0.747  16.429 -0.3826  0.0711 -0.0403
 7887TIP3    H145076   3.082   0.734  16.488 -0.9259 -0.4401  0.5317
 7887TIP3    H245077   2.991   0.661  16.391  0.0403  0.4137 -1.0598
 7888TIP3   OH245078   1.683   4.649   0.526 -0.8610 -0.3569 -0.0242
 7888TIP3    H145079   1.665   4.740   0.549 -1.5488  0.0723 -2.0616
 7888TIP3    H245080   1.777   4.640   0.540 -0.6505  0.8902 -0.4824
 7889TIP3   OH245081   2.495   0.194   3.503  0.3294 -0.1791 -0.2801
 7889TIP3    H145082   2.480   0.106   3.538 -0.4812 -0.3811 -1.0965
 7889TIP3    H245083   2.521   0.179   3.412  0.0773  0.4336 -0.4590
 7890TIP3   OH245084   5.555   5.692  11.103  0.0316  0.3621 -0.4067
 7890TIP3    H145085   5.509   5.611  11.084 -1.0129  0.6182  0.8524
 7890TIP3    H245086   5.560   5.737  11.019  0.9378 -1.1243 -1.1883
 7891TIP3   OH245087   5.336   4.056   3.210  0.2622  0.2760  0.3577
 7891TIP3    H145088   5.267   4.081   3.148  0.0334  1.7914  1.1759
 7891TIP3    H245089   5.352   4.136   3.261 -0.1589 -1.1306  2.8243
 7892TIP3   OH245090   4.502   5.378   1.756  0.1648  0.4665  0.2336
 7892TIP3    H145091   4.496   5.432   1.678 -0.2298  0.2232  0.0949
 7892TIP3    H245092   4.418   5.333   1.762 -0.3627  1.5602  1.5970
 7893TIP3   OH245093   1.801   4.530   2.125 -0.3102  0.1612 -0.1129
 7893TIP3    H145094   1.810   4.612   2.174 -2.6127  0.5064 -0.1709
 7893TIP3    H245095   1.801   4.558   2.033  2.1741 -0.2979 -0.3163
 7894TIP3   OH245096   4.971   0.802  15.586 -0.2565  0.1653  0.0007
 7894TIP3    H145097   4.970   0.877  15.527 -3.0755 -0.6460 -1.1458
 7894TIP3    H245098   4.939   0.837  15.670  1.3047  0.7910  0.3709
 7895TIP3   OH245099   2.758   0.410   2.217  0.5180 -0.1764 -0.0370
 7895TIP3    H145100   2.714   0.367   2.143  0.4361 -0.8050  0.3710
 7895TIP3    H245101   2.693   0.410   2.287  1.1884 -1.2349  0.6111
 7896TIP3   OH245102   4.219   1.034   5.333  0.0502  0.1157 -0.3699
 7896TIP3    H145103   4.288   1.029   5.399  0.4856 -0.8223 -0.8760
 7896TIP3    H245104   4.243   1.110   5.280  0.6864 -0.1813 -0.5201
 7897TIP3   OH245105   3.085   0.971   6.112  0.5156 -0.3668  0.5529
 7897TIP3    H145106   3.057   1.044   6.167  1.1241 -0.8915  1.5984
 7897TIP3    H245107   3.062   0.893   6.162  3.1687 -0.8509  1.1939
 7898TIP3   OH245108   3.989   3.599  12.436  0.2953 -0.5484  0.1886
 7898TIP3    H145109   3.967   3.568  12.348 -2.5081  2.4986 -0.3934
 7898TIP3    H245110   4.069   3.649  12.424  0.1353 -0.4638 -0.6058
 7899TIP3   OH245111   4.588   2.414   6.153  0.8468  0.5742 -0.1969
 7899TIP3    H145112   4.565   2.326   6.181  2.3753 -0.0685 -0.8503
 7899TIP3    H245113   4.515   2.469   6.182  0.3093 -0.7487  1.0502
 7900TIP3   OH245114   0.936   3.666  13.445  0.7862  0.3860  0.6950
 7900TIP3    H145115   0.907   3.662  13.537  0.5218 -2.2388  0.5792
 7900TIP3    H245116   0.854   3.659  13.395  1.0980 -0.4749  0.2970
 7901TIP3   OH245117   4.754   2.791  14.036 -0.1004  0.1961 -0.4289
 7901TIP3    H145118   4.791   2.855  14.096  0.6641 -0.6121 -0.0065
 7901TIP3    H245119   4.685   2.748  14.086  1.2545 -1.2349  0.3158
 7902TIP3   OH245120   1.315   4.972   2.415 -0.5462 -0.7622  0.2143
 7902TIP3    H145121   1.330   4.963   2.509  2.4213 -1.5226 -0.2313
 7902TIP3    H245122   1.329   5.065   2.397  0.6417 -0.9127  0.3016
 7903TIP3   OH245123   3.618   4.015   2.753 -0.4400 -0.2773 -0.3070
 7903TIP3    H145124   3.713   4.002   2.744 -0.2203  0.8587  0.2607
 7903TIP3    H245125   3.584   3.928   2.773  0.7308 -0.3869  1.3680
 7904TIP3   OH245126   0.712   5.989   4.687 -0.4585  0.1660 -0.0151
 7904TIP3    H145127   0.762   6.057   4.732 -1.8879  1.4146 -0.2348
 7904TIP3    H245128   0.779   5.932   4.649  0.7812  0.6396  1.3387
 7905TIP3   OH245129   4.017   4.530  15.768 -0.7163  0.0845 -0.0332
 7905TIP3    H145130   4.047   4.543  15.858 -1.4057  1.2399  0.0482
 7905TIP3    H245131   4.086   4.569  15.714  0.0526 -1.2560 -0.0647
 7906TIP3   OH245132   0.002   2.583  12.097 -0.2543 -0.2892 -0.1691
 7906TIP3    H145133   0.074   2.622  12.048  1.4900  0.2637  2.6787
 7906TIP3    H245134   0.035   2.498  12.125 -0.6328  0.0138  1.2594
 7907TIP3   OH245135   0.220   4.681   1.779 -0.5556 -0.3909  0.3735
 7907TIP3    H145136   0.191   4.772   1.785 -2.8915 -1.0485  0.1884
 7907TIP3    H245137   0.303   4.679   1.825  0.1695  2.0616 -0.6352
 7908TIP3   OH245138   3.267   0.363   3.008 -0.6287 -0.0968  0.0070
 7908TIP3    H145139   3.292   0.316   3.088 -0.3016 -0.0053 -0.0395
 7908TIP3    H245140   3.175   0.342   2.995 -0.3678 -1.1047 -0.2739
 7909TIP3   OH245141   0.591   5.015  11.462 -0.0339  0.4938 -0.0216
 7909TIP3    H145142   0.581   4.969  11.378 -0.7195 -0.4820  0.5704
 7909TIP3    H245143   0.677   5.055  11.458  0.2040 -0.0857 -0.9388
 7910TIP3   OH245144   4.116   5.900   1.765  0.3424 -0.0327  0.0311
 7910TIP3    H145145   4.116   5.807   1.743 -0.0063  0.6641 -3.6650
 7910TIP3    H245146   4.198   5.933   1.727 -0.2729  1.4105 -0.1014
 7911TIP3   OH245147   0.417   5.945  14.486  0.1639 -0.2216  0.3452
 7911TIP3    H145148   0.511   5.930  14.472 -0.0067 -1.2179  0.2058
 7911TIP3    H245149   0.412   5.977  14.576  0.6732  0.2545  0.2140
 7912TIP3   OH245150   1.303   5.778   1.034 -0.3688 -0.4174  0.2408
 7912TIP3    H145151   1.251   5.699   1.048 -1.7159  0.3132 -0.4376
 7912TIP3    H245152   1.263   5.843   1.091  1.0241 -0.3151  1.1476
 7913TIP3   OH245153   0.070   2.233   5.860 -0.5504 -0.4939 -0.4773
 7913TIP3    H145154   0.127   2.292   5.908  0.8813  0.4102 -3.0796
 7913TIP3    H245155   0.005   2.290   5.819  0.5683 -0.6435 -2.6372
 7914TIP3   OH245156   5.593   1.835  14.936 -0.4056  0.5010  0.6015
 7914TIP3    H145157   5.523   1.772  14.954 -0.0370  0.0993  0.6701
 7914TIP3    H245158   5.548   1.917  14.916 -0.8783  0.4174  1.2822
 7915TIP3   OH245159   3.693   1.357   2.861  0.2680  0.3058 -0.0368
 7915TIP3    H145160   3.684   1.381   2.954  0.1835  1.6779 -0.3740
 7915TIP3    H245161   3.783   1.327   2.853 -0.0308 -0.8688  0.6958
 7916TIP3   OH245162   2.079   1.761   5.290  0.1162 -0.7413 -0.1335
 7916TIP3    H145163   2.117   1.736   5.374 -0.5392  1.2019  0.8300
 7916TIP3    H245164   2.011   1.695   5.274 -1.3389  0.0563  2.0986
 7917TIP3   OH245165   0.858   4.483   5.001  0.1137 -0.1014  0.0347
 7917TIP3    H145166   0.865   4.397   5.044 -0.9213 -0.3487 -0.2554
 7917TIP3    H245167   0.771   4.514   5.026  0.3672  0.7423 -0.1079
 7918TIP3   OH245168   1.581   2.544   2.773  0.1226 -0.3071  0.4127
 7918TIP3    H145169   1.578   2.639   2.773  0.4429 -0.2963  0.3309
 7918TIP3    H245170   1.490   2.517   2.759  0.0770 -0.0118  0.1335
 7919TIP3   OH245171   0.074   4.564  15.171 -0.2059 -0.5876  0.6919
 7919TIP3    H145172   0.145   4.608  15.125  0.2586 -0.2919  1.6569
 7919TIP3    H245173   0.042   4.629  15.234 -0.8288 -0.9725  0.7894
 7920TIP3   OH245174   5.581   5.509  16.008 -0.2777 -0.0666 -0.2925
 7920TIP3    H145175   5.548   5.599  16.002 -2.2737 -0.5834  1.5074
 7920TIP3    H245176   5.644   5.511  16.079  0.1831  0.0184 -0.6971
 7921TIP3   OH245177   5.536   2.812  13.033  0.1527 -0.1914 -0.0086
 7921TIP3    H145178   5.534   2.754  12.957  1.0331 -1.0359  0.5908
 7921TIP3    H245179   5.629   2.821  13.054  0.2789  3.4081 -1.5162
 7922TIP3   OH245180   3.749   4.916   5.500 -0.3611 -0.3715 -0.0242
 7922TIP3    H145181   3.656   4.940   5.489 -0.7608 -1.6189  0.4941
 7922TIP3    H245182   3.791   4.950   5.420 -1.4957 -0.9062 -0.8871
 7923TIP3   OH245183   5.080   4.848   3.981 -0.3571  0.5871 -0.4077
 7923TIP3    H145184   5.130   4.794   3.919  1.0303  3.0578 -1.6200
 7923TIP3    H245185   4.992   4.851   3.944 -0.2545 -0.2151 -0.7411
 7924TIP3   OH245186   4.666   4.508   2.967  0.0509  0.1468  0.4935
 7924TIP3    H145187   4.737   4.571   2.950 -1.3192  1.5393 -0.3202
 7924TIP3    H245188   4.650   4.515   3.061  1.0783 -0.2961  0.7133
 7925TIP3   OH245189   3.272   5.024   3.473  0.3284  0.6217  0.0155
 7925TIP3    H145190   3.336   4.972   3.423 -0.2398 -0.5387  0.4533
 7925TIP3    H245191   3.324   5.068   3.540  0.8262  0.6508 -0.3811
 7926TIP3   OH245192   2.624   6.341   3.551 -0.2579  0.1349  0.1272
 7926TIP3    H145193   2.576   6.358   3.633  0.0316  0.9500  0.1286
 7926TIP3    H245194   2.628   6.426   3.507  1.7583  0.2487  0.4336
 7927TIP3   OH245195   0.618   0.522   4.511 -0.0225 -0.3454  0.1973
 7927TIP3    H145196   0.708   0.555   4.516 -0.9446  2.3383  0.2702
 7927TIP3    H245197   0.597   0.495   4.600  0.3049  0.1189  0.4156
 7928TIP3   OH245198   5.202   6.674   3.827  0.0394 -0.2651  0.6526
 7928TIP3    H145199   5.178   6.715   3.910  0.6155  1.0587  0.1990
 7928TIP3    H245200   5.152   6.722   3.761 -0.5064 -1.3860  0.2398
 7929TIP3   OH245201   3.092   2.920   6.417  0.1694 -0.4440 -0.3695
 7929TIP3    H145202   3.153   2.877   6.477  0.4568  0.8160  0.2806
 7929TIP3    H245203   3.032   2.969   6.474  0.8462  1.3120 -1.0869
 7930TIP3   OH245204   1.999   1.399   2.508 -0.0019  0.1338  0.4786
 7930TIP3    H145205   1.915   1.439   2.531 -1.2072 -1.5261 -0.8266
 7930TIP3    H245206   2.049   1.401   2.590 -1.7198  0.1645  1.5813
 7931TIP3   OH245207   0.297   5.125   5.606  0.0850 -0.2421  0.2443
 7931TIP3    H145208   0.385   5.144   5.640  0.6165 -3.0924  0.7063
 7931TIP3    H245209   0.312   5.098   5.515 -0.4138  0.0390  0.0770
 7932TIP3   OH245210   1.822   0.828   2.158  0.3850  0.5517  0.4373
 7932TIP3    H145211   1.895   0.847   2.217  0.6019  0.9613  0.0402
 7932TIP3    H245212   1.766   0.905   2.163  0.4174  0.5998  0.0893
 7933TIP3   OH245213   2.924   2.673  12.898  0.6870  0.0197  0.1009
 7933TIP3    H145214   2.895   2.663  12.988 -0.0198  1.8743  0.1172
 7933TIP3    H245215   2.996   2.611  12.889  0.3985 -0.5952  1.7645
 7934TIP3   OH245216   1.945   1.545   5.538  0.3530  0.7643 -0.1066
 7934TIP3    H145217   1.897   1.610   5.487 -0.5390  0.0540 -0.1986
 7934TIP3    H245218   2.001   1.500   5.474 -0.4380  0.1707 -0.3957
 7935TIP3   OH245219   6.169   4.721  16.486 -0.5595  0.2736 -0.1325
 7935TIP3    H145220   6.097   4.771  16.447  0.5423  1.2393 -1.0017
 7935TIP3    H245221   6.180   4.759  16.573  0.5325  1.9159 -0.9257
 7936TIP3   OH245222   5.811   1.277   1.787 -0.3564 -0.8233  0.4673
 7936TIP3    H145223   5.821   1.184   1.802 -2.1855 -1.1048  0.1648
 7936TIP3    H245224   5.823   1.287   1.692 -1.8769 -1.0532  0.2192
 7937TIP3   OH245225   0.801   4.842  11.758 -0.8053 -0.3180 -0.3651
 7937TIP3    H145226   0.884   4.796  11.753 -0.1258  0.0708  3.6286
 7937TIP3    H245227   0.822   4.932  11.736  0.2323  0.0454  1.8484
 7938TIP3   OH245228   3.347   1.083   5.389  0.7125  0.2693 -0.3960
 7938TIP3    H145229   3.253   1.081   5.407  0.7562 -1.2132 -0.2369
 7938TIP3    H245230   3.383   1.137   5.459  0.2138 -0.8915  0.8017
 7939TIP3   OH245231   3.089   4.738  11.788 -0.0778 -0.1859 -0.1426
 7939TIP3    H145232   3.065   4.688  11.710  0.1187  0.6500 -0.7553
 7939TIP3    H245233   3.168   4.786  11.762  1.4976 -1.8090  1.3740
 7940TIP3   OH245234   1.410   2.500  13.881 -0.2649  0.1348  0.0995
 7940TIP3    H145235   1.370   2.542  13.957  2.7230  0.6859  1.5199
 7940TIP3    H245236   1.464   2.568  13.841  0.5405 -0.9329 -0.7034
 7941TIP3   OH245237   5.659   4.440  10.778  0.0863  0.0939  0.7021
 7941TIP3    H145238   5.660   4.359  10.727 -1.7638 -0.7458  1.8699
 7941TIP3    H245239   5.589   4.492  10.739  0.6087  0.7264  0.5844
 7942TIP3   OH245240   2.506   5.576  12.433  0.1306  0.4042  0.3658
 7942TIP3    H145241   2.441   5.584  12.363 -0.4387 -0.5052  0.7689
 7942TIP3    H245242   2.568   5.511  12.401  0.1895  0.4061  0.4750
 7943TIP3   OH245243   5.806   3.765   3.146 -0.9028 -0.6032  0.3616
 7943TIP3    H145244   5.863   3.718   3.208  0.3890  0.1812 -0.1779
 7943TIP3    H245245   5.718   3.737   3.169 -0.1934 -4.2135 -0.6735
 7944TIP3   OH245246   5.547   1.408   5.083  0.0254  0.0333  0.5720
 7944TIP3    H145247   5.491   1.331   5.088  0.6117 -0.5333 -1.0686
 7944TIP3    H245248   5.636   1.373   5.081  0.2656  0.4225 -3.5086
 7945TIP3   OH245249   0.741   5.356  15.976  0.1993 -0.4524  0.0771
 7945TIP3    H145250   0.783   5.437  16.008  0.2820  0.1298 -1.4299
 7945TIP3    H245251   0.807   5.288  15.991  1.4445  0.3213 -1.5568
 7946TIP3   OH245252   6.445   2.671   3.589 -0.2661  0.4442  0.5445
 7946TIP3    H145253   6.393   2.720   3.653 -0.5056  1.3986 -0.3454
 7946TIP3    H245254   6.536   2.683   3.618 -0.3410  1.2236  0.4914
 7947TIP3   OH245255   0.514   0.931   0.588 -0.0248  0.2216 -0.3150
 7947TIP3    H145256   0.460   0.888   0.654 -1.6649  0.0189 -1.7261
 7947TIP3    H245257   0.521   0.867   0.517  1.3450  0.5912 -0.5440
 7948TIP3   OH245258   2.698   2.296   5.127  0.8964 -0.1911  0.5179
 7948TIP3    H145259   2.659   2.211   5.104 -0.5230 -0.0591  2.2654
 7948TIP3    H245260   2.764   2.311   5.058 -1.3626 -0.9155 -1.9793
 7949TIP3   OH245261   4.888   2.152  13.753  0.0683  0.1549  0.2167
 7949TIP3    H145262   4.794   2.163  13.739  0.3275  1.3438 -0.7326
 7949TIP3    H245263   4.914   2.084  13.690 -0.0386  0.2907  0.0286
 7950TIP3   OH245264   2.660   1.962   3.271 -0.5561 -0.4431 -0.5843
 7950TIP3    H145265   2.736   1.905   3.257  0.4358 -0.2859  3.1704
 7950TIP3    H245266   2.682   2.042   3.223  1.7872 -0.3507  0.5165
 7951TIP3   OH245267   1.298   2.609  12.143 -0.2990  0.3399 -0.0302
 7951TIP3    H145268   1.243   2.556  12.086 -0.1846  0.3366 -0.1382
 7951TIP3    H245269   1.379   2.622  12.093 -0.7437  1.5523 -0.4755
 7952TIP3   OH245270   4.231   5.585   1.098 -0.0981 -0.5683  0.3007
 7952TIP3    H145271   4.164   5.577   1.165 -1.2563  1.3523 -0.5278
 7952TIP3    H245272   4.291   5.651   1.132 -0.8357  0.6096 -0.6055
 7953TIP3   OH245273   6.600   2.970  15.502  0.1404  0.5093  0.6194
 7953TIP3    H145274   6.575   2.882  15.476 -0.5824  0.8055  0.2574
 7953TIP3    H245275   6.654   2.959  15.580  0.2695 -0.2606  0.4271
 7954TIP3   OH245276   0.158   1.744   0.213 -0.2182 -0.7174  0.0394
 7954TIP3    H145277   0.119   1.768   0.297  0.1152 -1.0870  0.3034
 7954TIP3    H245278   0.251   1.768   0.222 -0.5429  1.0319 -0.9227
 7955TIP3   OH245279   5.497   4.597  15.143  0.2378  0.5552  0.2663
 7955TIP3    H145280   5.569   4.637  15.094  0.7815 -0.7645 -0.0417
 7955TIP3    H245281   5.540   4.537  15.204 -0.3664  2.4501  2.7510
 7956TIP3   OH245282   2.063   6.173   5.511  0.2947  0.0597 -0.5351
 7956TIP3    H145283   1.996   6.238   5.488 -0.3847 -0.5034 -0.1561
 7956TIP3    H245284   2.015   6.092   5.524  1.3085 -1.0163 -2.8648
 7957TIP3   OH245285   0.506   6.658  13.302  0.5625  0.6180 -0.2942
 7957TIP3    H145286   0.421   6.639  13.262  0.6324  1.0693 -0.6740
 7957TIP3    H245287   0.499   6.750  13.328  0.1970  0.1041  1.5544
 7958TIP3   OH245288   3.292   1.531  12.388  0.3888 -0.4080 -0.3655
 7958TIP3    H145289   3.245   1.453  12.358 -3.0245  0.7322  1.3913
 7958TIP3    H245290   3.335   1.504  12.468 -1.0532 -0.5103  0.4164
 7959TIP3   OH245291   3.459   2.137   4.257  0.0254 -0.2347 -0.4830
 7959TIP3    H145292   3.464   2.179   4.343  0.1892  0.9360 -1.0406
 7959TIP3    H245293   3.395   2.190   4.209 -0.4709 -1.2121 -0.9052
 7960TIP3   OH245294   3.916   6.027  15.939 -0.0396 -0.1861 -0.2611
 7960TIP3    H145295   3.875   5.943  15.957  0.6113 -0.8371 -1.6899
 7960TIP3    H245296   3.844   6.081  15.905 -0.0850 -0.7933 -1.1665
 7961TIP3   OH245297   6.329   3.829   3.839  0.4852 -0.1198  0.2487
 7961TIP3    H145298   6.329   3.922   3.817  2.7611 -0.2662 -0.5867
 7961TIP3    H245299   6.384   3.788   3.771  1.4798 -1.7087  1.9332
 7962TIP3   OH245300   5.370   2.333   0.872 -0.0598  0.8140  0.3406
 7962TIP3    H145301   5.347   2.377   0.790 -0.3635 -0.0501 -0.0470
 7962TIP3    H245302   5.349   2.397   0.940 -2.6416  0.4851 -0.0640
 7963TIP3   OH245303   0.846   3.276   5.479 -0.5754 -0.4258 -0.2379
 7963TIP3    H145304   0.888   3.252   5.561  2.0294 -2.1629 -1.9193
 7963TIP3    H245305   0.752   3.266   5.496 -0.1001 -1.3050  2.3138
 7964TIP3   OH245306   4.092   4.719  11.577 -0.0155  0.0944 -0.0992
 7964TIP3    H145307   4.148   4.797  11.572  2.4304 -1.4149  1.4834
 7964TIP3    H245308   4.065   4.716  11.669 -0.7865 -0.4997 -0.3354
 7965TIP3   OH245309   1.637   3.087   6.332 -0.5375 -0.5169  0.0051
 7965TIP3    H145310   1.542   3.102   6.333 -0.5041 -0.1553  2.4862
 7965TIP3    H245311   1.657   3.055   6.420  1.8584  0.8523  0.0220
 7966TIP3   OH245312   1.165   6.316  11.824  0.9000  0.5720 -0.1041
 7966TIP3    H145313   1.175   6.375  11.749  3.3371  0.1606 -0.1989
 7966TIP3    H245314   1.085   6.267  11.805 -0.6729  3.0994 -0.4883
 7967TIP3   OH245315   5.964   3.848  13.454 -0.2975 -0.0778 -0.0972
 7967TIP3    H145316   5.909   3.888  13.521 -0.5026 -0.9248  0.2423
 7967TIP3    H245317   6.020   3.920  13.424 -0.0069  0.2509  1.1812
 7968TIP3   OH245318   1.679   1.802  11.221  0.6082 -0.5125  0.4772
 7968TIP3    H145319   1.679   1.761  11.307  0.2822  1.9810  1.7504
 7968TIP3    H245320   1.586   1.810  11.198  0.7012 -1.4728 -0.2904
 7969TIP3   OH245321   1.133   1.719   3.429 -0.1159  0.2834 -0.2260
 7969TIP3    H145322   1.216   1.725   3.382 -0.4108  2.0818 -0.5939
 7969TIP3    H245323   1.158   1.714   3.521  0.4005  0.1031 -0.3710
 7970TIP3   OH245324   5.864   5.271   4.098 -0.3626 -0.3228  0.3253
 7970TIP3    H145325   5.924   5.345   4.106 -1.7075  0.7796  0.5671
 7970TIP3    H245326   5.809   5.292   4.023 -0.4957 -1.2927  0.1312
 7971TIP3   OH245327   3.645   6.036   3.329  0.5622  0.8613  0.0643
 7971TIP3    H145328   3.624   5.973   3.398  0.9386 -1.2990 -1.6754
 7971TIP3    H245329   3.728   6.005   3.292 -0.1086  1.3154 -1.9851
 7972TIP3   OH245330   3.331   1.692  14.225  0.0249  0.2531  0.4350
 7972TIP3    H145331   3.426   1.695  14.232  0.1333 -1.3155  0.0456
 7972TIP3    H245332   3.300   1.708  14.315  0.6866 -0.1590  0.7465
 7973TIP3   OH245333   3.539   2.178  13.198 -0.0301  0.3185 -0.2737
 7973TIP3    H145334   3.576   2.124  13.129  0.0128  1.0598 -0.8380
 7973TIP3    H245335   3.593   2.158  13.275 -0.8179 -1.4017 -0.1184
 7974TIP3   OH245336   5.024   2.957   1.131 -0.0904  0.1347  0.4473
 7974TIP3    H145337   5.116   2.965   1.104  0.3238  0.7485  1.9505
 7974TIP3    H245338   5.007   2.863   1.130  0.4497  0.0310 -0.1311
 7975TIP3   OH245339   3.886   1.756   3.883 -0.2084  0.0933 -0.3525
 7975TIP3    H145340   3.898   1.837   3.834 -2.8322  1.1688  0.6310
 7975TIP3    H245341   3.792   1.748   3.895  0.0238 -2.6047  0.4817
 7976TIP3   OH245342   2.706   2.653  12.722  0.0809 -0.7333 -0.4428
 7976TIP3    H145343   2.650   2.582  12.752  0.9870 -1.5918 -0.7342
 7976TIP3    H245344   2.793   2.632  12.757  0.5128 -0.1442 -1.1293
 7977TIP3   OH245345   5.598   4.507   0.055  0.1503  0.2920 -0.4874
 7977TIP3    H145346   5.634   4.502  -0.033 -0.0646  2.5732 -0.7596
 7977TIP3    H245347   5.503   4.516   0.043 -0.0527 -0.8737  0.0569
 7978TIP3   OH245348   4.403   4.896  14.796 -0.2202 -0.6893  0.1661
 7978TIP3    H145349   4.413   4.825  14.860 -0.5774 -0.0192  0.9780
 7978TIP3    H245350   4.310   4.893  14.772 -0.1158 -0.8510 -0.2373
 7979TIP3   OH245351   5.766   2.298   5.013  0.3591  0.1096  0.1803
 7979TIP3    H145352   5.779   2.312   5.107 -1.4221  1.0523  0.3335
 7979TIP3    H245353   5.846   2.331   4.973  1.3743 -0.7775  1.3741
 7980TIP3   OH245354   2.456   6.643   4.984 -0.1696 -0.4922  0.4496
 7980TIP3    H145355   2.406   6.677   4.910 -2.9998  1.4837  3.0350
 7980TIP3    H245356   2.444   6.548   4.978 -0.9569 -0.3356 -1.1918
 7981TIP3   OH245357   5.695   4.455  14.198  0.3248 -0.0961  0.2808
 7981TIP3    H145358   5.657   4.475  14.284 -2.3763 -2.1890 -0.2899
 7981TIP3    H245359   5.678   4.533  14.146  1.7431  1.0882  1.5184
 7982TIP3   OH245360   4.508   3.028  16.160 -0.1024  0.1564  0.5131
 7982TIP3    H145361   4.419   3.012  16.129  1.2425 -0.6403 -3.4820
 7982TIP3    H245362   4.531   3.114  16.126  0.9094  0.0434  0.8660
 7983TIP3   OH245363   2.371   2.493   1.717  0.4166  0.0150 -0.8377
 7983TIP3    H145364   2.382   2.582   1.751  0.7585  0.5659 -2.2967
 7983TIP3    H245365   2.289   2.497   1.668  0.8575 -0.2143 -1.6199
 7984TIP3   OH245366   0.679   0.551   1.091 -0.8573  0.5342 -0.8213
 7984TIP3    H145367   0.713   0.592   1.011 -2.5276 -0.6682 -2.2348
 7984TIP3    H245368   0.679   0.458   1.071 -2.9153  0.3356 -0.0990
 7985TIP3   OH245369   6.209   5.398   0.442 -0.0635  0.0129 -0.9512
 7985TIP3    H145370   6.141   5.439   0.496  0.3704  0.7997 -0.9980
 7985TIP3    H245371   6.240   5.324   0.494  0.8640  1.1813  0.2222
 7986TIP3   OH245372   1.161   6.249   4.150 -0.7392 -0.3464 -0.4011
 7986TIP3    H145373   1.085   6.308   4.152 -0.7658 -0.3923  0.8476
 7986TIP3    H245374   1.134   6.178   4.091 -1.9535 -0.7139  0.5549
 7987TIP3   OH245375   0.820   3.416  13.232  0.0049 -0.4052 -0.0104
 7987TIP3    H145376   0.909   3.390  13.256  0.2268  0.2954 -0.0410
 7987TIP3    H245377   0.818   3.511  13.248 -0.8603 -0.4820  0.3739
 7988TIP3   OH245378   0.223   4.059   5.896 -0.6319 -0.0312  0.5778
 7988TIP3    H145379   0.135   4.020   5.898 -0.7326  0.2130  1.4199
 7988TIP3    H245380   0.206   4.154   5.891 -0.6063  0.4407  5.0352
 7989TIP3   OH245381   6.172   1.689  16.591 -0.3886 -0.6387  0.1924
 7989TIP3    H145382   6.114   1.701  16.516 -0.1072  0.7596  0.1737
 7989TIP3    H245383   6.117   1.647  16.657 -1.4273  0.6293  0.1593
 7990TIP3   OH245384   1.162   0.006  14.792 -0.2661  0.1435  0.5189
 7990TIP3    H145385   1.245   0.046  14.767 -0.3503  1.1408  1.7126
 7990TIP3    H245386   1.148  -0.064  14.728 -0.1160  2.0356 -1.7318
 7991TIP3   OH245387   5.849   1.375  16.410  0.3860 -0.0786  0.2593
 7991TIP3    H145388   5.911   1.320  16.456  0.4769 -0.8368 -0.7387
 7991TIP3    H245389   5.798   1.417  16.479  1.2183 -0.3545  1.0580
 7992TIP3   OH245390   0.127   6.025  16.151  0.0157  0.1196  0.3085
 7992TIP3    H145391   0.091   5.961  16.089  0.8490 -0.1695  0.1078
 7992TIP3    H245392   0.122   6.108  16.105 -1.7886  0.3582  0.8560
 7993TIP3   OH245393   1.121   3.969   0.457  0.6345  0.0887 -0.3045
 7993TIP3    H145394   1.030   3.997   0.448  0.4960  0.4768  1.8484
 7993TIP3    H245395   1.172   4.050   0.448  0.5723  0.2865  0.9859
 7994TIP3   OH245396   5.035   5.070   3.099  0.1144 -0.3149  1.3198
 7994TIP3    H145397   5.092   5.138   3.135 -0.7479  1.4217 -0.3981
 7994TIP3    H245398   5.038   5.084   3.004  2.2825 -4.6311  0.4948
 7995TIP3   OH245399   3.025   0.335  13.071  0.1337 -0.2894 -0.3096
 7995TIP3    H145400   3.027   0.422  13.031  0.6611 -1.0753 -2.0731
 7995TIP3    H245401   2.998   0.352  13.161 -1.0777  1.5629 -0.9500
 7996TIP3   OH245402   4.606   6.494  16.399 -0.2266 -0.8551  0.2805
 7996TIP3    H145403   4.678   6.455  16.349 -2.1533 -0.9257 -2.6559
 7996TIP3    H245404   4.530   6.441  16.376 -1.6054  0.4015  1.7324
 7997TIP3   OH245405   4.749   5.522   0.936  0.1178 -0.4333  0.0421
 7997TIP3    H145406   4.720   5.433   0.955 -1.6804  0.2260  0.5548
 7997TIP3    H245407   4.841   5.524   0.963 -0.1591 -1.7866  1.1481
 7998TIP3   OH245408   6.541   2.435  12.340  0.6353  0.2903  0.6929
 7998TIP3    H145409   6.492   2.508  12.378  0.9054 -0.2790  2.1706
 7998TIP3    H245410   6.553   2.374  12.412  2.1370 -0.3201 -0.0336
 7999TIP3   OH245411   2.552   3.626   1.882 -0.2442 -0.6374  0.1607
 7999TIP3    H145412   2.603   3.633   1.801  0.4976  0.7620  0.6989
 7999TIP3    H245413   2.461   3.627   1.853  0.0043 -1.5539 -0.7249
 8000TIP3   OH245414   2.017   6.408  12.942 -0.3205  0.2137 -0.0065
 8000TIP3    H145415   2.026   6.501  12.963  2.6414  0.2418 -0.9393
 8000TIP3    H245416   2.055   6.363  13.017  2.7210  0.0219 -1.5321
 8001TIP3   OH245417   2.845   6.427  15.009 -1.0332 -0.4629  0.0963
 8001TIP3    H145418   2.768   6.395  15.057  0.5417 -1.8193  1.8861
 8001TIP3    H245419   2.884   6.348  14.971  0.6008 -0.1518  1.0189
 8002TIP3   OH245420   2.994   1.625  14.173  0.2503 -0.2561  0.3888
 8002TIP3    H145421   3.032   1.564  14.236 -0.1373 -0.2450  0.6353
 8002TIP3    H245422   2.900   1.627  14.195  0.2195  0.2362  0.2239
 8003TIP3   OH245423   2.075   4.385   3.124  0.3981  0.1148 -0.4796
 8003TIP3    H145424   2.066   4.475   3.157 -1.5464 -0.4936  0.8290
 8003TIP3    H245425   1.985   4.352   3.121  0.9577 -1.3886 -2.1816
 8004TIP3   OH245426   4.093   3.427  16.398 -0.6134 -0.2073  0.4814
 8004TIP3    H145427   4.003   3.399  16.379 -0.4928 -1.7289  1.9167
 8004TIP3    H245428   4.097   3.518  16.367 -2.4826 -0.2809 -0.0953
 8005TIP3   OH245429   3.366   4.003   1.443  0.3919  0.4656 -0.2804
 8005TIP3    H145430   3.301   4.073   1.440  1.3510  1.3543 -1.0152
 8005TIP3    H245431   3.314   3.923   1.455 -0.7868  1.2027 -0.2793
 8006TIP3   OH245432   3.689   4.626  12.340  0.4602  0.2506  0.1338
 8006TIP3    H145433   3.666   4.546  12.387 -3.4409 -0.9797 -3.2155
 8006TIP3    H245434   3.641   4.696  12.385 -2.4049 -0.7370 -1.1752
 8007TIP3   OH245435   6.065   1.045   2.634  0.6213 -0.0730 -0.1552
 8007TIP3    H145436   6.054   0.990   2.711  0.1068  1.0988  0.6513
 8007TIP3    H245437   5.986   1.099   2.631  1.2422  0.8490 -0.7110
 8008TIP3   OH245438   6.638   6.099  12.312  0.5832 -0.1601 -0.0588
 8008TIP3    H145439   6.583   6.165  12.354  1.6779  0.2218  0.8192
 8008TIP3    H245440   6.703   6.149  12.264  1.2932 -0.5946  0.4349
 8009TIP3   OH245441   4.556   5.485   3.846 -0.2211 -0.3775 -0.0870
 8009TIP3    H145442   4.497   5.534   3.788 -0.6469  0.8123  1.2897
 8009TIP3    H245443   4.572   5.545   3.919  0.3968 -1.7796  0.9573
 8010TIP3   OH245444   1.832   2.482   1.589 -0.7039  0.0734 -0.1275
 8010TIP3    H145445   1.760   2.443   1.539  0.2804 -0.6434 -1.0225
 8010TIP3    H245446   1.867   2.410   1.641 -1.6585  0.7883  1.6012
 8011TIP3   OH245447   0.109   1.686   4.740 -0.3733 -0.1932  0.0015
 8011TIP3    H145448   0.075   1.597   4.734 -0.1096 -0.4925  2.0179
 8011TIP3    H245449   0.170   1.683   4.814  0.9395  1.2820 -0.9529
 8012TIP3   OH245450   1.453   0.431   1.778  0.0548 -0.0188 -0.5113
 8012TIP3    H145451   1.535   0.380   1.777  0.1163  0.0761 -0.2940
 8012TIP3    H245452   1.384   0.365   1.770  0.1604 -0.0801 -0.9742
 8013TIP3   OH245453   6.509   3.329  12.111  0.6431  0.7614 -0.5918
 8013TIP3    H145454   6.568   3.298  12.180 -0.9555 -0.0519  0.4745
 8013TIP3    H245455   6.516   3.263  12.042 -0.9565 -0.8389  0.6689
 8014TIP3   OH245456   6.443   1.340   1.481 -0.1733  0.0101  0.3242
 8014TIP3    H145457   6.500   1.407   1.444 -1.0311  0.2664 -0.5964
 8014TIP3    H245458   6.369   1.389   1.519 -0.2913 -0.3579  0.5729
 8015TIP3   OH245459   2.800   0.256   4.878 -0.8229 -0.0360  0.1812
 8015TIP3    H145460   2.721   0.228   4.924 -1.2667 -1.0894 -1.1398
 8015TIP3    H245461   2.774   0.258   4.786  0.7318 -0.5961 -0.3032
 8016TIP3   OH245462   5.671   5.001   5.120 -0.6948  0.1438  0.1905
 8016TIP3    H145463   5.698   5.093   5.108 -1.0956  0.1113 -1.2211
 8016TIP3    H245464   5.609   4.986   5.048  2.1245 -2.2872 -1.9861
 8017TIP3   OH245465   4.331   3.039   4.787  0.3281 -0.3494  0.2477
 8017TIP3    H145466   4.302   3.086   4.709 -0.3109  3.0386  2.3393
 8017TIP3    H245467   4.327   2.947   4.761 -1.9784  0.4512 -3.0069
 8018TIP3   OH245468   3.014   3.386  12.146 -0.1504  0.3938  0.2311
 8018TIP3    H145469   3.104   3.418  12.152 -0.6462  1.9647 -0.1602
 8018TIP3    H245470   3.009   3.343  12.061 -0.0734  1.3958 -0.2990
 8019TIP3   OH245471   1.019   2.149   0.480 -0.2192 -0.0040  0.6862
 8019TIP3    H145472   1.031   2.239   0.511 -0.7114  0.0383  0.7680
 8019TIP3    H245473   0.937   2.152   0.430  0.2514 -0.2033 -0.1089
 8020TIP3   OH245474   4.685   1.241   5.629 -0.0757 -0.1667 -0.4864
 8020TIP3    H145475   4.772   1.278   5.617  1.2711 -2.9302  0.1814
 8020TIP3    H245476   4.653   1.224   5.541  1.3141 -1.8031 -0.7091
 8021TIP3   OH245477   3.641   5.668  11.911 -0.0581  0.2411 -0.2533
 8021TIP3    H145478   3.725   5.653  11.867  0.8943 -0.8684  1.8279
 8021TIP3    H245479   3.664   5.689  12.001 -2.0346 -0.2481  0.4042
 8022TIP3   OH245480   6.574   3.543  16.085 -0.1047  0.0480  0.0780
 8022TIP3    H145481   6.599   3.466  16.034  1.5279 -0.4224  1.4744
 8022TIP3    H245482   6.479   3.550  16.075 -0.2591 -2.0117 -0.2574
 8023TIP3   OH245483   1.626   4.009  16.313 -0.4240  0.1853  0.1425
 8023TIP3    H145484   1.572   4.083  16.341 -0.7051 -0.1362  0.4619
 8023TIP3    H245485   1.671   4.041  16.235 -0.2478  0.8223  0.4953
 8024TIP3   OH245486   2.272   4.449  12.939  0.5560  0.4348 -0.3654
 8024TIP3    H145487   2.334   4.377  12.938 -0.6628 -0.7830 -3.5477
 8024TIP3    H245488   2.188   4.408  12.959 -0.0742  0.9714 -1.7419
 8025TIP3   OH245489   5.220   0.918  16.218 -0.0516 -0.0829  0.1847
 8025TIP3    H145490   5.312   0.909  16.192  0.4480 -0.0552  1.8344
 8025TIP3    H245491   5.183   0.830  16.210 -0.3632  0.2071 -2.0841
 8026TIP3   OH245492   5.854   5.511  15.852  0.2302 -0.1693 -0.6791
 8026TIP3    H145493   5.869   5.603  15.833  1.5538 -0.0949  0.5536
 8026TIP3    H245494   5.771   5.509  15.900  0.9180  0.5736  0.5822
 8027TIP3   OH245495   0.500   0.957  10.378 -0.0807 -0.2409  0.0635
 8027TIP3    H145496   0.522   0.882  10.323 -1.5567 -0.5818 -0.1188
 8027TIP3    H245497   0.495   1.030  10.317  2.2004  0.2293  0.3628
 8028TIP3   OH245498   5.124   1.286  11.052 -0.1806  0.0492  0.3324
 8028TIP3    H145499   5.047   1.316  11.101 -1.6077  0.3262 -1.9526
 8028TIP3    H245500   5.195   1.342  11.084 -1.2354  0.8407  1.4039
 8029TIP3   OH245501   5.507   5.548   2.522  0.1787 -0.0482  0.2818
 8029TIP3    H145502   5.506   5.469   2.467 -0.0643  1.0859 -1.4226
 8029TIP3    H245503   5.414   5.570   2.532 -0.3029 -2.7634  5.1646
 8030TIP3   OH245504   1.951   0.393  12.792 -0.3212  0.8870  0.1975
 8030TIP3    H145505   1.943   0.488  12.802  0.3141  0.9808 -0.1518
 8030TIP3    H245506   1.972   0.380  12.700 -1.1053  0.3507  0.0825
 8031TIP3   OH245507   0.489   4.069   5.256 -0.9227 -0.1643  0.8733
 8031TIP3    H145508   0.513   3.981   5.227 -0.0924  0.6073 -0.9054
 8031TIP3    H245509   0.537   4.081   5.338 -0.1538 -0.9476  0.5495
 8032TIP3   OH245510   5.693   1.766   1.766  0.0259 -0.1010 -0.3851
 8032TIP3    H145511   5.610   1.739   1.726  0.2163 -0.6100 -0.4459
 8032TIP3    H245512   5.715   1.694   1.825  0.3171  0.1333 -0.2039
 8033TIP3   OH245513   3.111   1.403  16.884  0.1051  0.0910 -0.3139
 8033TIP3    H145514   3.063   1.485  16.900 -1.3880 -0.6898 -0.6040
 8033TIP3    H245515   3.045   1.335  16.895  0.7131 -0.9308 -2.6181
 8034TIP3   OH245516   4.402   0.732  15.131 -0.2861 -0.1078 -0.6946
 8034TIP3    H145517   4.348   0.809  15.152 -0.7873  0.1139 -2.5982
 8034TIP3    H245518   4.429   0.746  15.040 -0.2874 -2.1299 -1.0458
 8035TIP3   OH245519   2.636   0.676  16.235  0.0733 -0.0436 -0.5869
 8035TIP3    H145520   2.599   0.680  16.324  2.3020 -1.6160  0.4926
 8035TIP3    H245521   2.615   0.588  16.204 -0.2461  0.3240 -1.4636
 8036TIP3   OH245522   1.863   0.070  17.055 -0.5646  0.2337 -0.0501
 8036TIP3    H145523   1.782   0.057  17.006 -0.7683  3.3170 -0.7418
 8036TIP3    H245524   1.932   0.070  16.988 -0.2573 -0.1598  0.2610
 8037TIP3   OH245525   5.839   2.044  13.498  0.2554  0.5440  0.3895
 8037TIP3    H145526   5.900   2.086  13.558 -0.6931 -0.0471  1.8224
 8037TIP3    H245527   5.788   2.116  13.461  0.4964  0.8721  0.6876
 8038TIP3   OH245528   6.557   0.777   5.355 -0.0883  0.3634 -0.3487
 8038TIP3    H145529   6.534   0.859   5.312  0.1552  1.1952  1.0213
 8038TIP3    H245530   6.653   0.778   5.359 -0.1140  0.6362  0.7437
 8039TIP3   OH245531   4.607   1.701  16.552 -0.1666  0.6866 -0.3054
 8039TIP3    H145532   4.621   1.655  16.634 -0.0788  1.1689 -0.0452
 8039TIP3    H245533   4.555   1.778  16.575  0.7299  1.3886 -0.5118
 8040TIP3   OH245534   5.923   1.984   0.082  0.2300 -0.0447 -0.3321
 8040TIP3    H145535   5.979   2.007   0.156  0.2952 -0.8343 -0.1320
 8040TIP3    H245536   5.900   1.892   0.097 -1.1956  0.2864 -0.3500
 8041TIP3   OH245537   3.158   5.409  14.269 -0.1469 -0.2593 -0.1093
 8041TIP3    H145538   3.210   5.382  14.345  2.4680  0.3642 -1.5309
 8041TIP3    H245539   3.070   5.378  14.288  0.8927 -2.2458  2.0844
 8042TIP3   OH245540   5.520   0.605  12.987  0.5380  0.3024 -0.4252
 8042TIP3    H145541   5.426   0.598  13.006  0.2999  1.6527 -1.0070
 8042TIP3    H245542   5.549   0.681  13.038  1.3573 -0.1793 -0.1549
 8043TIP3   OH245543   0.934   3.731   5.231  0.0231  0.4957  0.1842
 8043TIP3    H145544   0.948   3.652   5.284  0.8470 -0.2387 -1.0842
 8043TIP3    H245545   0.965   3.707   5.144  0.4156  2.2684 -0.1999
 8044TIP3   OH245546   6.284   0.784   1.403  0.1442 -0.1637  0.1565
 8044TIP3    H145547   6.282   0.755   1.311  0.8136 -1.0892  0.4128
 8044TIP3    H245548   6.322   0.709   1.450  1.2809  0.8919  0.9699
 8045TIP3   OH245549   4.102   1.336  14.668  0.5196  0.0037  0.0249
 8045TIP3    H145550   4.141   1.365  14.586 -1.1946  0.4981 -0.6541
 8045TIP3    H245551   4.015   1.302  14.644 -0.4940  1.2103  1.7253
 8046TIP3   OH245552   5.549   0.352  15.876  0.0061 -0.1495  0.1560
 8046TIP3    H145553   5.581   0.278  15.824  0.6863  0.7970 -0.8453
 8046TIP3    H245554   5.454   0.350  15.865 -0.0915 -1.5075  1.0565
 8047TIP3   OH245555   0.161   3.485  14.244 -0.2441 -0.6445 -0.2647
 8047TIP3    H145556   0.227   3.482  14.313  0.7677  0.1316 -1.1780
 8047TIP3    H245557   0.146   3.578  14.228 -1.8058 -0.8018  0.1370
 8048TIP3   OH245558   4.461   5.825   5.657 -0.5114  0.1864  0.2717
 8048TIP3    H145559   4.444   5.840   5.750 -3.0633 -0.6284  0.0213
 8048TIP3    H245560   4.488   5.911   5.624  0.5322  0.4758  1.7449
 8049TIP3   OH245561   1.577   3.410  16.556 -0.3706 -0.2458  0.3176
 8049TIP3    H145562   1.487   3.416  16.588 -0.0464  1.3014  1.0207
 8049TIP3    H245563   1.625   3.367  16.626 -0.5879 -1.3356 -0.1752
 8050TIP3   OH245564   1.974   0.646  13.099  0.5263  0.0686  0.6308
 8050TIP3    H145565   1.903   0.585  13.078  0.3684  0.4144  0.1467
 8050TIP3    H245566   1.972   0.711  13.029  1.5081 -0.0779  0.4555
 8051TIP3   OH245567   2.068   3.146  15.539 -0.2057  0.2521 -1.2438
 8051TIP3    H145568   2.084   3.191  15.621 -1.7908 -0.5036 -0.4707
 8051TIP3    H245569   2.153   3.145  15.494  1.4339 -1.8150  1.6025
 8052TIP3   OH245570   3.309   5.400   4.503 -0.4422 -0.2802  0.2123
 8052TIP3    H145571   3.218   5.429   4.494 -1.2270 -2.7652 -0.9625
 8052TIP3    H245572   3.305   5.324   4.561  0.9795 -0.1548  0.5248
 8053TIP3   OH245573   5.373   3.903  14.890 -0.0584 -0.3603  0.4645
 8053TIP3    H145574   5.440   3.969  14.870  0.8211 -0.9310  1.3951
 8053TIP3    H245575   5.377   3.841  14.818  1.2404 -0.9981  1.0494
 8054TIP3   OH245576   2.959   6.277   5.200  0.4735  0.0777  0.2319
 8054TIP3    H145577   2.891   6.217   5.231 -0.9170  2.2524  1.7173
 8054TIP3    H245578   2.972   6.255   5.108  1.2246 -3.4952  1.0699
 8055TIP3   OH245579   6.532   5.901   5.855  0.1736  0.2625  0.0307
 8055TIP3    H145580   6.583   5.958   5.912  0.9935  0.2896 -0.7133
 8055TIP3    H245581   6.461   5.956   5.822  1.8850  1.3508 -1.9719
 8056TIP3   OH245582   3.003   0.998  13.089 -0.4897 -0.2371 -0.3047
 8056TIP3    H145583   2.988   1.062  13.019  0.4133 -0.7096 -0.9513
 8056TIP3    H245584   3.083   0.953  13.063 -0.9119 -1.3938  0.3147
 8057TIP3   OH245585   1.975   2.774   1.959 -0.6676 -0.2904 -0.4178
 8057TIP3    H145586   1.986   2.825   1.879  0.2780 -0.7770 -0.6085
 8057TIP3    H245587   2.037   2.701   1.951 -0.8092 -0.5467  0.5908
 8058TIP3   OH245588   0.820   4.449  11.985 -0.3222  0.5066 -0.0131
 8058TIP3    H145589   0.833   4.475  11.894  1.0017  0.7289  0.2241
 8058TIP3    H245590   0.904   4.412  12.012 -0.5030  0.9910  1.2955
 8059TIP3   OH245591   2.044   6.642  16.781  0.3937 -0.4920  0.3790
 8059TIP3    H145592   1.961   6.657  16.735  0.3992  0.0489  0.5356
 8059TIP3    H245593   2.081   6.730  16.793  1.4671 -0.7898 -0.5556
 8060TIP3   OH245594   2.242   3.377  11.277 -0.1312  0.6573 -0.0865
 8060TIP3    H145595   2.257   3.470  11.292 -1.6935  1.0798 -0.9257
 8060TIP3    H245596   2.236   3.368  11.182  0.6450 -0.4281 -0.0593
 8061TIP3   OH245597   0.910   5.677  12.701  0.5762 -0.1390 -0.3618
 8061TIP3    H145598   0.848   5.722  12.758  1.5595  1.9396 -0.8299
 8061TIP3    H245599   0.930   5.740  12.632  1.0181 -1.8202 -1.8426
 8062TIP3   OH245600   2.026   0.723  11.330  0.6001 -0.1176 -0.4731
 8062TIP3    H145601   2.102   0.749  11.382 -1.1062 -0.4883  2.4842
 8062TIP3    H245602   2.033   0.628  11.323  0.5070 -0.1408 -0.2845
 8063TIP3   OH245603   0.550   2.089   1.164 -0.0771 -0.1804  0.8536
 8063TIP3    H145604   0.520   2.039   1.239 -0.0289 -0.9767  0.3534
 8063TIP3    H245605   0.496   2.058   1.091 -1.5470  2.0095  0.9006
 8064TIP3   OH245606   3.785   5.048   1.678  0.5700  0.1597  0.2910
 8064TIP3    H145607   3.865   4.997   1.686  1.6396  1.6850 -0.0705
 8064TIP3    H245608   3.814   5.139   1.692 -0.9612  0.8230 -0.6066
 8065TIP3   OH245609   0.675   5.703   4.175  0.5321 -0.2749 -0.3312
 8065TIP3    H145610   0.584   5.734   4.175  1.2642  2.6497  3.3625
 8065TIP3    H245611   0.673   5.622   4.226 -0.0804 -0.6376 -0.9228
 8066TIP3   OH245612   3.221   3.691  16.719 -0.4526  0.3036  0.2310
 8066TIP3    H145613   3.183   3.629  16.657 -0.1939  0.3788 -0.0054
 8066TIP3    H245614   3.265   3.636  16.784 -0.9130  0.2186  0.4763
 8067TIP3   OH245615   1.035   6.506  17.150 -0.0607 -0.0629  0.6264
 8067TIP3    H145616   1.013   6.498  17.057 -0.4294  1.6288  0.5382
 8067TIP3    H245617   0.983   6.439  17.193  0.4842 -1.1966 -0.4333
 8068TIP3   OH245618   2.703   0.416  12.223  0.3110 -0.6776  0.5865
 8068TIP3    H145619   2.793   0.395  12.198 -0.2013 -3.6516  0.8105
 8068TIP3    H245620   2.650   0.376  12.153 -0.8586  0.3857  0.8455
 8069TIP3   OH245621   5.045   1.798   3.786  0.5537 -0.2526  0.2826
 8069TIP3    H145622   5.126   1.825   3.828  2.8493 -1.8453 -2.7317
 8069TIP3    H245623   5.059   1.706   3.764 -1.8966 -0.4552 -0.7700
 8070TIP3   OH245624   5.994   1.248  13.125  0.0664  0.1400 -0.5873
 8070TIP3    H145625   5.898   1.252  13.126  0.0892  1.0231 -0.6919
 8070TIP3    H245626   6.014   1.156  13.110 -0.7821  0.0676 -1.4031
 8071TIP3   OH245627   3.692   5.567   4.023  0.3640  0.0552 -0.0903
 8071TIP3    H145628   3.710   5.581   4.116  0.1671  0.7688 -0.1582
 8071TIP3    H245629   3.779   5.560   3.983  0.5032  1.8186 -0.1608
 8072TIP3   OH245630   2.702   0.133  15.274 -0.0636 -0.2791  0.1988
 8072TIP3    H145631   2.718   0.224  15.297  0.8580 -0.4245  0.1607
 8072TIP3    H245632   2.771   0.084  15.319  2.4800 -0.4971 -3.4726
 8073TIP3   OH245633   6.462   1.638   1.498  0.3668  0.0317 -0.5266
 8073TIP3    H145634   6.459   1.733   1.484  0.7169  0.3029  1.0344
 8073TIP3    H245635   6.425   1.626   1.585  0.0680 -1.3051 -0.8235
 8074TIP3   OH245636   4.930   5.493  13.084  0.0844 -0.0294 -0.2095
 8074TIP3    H145637   4.920   5.489  12.989  0.1408  0.1330 -0.2222
 8074TIP3    H245638   5.016   5.532  13.097 -0.1876  0.5362 -0.0872
 8075TIP3   OH245639   3.070   6.006   1.862 -0.6561  1.4162  0.1412
 8075TIP3    H145640   3.136   6.070   1.835 -1.7047  2.2363 -0.5323
 8075TIP3    H245641   3.009   6.002   1.788 -0.6674 -0.3146  0.1972
 8076TIP3   OH245642   1.143   0.397  11.494 -0.0859  0.2288  0.0251
 8076TIP3    H145643   1.076   0.455  11.458  0.0725  0.5414  0.2279
 8076TIP3    H245644   1.222   0.452  11.499  0.5222 -0.4528 -1.3314
 8077TIP3   OH245645   0.531   1.415  14.347  0.3293  0.2843 -0.2237
 8077TIP3    H145646   0.505   1.331  14.386 -0.5791  0.4736 -0.4106
 8077TIP3    H245647   0.569   1.392  14.262 -0.4772  0.1036 -0.5413
 8078TIP3   OH245648   5.515   2.168  13.228 -0.3007  0.3195  0.6522
 8078TIP3    H145649   5.565   2.244  13.258  0.7032  0.0778 -0.3317
 8078TIP3    H245650   5.424   2.197  13.230 -0.0194  1.2140  1.2443
 8079TIP3   OH245651   5.508   6.122   3.882 -0.4935 -0.0693  0.1340
 8079TIP3    H145652   5.452   6.063   3.831  0.2535 -0.9265  0.2947
 8079TIP3    H245653   5.541   6.185   3.818  1.2210 -1.7101 -0.6999
 8080TIP3   OH245654   2.544   0.222   0.781 -0.1253  0.1153  0.2148
 8080TIP3    H145655   2.499   0.291   0.731  0.4046  0.3277  0.0265
 8080TIP3    H245656   2.612   0.190   0.721  0.8144  0.6836  0.9579
 8081TIP3   OH245657   0.790   2.785   3.997  0.4782  0.1639 -0.1253
 8081TIP3    H145658   0.743   2.720   3.944 -0.1214  1.2691 -0.9999
 8081TIP3    H245659   0.796   2.746   4.084 -1.3709 -0.3653 -0.1943
 8082TIP3   OH245660   5.747   0.650   4.021  0.5608  0.2337 -0.0343
 8082TIP3    H145661   5.790   0.571   4.056 -0.7216 -0.6968 -0.4733
 8082TIP3    H245662   5.806   0.680   3.952  2.2204  1.0341  1.6390
 8083TIP3   OH245663   1.458   6.503   2.503  0.0844 -0.2941 -0.2280
 8083TIP3    H145664   1.531   6.457   2.545 -0.8509 -0.8998  0.7690
 8083TIP3    H245665   1.491   6.592   2.489  0.9399 -0.5045  0.3968
 8084TIP3   OH245666   5.784   6.028  10.708  0.0367 -0.5302 -0.5724
 8084TIP3    H145667   5.856   6.021  10.771  0.1499  0.3801 -0.5914
 8084TIP3    H245668   5.819   6.082  10.637 -0.4903 -0.5399 -0.8446
 8085TIP3   OH245669   3.761   6.420  16.837  0.2262  0.2338  0.5275
 8085TIP3    H145670   3.815   6.480  16.786 -0.3262  0.2335 -0.0688
 8085TIP3    H245671   3.753   6.342  16.782  1.7045 -0.7913  1.6768
 8086TIP3   OH245672   5.209   0.445   6.473  0.4481  0.3132  0.1968
 8086TIP3    H145673   5.143   0.397   6.422 -0.2988  1.0299  0.4726
 8086TIP3    H245674   5.179   0.536   6.473  0.9987  0.5097  1.0271
 8087TIP3   OH245675   5.972   3.524  14.002  0.3020 -0.2052  0.4727
 8087TIP3    H145676   6.033   3.565  14.063  0.9228  0.5636 -0.6265
 8087TIP3    H245677   5.955   3.592  13.936 -0.9001 -0.7673  0.1747
 8088TIP3   OH245678   1.222   3.288   5.640 -0.5139 -0.1684 -0.5442
 8088TIP3    H145679   1.298   3.237   5.610 -0.7026 -0.8681  0.1237
 8088TIP3    H245680   1.254   3.378   5.642  0.1740 -0.3965 -0.7060
 8089TIP3   OH245681   2.323   2.684  12.248  0.6747  0.3859 -0.6581
 8089TIP3    H145682   2.264   2.642  12.186  0.5719  0.9867 -0.9719
 8089TIP3    H245683   2.387   2.729  12.193  0.9741  0.3732 -0.3237
 8090TIP3   OH245684   5.625   5.541  14.253 -0.0659 -0.4581  0.9564
 8090TIP3    H145685   5.572   5.461  14.248 -0.3501 -0.2197 -0.1798
 8090TIP3    H245686   5.715   5.511  14.235 -0.4030 -0.3311 -1.3464
 8091TIP3   OH245687   4.867   4.271   2.470 -0.1032 -0.3128  0.6258
 8091TIP3    H145688   4.894   4.200   2.529  1.5041 -2.3309 -2.2726
 8091TIP3    H245689   4.787   4.240   2.430 -1.8063  1.5374  2.3486
 8092TIP3   OH245690   2.378   2.249  17.005  0.1897  0.4723  0.0824
 8092TIP3    H145691   2.298   2.267  16.957 -0.9830 -2.3182  0.7831
 8092TIP3    H245692   2.426   2.332  17.005 -2.7126  2.2710 -0.2751
 8093TIP3   OH245693   6.036   6.032   4.401  0.1695 -0.0924 -0.2443
 8093TIP3    H145694   6.128   6.010   4.410 -0.0228 -0.7099  0.3007
 8093TIP3    H245695   6.024   6.110   4.456 -0.3363 -2.0241  2.5935
 8094TIP3   OH245696   0.009   1.597   3.478  0.2853 -0.7106 -0.1880
 8094TIP3    H145697  -0.024   1.687   3.478  0.5816 -0.5686  1.2390
 8094TIP3    H245698  -0.068   1.544   3.456 -0.0576 -0.1497 -0.3728
 8095TIP3   OH245699   5.145   2.255  14.421 -0.1353  0.0457 -0.5466
 8095TIP3    H145700   5.162   2.170  14.381 -1.3327 -0.0647 -0.8679
 8095TIP3    H245701   5.141   2.316  14.347 -0.6357  0.1348 -0.4525
 8096TIP3   OH245702   4.645   2.980   0.771  0.9050  0.1893 -0.3681
 8096TIP3    H145703   4.606   3.048   0.826 -0.0853 -0.3845 -0.3399
 8096TIP3    H245704   4.604   2.992   0.685 -1.9065 -2.4273  0.4414
 8097TIP3   OH245705   0.421   4.350  13.086 -0.0243  0.2663 -0.1155
 8097TIP3    H145706   0.478   4.274  13.099 -0.1747 -0.0069 -1.0180
 8097TIP3    H245707   0.333   4.317  13.105 -0.1711  0.0257 -1.1556
 8098TIP3   OH245708   4.463   6.760  13.746 -0.4972  0.1965  0.0518
 8098TIP3    H145709   4.500   6.785  13.831 -2.1409  1.6404  0.4089
 8098TIP3    H245710   4.370   6.743  13.765 -0.3226 -2.2061 -0.9926
 8099TIP3   OH245711   6.386   0.523   2.175 -0.5353 -0.1876 -0.0978
 8099TIP3    H145712   6.479   0.533   2.196  0.0082 -1.2583 -1.8611
 8099TIP3    H245713   6.379   0.549   2.083 -1.8051 -1.0557 -0.2640
 8100TIP3   OH245714   5.762   5.279   2.219  0.8362  0.5407  0.1097
 8100TIP3    H145715   5.737   5.371   2.228 -0.9597  0.3806 -2.3487
 8100TIP3    H245716   5.746   5.241   2.305 -2.7385  1.6103  0.0474
 8101TIP3   OH245717   5.251   3.074  13.576  0.1604  0.5134  1.0084
 8101TIP3    H145718   5.169   3.108  13.542 -1.2317 -2.1325  1.5187
 8101TIP3    H245719   5.246   3.090  13.670 -0.0222 -0.1341  1.1101
 8102TIP3   OH245720   0.772   1.117   1.265  0.4094  0.0240 -0.3158
 8102TIP3    H145721   0.824   1.112   1.345 -0.1717  1.2009  0.1497
 8102TIP3    H245722   0.784   1.031   1.223  3.3399  0.5133 -0.6316
 8103TIP3   OH245723   3.160   4.613  15.039  0.0244  0.2371  0.0608
 8103TIP3    H145724   3.225   4.600  15.109 -1.1530 -1.2541  0.9679
 8103TIP3    H245725   3.077   4.621  15.086 -0.5528  1.2564 -1.1075
 8104TIP3   OH245726   0.225   2.669   3.157  0.0186 -0.6678  0.5008
 8104TIP3    H145727   0.165   2.603   3.122 -1.9617  0.4162  1.6509
 8104TIP3    H245728   0.266   2.628   3.233 -0.3909 -0.9450  0.5749
 8105TIP3   OH245729   3.793   6.013   4.282  0.1217 -0.4216 -0.2986
 8105TIP3    H145730   3.874   5.969   4.309  0.5138  0.7586  0.5299
 8105TIP3    H245731   3.724   5.951   4.304  0.6587 -0.6706  0.7826
 8106TIP3   OH245732   6.615   6.148  10.765  0.3775  0.0125 -0.3367
 8106TIP3    H145733   6.690   6.205  10.748  0.4953 -0.0086  0.0893
 8106TIP3    H245734   6.580   6.180  10.848 -0.2410  0.1848 -0.6625
 8107TIP3   OH245735   4.283   4.935  11.603  0.3434 -0.5378 -0.1845
 8107TIP3    H145736   4.262   5.022  11.637 -1.4111 -0.1393 -2.0562
 8107TIP3    H245737   4.352   4.950  11.538  1.1799 -0.8047  0.6174
 8108TIP3   OH245738   0.260   5.713  16.823  0.1969  0.2271  0.1540
 8108TIP3    H145739   0.299   5.760  16.749 -0.0387 -0.8634 -0.6896
 8108TIP3    H245740   0.289   5.623  16.812 -1.1327 -0.2658  0.4896
 8109TIP3   OH245741   3.898   1.953   5.602 -0.9458  0.3752  0.2323
 8109TIP3    H145742   3.828   1.909   5.652 -2.7139 -0.7380 -2.9134
 8109TIP3    H245743   3.851   2.006   5.538  1.1947  1.3554 -0.6046
 8110TIP3   OH245744   3.609   2.775   2.380  0.3245  0.3090  0.2894
 8110TIP3    H145745   3.655   2.851   2.418  1.0488 -0.1427  0.3454
 8110TIP3    H245746   3.657   2.757   2.299 -0.8732  0.9275 -0.5863
 8111TIP3   OH245747   3.049   0.963  16.294 -0.0066 -0.2317 -0.2409
 8111TIP3    H145748   3.032   0.880  16.338 -1.5449 -0.6427 -1.5143
 8111TIP3    H245749   3.127   0.946  16.240  0.1193 -0.6127  0.0593
 8112TIP3   OH245750   5.516   2.786  11.304 -0.0722 -0.0154  0.3736
 8112TIP3    H145751   5.439   2.802  11.250  0.5086 -0.5152 -0.6387
 8112TIP3    H245752   5.501   2.699  11.343 -0.5845  0.4326  1.2082
 8113TIP3   OH245753   3.606   2.556  11.968  0.5056  0.4855 -0.3987
 8113TIP3    H145754   3.626   2.526  11.879  0.9359  2.0122 -0.8378
 8113TIP3    H245755   3.621   2.650  11.966 -1.3012  0.8592  0.7927
 8114TIP3   OH245756   5.461   1.694  13.590 -0.1602 -0.1375 -0.1603
 8114TIP3    H145757   5.415   1.765  13.636 -0.1487 -1.0028  1.2555
 8114TIP3    H245758   5.541   1.734  13.557 -0.9402  0.9014 -0.8753
 8115TIP3   OH245759   1.063   2.602  12.310 -0.6989  0.2809 -0.0319
 8115TIP3    H145760   0.984   2.635  12.267  0.2097  2.2162 -0.3088
 8115TIP3    H245761   1.131   2.664  12.286  1.0065 -1.5084 -0.0413
 8116TIP3   OH245762   6.780   0.836   3.854 -0.1267 -0.2897 -0.3506
 8116TIP3    H145763   6.721   0.856   3.927 -3.0491 -0.0997 -2.6107
 8116TIP3    H245764   6.781   0.741   3.850 -0.2897 -0.2919 -0.3325
 8117TIP3   OH245765   6.753   5.795  11.115 -0.0460 -1.0909  0.1293
 8117TIP3    H145766   6.767   5.725  11.178  0.5905  0.7650  2.1841
 8117TIP3    H245767   6.839   5.838  11.107 -0.8646  0.7258  0.5854
 8118TIP3   OH245768   1.760   2.795   0.609  0.6811  0.5730  0.0839
 8118TIP3    H145769   1.738   2.704   0.627  1.0581  0.1038 -1.6774
 8118TIP3    H245770   1.676   2.842   0.618  0.1422 -0.2217 -0.6116
 8119TIP3   OH245771   3.908   6.533   1.420 -0.7110  0.2724 -0.2050
 8119TIP3    H145772   3.938   6.534   1.511  2.5818 -1.7522 -1.0969
 8119TIP3    H245773   3.936   6.617   1.385  1.0707 -0.2138 -0.0902
 8120TIP3   OH245774   2.239   0.082  15.510  0.0295  0.2353 -0.2728
 8120TIP3    H145775   2.221   0.137  15.586  0.4735 -0.4870  0.3667
 8120TIP3    H245776   2.265  -0.002  15.547  2.2513  0.4683 -1.1565
 8121TIP3   OH245777   3.746   6.743   0.765 -0.2634  0.5465  0.4969
 8121TIP3    H145778   3.755   6.833   0.732  0.3723  1.0584  1.9614
 8121TIP3    H245779   3.754   6.752   0.860 -0.4289 -1.0466  0.6850
 8122TIP3   OH245780   0.974   3.919  15.268 -0.0149 -0.3311  0.4143
 8122TIP3    H145781   0.912   3.944  15.336  2.1684  0.4243  2.2355
 8122TIP3    H245782   0.939   3.958  15.188 -1.5754  0.5180  1.4650
 8123TIP3   OH245783   3.040   4.469  12.298  0.3486 -0.4148  0.4411
 8123TIP3    H145784   2.990   4.438  12.373 -1.4921  0.5126 -0.3361
 8123TIP3    H245785   3.062   4.390  12.249 -0.1031 -0.8642  0.9557
 8124TIP3   OH245786   0.014   2.465  14.933 -0.1303  0.3707  0.2540
 8124TIP3    H145787   0.097   2.494  14.972 -1.4448 -0.2645  3.9999
 8124TIP3    H245788  -0.039   2.438  15.008 -2.4758 -2.6575 -2.1952
 8125TIP3   OH245789   0.273   2.125   3.147  0.3030  0.9906  0.6574
 8125TIP3    H145790   0.226   2.189   3.201  0.0139  1.5423 -0.2289
 8125TIP3    H245791   0.259   2.155   3.057 -0.6438 -0.8804  0.1437
 8126TIP3   OH245792   4.993   4.403  16.035 -0.7128 -0.0312 -0.6255
 8126TIP3    H145793   5.051   4.331  16.009  0.1658 -1.5885  4.4708
 8126TIP3    H245794   5.051   4.470  16.069 -1.7436  0.5013  0.1400
 8127TIP3   OH245795   2.439   2.431   4.969 -0.0701  0.2414 -0.1267
 8127TIP3    H145796   2.442   2.527   4.961  2.9274  0.2831  0.3035
 8127TIP3    H245797   2.529   2.403   4.950 -0.5199 -2.3684  1.2204
 8128TIP3   OH245798   2.035   5.921   5.978  0.4941 -0.1633  0.3252
 8128TIP3    H145799   2.082   5.927   6.061  0.3064 -0.9402  0.4967
 8128TIP3    H245800   2.099   5.883   5.917  0.6520  0.4667  0.0956
 8129TIP3   OH245801   1.887   3.006   2.279  0.0184  0.1634  0.0235
 8129TIP3    H145802   1.978   3.025   2.302 -0.5383  0.7266  1.9143
 8129TIP3    H245803   1.883   2.910   2.274  0.8730  0.1616 -0.8266
 8130TIP3   OH245804   1.433   2.271   3.703  0.2757  0.6256  0.0671
 8130TIP3    H145805   1.344   2.274   3.738 -0.2683  1.5287 -1.2852
 8130TIP3    H245806   1.439   2.188   3.657  0.6029 -0.0282  1.2289
 8131TIP3   OH245807   5.392   5.403  12.717  0.0370  0.0624 -0.4390
 8131TIP3    H145808   5.324   5.340  12.690 -1.1177  1.0195  0.1197
 8131TIP3    H245809   5.355   5.488  12.693  0.3246  0.7158  1.3420
 8132TIP3   OH245810   4.056   5.501   6.576 -0.2588  0.3243 -0.0183
 8132TIP3    H145811   3.967   5.534   6.568 -0.1641  0.2041 -1.9841
 8132TIP3    H245812   4.045   5.408   6.596 -0.5774  0.3690  0.0215
 8133TIP3   OH245813   5.233   6.508   5.148  0.3391 -0.1787 -0.3775
 8133TIP3    H145814   5.285   6.489   5.070  0.6879  0.1568 -0.2307
 8133TIP3    H245815   5.175   6.579   5.121 -1.0263 -1.4562 -0.9528
 8134TIP3   OH245816   0.587   0.968  16.002 -0.0500 -0.0448  0.1592
 8134TIP3    H145817   0.617   1.053  15.971  0.6472  0.0065  0.9220
 8134TIP3    H245818   0.574   0.916  15.923 -3.5662  1.6856 -0.5967
 8135TIP3   OH245819   3.195   2.417   6.147  0.2030 -0.2165 -0.3928
 8135TIP3    H145820   3.271   2.399   6.203  0.6813 -1.1519 -1.3143
 8135TIP3    H245821   3.141   2.338   6.153  0.1457 -0.2356 -1.0768
 8136TIP3   OH245822   2.645   3.415   4.878 -0.3677  0.1186  0.0745
 8136TIP3    H145823   2.562   3.396   4.921 -0.2817 -1.8430 -0.4993
 8136TIP3    H245824   2.703   3.345   4.908  0.0973 -0.4879 -2.0561
 8137TIP3   OH245825   6.702   0.323   5.996  0.0247 -0.5729  0.2397
 8137TIP3    H145826   6.617   0.296   5.962 -1.1672  0.3886  2.2225
 8137TIP3    H245827   6.683   0.400   6.050  2.1977 -0.1992  0.5783
 8138TIP3   OH245828   1.184   4.992   6.003  0.1939 -0.6454 -0.0613
 8138TIP3    H145829   1.271   4.960   5.979 -0.2882 -2.2235  0.1705
 8138TIP3    H245830   1.167   5.064   5.942  2.0319  0.3416  0.5129
 8139TIP3   OH245831   1.823   1.028   3.561  0.3131  0.1257 -0.4851
 8139TIP3    H145832   1.861   1.104   3.604  1.4335 -0.6293 -0.0974
 8139TIP3    H245833   1.866   1.026   3.475 -0.7057  0.6763 -1.0375
 8140TIP3   OH245834   6.360   4.124  16.073  0.1190  0.1264  0.5272
 8140TIP3    H145835   6.326   4.134  16.162 -2.1816 -0.4091 -0.2389
 8140TIP3    H245836   6.315   4.048  16.038  0.9576  0.3474 -1.1270
 8141TIP3   OH245837   3.384   6.742  13.000  0.1384  0.0111  0.2258
 8141TIP3    H145838   3.351   6.736  13.090  2.5839 -1.0023  1.1554
 8141TIP3    H245839   3.391   6.651  12.971  2.0873  0.1228  0.1708
 8142TIP3   OH245840   1.165   4.472   4.310 -0.0098  0.9881  0.4386
 8142TIP3    H145841   1.127   4.447   4.394 -2.0895  0.3348 -0.6377
 8142TIP3    H245842   1.096   4.521   4.265  1.8347  3.3819 -0.0363
 8143TIP3   OH245843   1.507   4.753   5.528 -0.0735 -0.0535  0.1677
 8143TIP3    H145844   1.563   4.706   5.466  0.7061 -0.1544  0.9274
 8143TIP3    H245845   1.471   4.684   5.584  0.2231  0.1485  0.6107
 8144TIP3   OH245846   0.320   0.465   0.655  0.1366 -0.1290 -0.8351
 8144TIP3    H145847   0.375   0.390   0.632 -0.2386 -0.1369 -1.7358
 8144TIP3    H245848   0.283   0.494   0.572  0.4434  1.1994 -0.5311
 8145TIP3   OH245849   4.355   1.595  11.606 -0.0223 -0.3888  0.1244
 8145TIP3    H145850   4.402   1.519  11.641 -2.3436 -0.6868  3.0185
 8145TIP3    H245851   4.346   1.654  11.681  1.7624  2.9590 -2.0284
 8146TIP3   OH245852   4.495   0.179   6.192  1.0256  0.2214  0.2205
 8146TIP3    H145853   4.448   0.102   6.225  0.6270  1.6973  3.5914
 8146TIP3    H245854   4.431   0.226   6.139 -0.0648  0.2171  1.4902
 8147TIP3   OH245855   0.013   2.822   6.353 -0.1664 -0.2674  0.1605
 8147TIP3    H145856   0.009   2.793   6.261  0.1653  1.1728 -0.3329
 8147TIP3    H245857   0.092   2.781   6.388 -1.0682 -2.0140  0.2577
 8148TIP3   OH245858   0.227   3.436  15.007 -0.7046  0.7221 -0.3735
 8148TIP3    H145859   0.222   3.492  15.085  1.9387 -0.1983  0.5529
 8148TIP3    H245860   0.241   3.497  14.935 -0.1121  1.4198  0.3076
 8149TIP3   OH245861   5.126   5.152   1.550 -0.4147 -0.5458  0.4324
 8149TIP3    H145862   5.129   5.166   1.645 -3.1934 -1.3436  0.7103
 8149TIP3    H245863   5.051   5.202   1.520 -0.1475 -1.0664 -1.2240
 8150TIP3   OH245864   2.820   2.130  15.134  0.2125  0.0026  0.1511
 8150TIP3    H145865   2.902   2.100  15.174  0.4324  2.4714  1.7885
 8150TIP3    H245866   2.775   2.177  15.204 -1.5941  0.5734 -1.3156
 8151TIP3   OH245867   2.583   5.332   0.116  0.0064 -0.3484  0.3733
 8151TIP3    H145868   2.638   5.396   0.071 -0.6092 -0.9105 -1.2537
 8151TIP3    H245869   2.495   5.369   0.112 -0.4554 -1.4945 -1.0863
 8152TIP3   OH245870   4.428   2.390  14.854  0.7668  0.3559 -0.6378
 8152TIP3    H145871   4.419   2.434  14.939  0.8893 -1.7766  0.5612
 8152TIP3    H245872   4.369   2.315  14.860  1.6575 -0.4920 -1.9649
 8153TIP3   OH245873   3.944   0.578  16.857 -0.2053 -0.1413 -0.7988
 8153TIP3    H145874   3.976   0.501  16.903 -0.3162  0.9285  1.1807
 8153TIP3    H245875   4.021   0.633  16.845  0.0008 -0.8204 -2.8204
 8154TIP3   OH245876   3.272   6.051   4.255 -0.3199 -0.0987 -0.0672
 8154TIP3    H145877   3.234   6.070   4.169  0.3224  1.0705 -0.1168
 8154TIP3    H245878   3.206   5.997   4.299 -0.9888 -0.0785 -1.0121
 8155TIP3   OH245879   1.262   6.001  11.597  0.5254 -0.6274  0.6773
 8155TIP3    H145880   1.356   5.991  11.585  0.2240 -1.3323 -1.5949
 8155TIP3    H245881   1.235   6.058  11.525 -1.0185 -1.8842  0.2033
 8156TIP3   OH245882   5.217   1.301   0.749  0.0931  0.1317  0.2353
 8156TIP3    H145883   5.272   1.372   0.782 -0.5735  0.3170  0.9701
 8156TIP3    H245884   5.134   1.342   0.727 -0.2725 -0.4065  0.5922
 8157TIP3   OH245885   1.279   4.107   1.136 -1.1423  0.7338  0.2004
 8157TIP3    H145886   1.259   4.017   1.160  0.0631 -0.2410 -2.1131
 8157TIP3    H245887   1.194   4.146   1.116 -1.6243 -0.0833  0.5897
 8158TIP3   OH245888   4.682   4.660  13.183  0.1830 -0.1127 -0.3482
 8158TIP3    H145889   4.682   4.755  13.171 -0.1519 -0.1340 -0.5368
 8158TIP3    H245890   4.614   4.629  13.123 -0.3798 -0.3837  0.4241
 8159TIP3   OH245891   5.233   2.862   2.602 -0.4413  0.2835 -0.2983
 8159TIP3    H145892   5.139   2.860   2.582 -0.3747 -1.7312 -0.5819
 8159TIP3    H245893   5.237   2.879   2.696 -1.1414 -0.5664 -0.1023
 8160TIP3   OH245894   5.218   2.543  11.207  0.6997 -0.3353  0.5742
 8160TIP3    H145895   5.182   2.498  11.283 -0.2329 -0.4624  0.0636
 8160TIP3    H245896   5.194   2.488  11.132  1.9255 -0.4045  0.2107
 8161TIP3   OH245897   3.262   6.706   1.489  0.3012  0.2323  0.1489
 8161TIP3    H145898   3.202   6.652   1.438 -0.3217  0.8485  0.2165
 8161TIP3    H245899   3.250   6.795   1.454  1.4313  0.3147 -0.0793
 8162TIP3   OH245900   4.353   5.450   4.110  0.4101  0.0475  0.3634
 8162TIP3    H145901   4.283   5.413   4.164 -1.0971  0.6231 -1.0859
 8162TIP3    H245902   4.375   5.380   4.049 -0.7537  0.6660 -0.8273
 8163TIP3   OH245903   2.638   1.332   4.051 -0.3565  0.1990 -0.0079
 8163TIP3    H145904   2.652   1.326   4.145  0.1496  1.2799 -0.0028
 8163TIP3    H245905   2.685   1.411   4.024  0.0825 -0.4639 -1.2752
 8164TIP3   OH245906   3.735   5.984   3.014 -0.5320 -0.6097 -0.0441
 8164TIP3    H145907   3.779   6.062   3.047 -2.7146 -0.6133  3.4687
 8164TIP3    H245908   3.694   6.011   2.933  2.9761  0.2852 -1.6950
 8165TIP3   OH245909   3.388   3.234  15.124  0.2187 -0.0378  0.1032
 8165TIP3    H145910   3.379   3.174  15.050  0.8171 -0.4659  0.3701
 8165TIP3    H245911   3.479   3.224  15.153  0.2594  0.8217  0.3062
 8166TIP3   OH245912   2.035   4.902   6.776 -0.2572  0.1230  0.0000
 8166TIP3    H145913   2.106   4.943   6.726  0.4906  0.9981  1.6724
 8166TIP3    H245914   1.968   4.971   6.783 -0.9982 -0.4820 -1.0162
 8167TIP3   OH245915   3.153   3.970  13.739 -0.3333  0.1467 -0.0212
 8167TIP3    H145916   3.186   4.023  13.812  0.0067 -1.1192  0.7907
 8167TIP3    H245917   3.200   3.887  13.747 -0.4126 -0.0874 -1.6005
 8168TIP3   OH245918   6.083   3.584   2.735  0.5168  0.0497 -0.0801
 8168TIP3    H145919   6.139   3.660   2.749  1.6553 -0.7163 -0.3600
 8168TIP3    H245920   6.066   3.584   2.640  0.7553 -0.1914 -0.1258
 8169TIP3   OH245921   0.573   1.402  16.486 -0.2624 -0.5272 -0.0522
 8169TIP3    H145922   0.544   1.454  16.561 -3.3374  1.2792 -2.2634
 8169TIP3    H245923   0.611   1.466  16.426 -0.7052 -1.4298 -1.3191
 8170TIP3   OH245924   3.020   4.065   3.815  0.1086  0.3387 -0.1982
 8170TIP3    H145925   2.924   4.057   3.810 -0.0643  2.1129 -0.4821
 8170TIP3    H245926   3.053   3.980   3.786 -1.3669  0.2374 -1.7319
 8171TIP3   OH245927   1.183   3.251  15.544  0.4921  0.4555  0.0745
 8171TIP3    H145928   1.225   3.270  15.460  1.5943 -0.7126  0.3336
 8171TIP3    H245929   1.091   3.275  15.530  0.6879  0.4783 -1.3969
 8172TIP3   OH245930   4.301   4.337  14.497  0.5740  0.0286  0.1666
 8172TIP3    H145931   4.274   4.325  14.406  0.2527 -1.4350  0.4310
 8172TIP3    H245932   4.306   4.432  14.508  0.8461  0.2312 -1.4361
 8173TIP3   OH245933   5.815   2.917  13.041  0.9230  0.0326 -0.2758
 8173TIP3    H145934   5.880   2.879  13.101  1.7532  2.2069  0.2953
 8173TIP3    H245935   5.794   3.002  13.080 -0.1403  0.5795 -1.9723
 8174TIP3   OH245936   5.956   3.303  14.691 -0.4162  0.8188 -0.3767
 8174TIP3    H145937   5.996   3.289  14.605  1.1424 -0.0598  0.4642
 8174TIP3    H245938   6.020   3.270  14.753 -2.0605  0.2491  1.0887
 8175TIP3   OH245939   2.659   0.466  17.008 -0.0489  0.5995  0.1648
 8175TIP3    H145940   2.589   0.448  17.070 -0.2702  0.4927 -0.1117
 8175TIP3    H245941   2.639   0.553  16.974 -0.6379  0.1491 -0.6856
 8176TIP3   OH245942   2.013   4.626   5.746  0.0232 -0.8647 -0.2266
 8176TIP3    H145943   2.025   4.720   5.730  1.0696 -1.0187 -0.4331
 8176TIP3    H245944   1.994   4.620   5.840  1.6279 -0.5671  0.1472
 8177TIP3   OH245945   1.075   0.062  11.381  0.3869 -0.1111  0.0966
 8177TIP3    H145946   1.054   0.102  11.465 -0.5753 -0.0281 -0.1759
 8177TIP3    H245947   1.171   0.058  11.379  0.4598  1.0476  0.6494
 8178TIP3   OH245948   1.790   3.878   3.712 -0.3180  0.0288  0.1116
 8178TIP3    H145949   1.853   3.806   3.713 -1.7254 -1.4132 -2.6893
 8178TIP3    H245950   1.770   3.894   3.804  0.9667 -2.3055  0.8831
 8179TIP3   OH245951   4.649   2.832   0.140 -0.3145  0.2272  0.0349
 8179TIP3    H145952   4.661   2.759   0.201  0.5778 -0.8466 -1.3531
 8179TIP3    H245953   4.703   2.903   0.175 -1.8381  0.5640  1.8560
 8180TIP3   OH245954   1.272   6.091  15.653 -0.0066 -0.0445 -0.1574
 8180TIP3    H145955   1.356   6.119  15.616 -0.3501 -0.2057 -1.0838
 8180TIP3    H245956   1.206   6.141  15.605 -0.4103  0.8273  1.2599
 8181TIP3   OH245957   5.207   0.051  11.201  0.3629  0.4226  0.2800
 8181TIP3    H145958   5.263  -0.018  11.237 -0.2721 -0.0443  0.3903
 8181TIP3    H245959   5.217   0.044  11.107 -0.2956 -0.3363  0.2586
 8182TIP3   OH245960   6.532   4.219   5.341 -0.0036  0.0141  0.0937
 8182TIP3    H145961   6.628   4.210   5.341 -0.0948 -1.3346  1.0198
 8182TIP3    H245962   6.516   4.308   5.310  1.4887 -0.2747 -1.6810
 8183TIP3   OH245963   1.366   4.641   3.336  0.3874 -0.2067 -0.2180
 8183TIP3    H145964   1.429   4.626   3.406  2.3302  0.1436 -1.8005
 8183TIP3    H245965   1.308   4.709   3.371  2.7710  1.7468  0.2447
 8184TIP3   OH245966   4.817   4.514  15.025  0.0977 -0.2299  0.4459
 8184TIP3    H145967   4.785   4.424  15.026  0.5325 -0.3910  0.2369
 8184TIP3    H245968   4.830   4.536  15.117  1.9543 -1.1106  0.4463
 8185TIP3   OH245969   5.668   5.958  14.518  0.0269 -0.1146  0.3148
 8185TIP3    H145970   5.575   5.968  14.536 -0.0571  0.4116 -0.3714
 8185TIP3    H245971   5.711   6.019  14.578 -0.1444  0.3960 -0.0723
 8186TIP3   OH245972   2.581   5.579  11.946 -0.3213  0.0958  0.3492
 8186TIP3    H145973   2.611   5.571  12.037 -0.9898 -0.9629  0.4966
 8186TIP3    H245974   2.487   5.593  11.953 -0.2285  1.1114 -0.1697
 8187TIP3   OH245975   0.994   6.610  13.966 -0.1163 -0.0993 -0.1988
 8187TIP3    H145976   1.089   6.617  13.974 -0.2625  0.5537  1.1619
 8187TIP3    H245977   0.974   6.656  13.884  0.5969  1.2783  0.3522
 8188TIP3   OH245978   5.448   6.193   1.376  0.7292 -0.3506  0.5808
 8188TIP3    H145979   5.535   6.209   1.339  0.6934  0.8022  0.9558
 8188TIP3    H245980   5.399   6.273   1.359 -0.3648 -1.0991  0.1237
 8189TIP3   OH245981   1.394   0.993   1.872  0.3412 -0.2359 -0.3950
 8189TIP3    H145982   1.386   0.901   1.847  0.7102 -0.1865 -0.6975
 8189TIP3    H245983   1.351   1.041   1.802  0.8591 -0.1320 -0.6422
 8190TIP3   OH245984   0.328   1.124   0.007 -0.5937 -0.4400 -0.2593
 8190TIP3    H145985   0.404   1.080   0.043 -1.3726 -1.4615  0.1975
 8190TIP3    H245986   0.363   1.185  -0.057  0.6100 -0.7636  0.0758
 8191TIP3   OH245987   6.648   1.311  16.286 -0.0959 -0.3746 -0.7594
 8191TIP3    H145988   6.716   1.378  16.290  0.3730 -0.8569 -0.4798
 8191TIP3    H245989   6.607   1.323  16.201  0.7760 -0.4913 -1.2038
 8192TIP3   OH245990   4.454   0.606  11.142 -0.8385 -0.6359  0.4404
 8192TIP3    H145991   4.372   0.560  11.164  0.6207 -3.1229  1.1171
 8192TIP3    H245992   4.502   0.545  11.087  0.8281  0.4962  0.5536
 8193TIP3   OH245993   1.219   5.117  13.767 -0.1802  0.1810  0.2333
 8193TIP3    H145994   1.190   5.200  13.804 -0.4965  0.2961 -0.2553
 8193TIP3    H245995   1.310   5.132  13.743 -0.7634  1.0588 -1.6746
 8194TIP3   OH245996   2.879   3.463   6.083  0.1279  0.2858  0.2874
 8194TIP3    H145997   2.905   3.555   6.074  1.5193 -0.1095 -0.1107
 8194TIP3    H245998   2.905   3.439   6.172  1.1972 -0.1036 -0.1028
 8195TIP3   OH245999   1.763   1.155  14.867 -0.4647 -0.3321  0.2359
 8195TIP3    H146000   1.746   1.137  14.959  1.1295 -1.6188  0.3288
 8195TIP3    H246001   1.800   1.073  14.833  1.2215  0.8567 -0.9545
 8196TIP3   OH246002   3.881   1.908   0.853 -0.2848 -0.6729  0.2355
 8196TIP3    H146003   3.825   1.981   0.880 -0.1369  0.1560 -1.5648
 8196TIP3    H246004   3.970   1.941   0.863 -0.1944 -0.9196  0.2554
 8197TIP3   OH246005   5.708   0.554  11.205  0.3217 -0.3783 -0.3325
 8197TIP3    H146006   5.679   0.642  11.231 -0.8837 -0.5367 -1.0562
 8197TIP3    H246007   5.757   0.568  11.124  2.1870 -0.1313  0.7939
 8198TIP3   OH246008   6.165   5.981  13.643  0.7613  0.1956 -1.2649
 8198TIP3    H146009   6.080   6.015  13.673  0.4341 -0.2085 -1.7136
 8198TIP3    H246010   6.158   5.981  13.548  0.4338 -1.8741 -1.2962
 8199TIP3   OH246011   4.341   1.871  16.327  0.4441 -0.3798 -0.0416
 8199TIP3    H146012   4.365   1.782  16.303 -1.2822 -0.7943 -0.3358
 8199TIP3    H246013   4.403   1.926  16.280  1.7276 -1.4120  0.3883
 8200TIP3   OH246014   2.494   1.905  15.612  0.0855  0.1183 -0.0192
 8200TIP3    H146015   2.487   1.888  15.518  0.5729  0.1299 -0.0607
 8200TIP3    H246016   2.579   1.947  15.623  0.9785 -1.7357  0.6739
 8201TIP3   OH246017   2.312   4.440  10.915  0.3285  0.5674 -0.0791
 8201TIP3    H146018   2.361   4.359  10.926 -0.1975  0.1344 -0.8179
 8201TIP3    H246019   2.221   4.412  10.902  0.1189  1.2794 -0.2062
 8202TIP3   OH246020   6.113   1.781  14.757 -0.2213 -0.5170 -0.4988
 8202TIP3    H146021   6.137   1.822  14.674 -1.2149 -1.6073 -1.3650
 8202TIP3    H246022   6.022   1.754  14.745  0.5593 -3.5674 -0.2639
 8203TIP3   OH246023   3.113   4.889   2.865  0.1767 -0.2253  0.1025
 8203TIP3    H146024   3.147   4.898   2.776  1.4476 -0.7836  0.4997
 8203TIP3    H246025   3.029   4.935   2.864  0.9949  1.3270 -0.9208
 8204TIP3   OH246026   0.487   5.479  14.975 -0.1748 -0.3646  0.3386
 8204TIP3    H146027   0.481   5.564  15.019 -0.4112 -0.2292  0.0573
 8204TIP3    H246028   0.556   5.491  14.910  0.4059 -0.6697  0.8989
 8205TIP3   OH246029   3.382   2.792   2.095  0.3532  1.0809  0.2571
 8205TIP3    H146030   3.462   2.844   2.094  1.4351 -0.5394 -0.0262
 8205TIP3    H246031   3.368   2.771   2.188  1.3746 -0.2351  0.1485
 8206TIP3   OH246032   0.837   3.298  16.718 -0.3182 -0.2219 -0.5064
 8206TIP3    H146033   0.762   3.321  16.663  0.3986  0.6677 -1.1460
 8206TIP3    H246034   0.896   3.250  16.660 -0.7987 -1.7728  0.2436
 8207TIP3   OH246035   5.455   3.075   4.216 -0.1270 -0.3342 -0.3065
 8207TIP3    H146036   5.510   3.022   4.157  0.0763 -0.1639 -0.2692
 8207TIP3    H246037   5.511   3.148   4.241 -0.2138 -0.4094  0.1045
 8208TIP3   OH246038   4.419   2.913   0.287 -0.2373 -0.4947 -0.3201
 8208TIP3    H146039   4.375   2.985   0.241 -0.5434  1.6641  3.0359
 8208TIP3    H246040   4.503   2.903   0.242 -0.9181  0.7139 -1.9535
 8209TIP3   OH246041   3.703   4.253  11.188  0.3235  0.0488  0.1712
 8209TIP3    H146042   3.731   4.344  11.178  1.0831 -0.4058 -2.3759
 8209TIP3    H246043   3.607   4.257  11.187  0.3403  0.8255  0.5098
 8210TIP3   OH246044   1.443   2.998  13.514 -0.0267  0.0148 -0.0360
 8210TIP3    H146045   1.473   2.936  13.580 -0.0361 -0.5730 -0.5785
 8210TIP3    H246046   1.514   3.003  13.450 -0.6783 -0.6855 -0.8444
 8211TIP3   OH246047   5.372   1.752   2.619 -0.2208  0.7520 -0.0715
 8211TIP3    H146048   5.455   1.714   2.591  0.2102  1.2726  0.4694
 8211TIP3    H246049   5.309   1.680   2.613  0.5344  0.0023  0.7429
 8212TIP3   OH246050   0.494   1.771   4.689  0.2328  0.3362 -0.0367
 8212TIP3    H146051   0.438   1.757   4.765  2.3338  0.3977  1.6242
 8212TIP3    H246052   0.521   1.683   4.662  1.3553  0.4146  0.7960
 8213TIP3   OH246053   1.331   1.553   3.317 -0.1588  0.1441 -0.2288
 8213TIP3    H146054   1.265   1.519   3.257 -1.7561  0.6031  1.2023
 8213TIP3    H246055   1.301   1.525   3.404  1.7681  0.0067  0.4387
 8214TIP3   OH246056   5.999   5.670   3.291  0.0299 -0.2206  0.1414
 8214TIP3    H146057   5.922   5.727   3.290 -0.7980 -1.2394  1.6784
 8214TIP3    H246058   5.976   5.598   3.233  0.0542 -0.2253  0.1376
 8215TIP3   OH246059   0.117   2.035   1.044  0.0170  0.3910  0.2147
 8215TIP3    H146060   0.070   2.094   1.104  0.7044  1.2781 -0.0927
 8215TIP3    H246061   0.050   2.004   0.984 -0.2988  1.1662  0.1522
 8216TIP3   OH246062   6.577   3.323   2.095  0.5367 -0.2765  0.4083
 8216TIP3    H146063   6.657   3.270   2.091  1.1077  0.6355 -1.0171
 8216TIP3    H246064   6.607   3.409   2.125  0.1891  0.2301 -0.6787
 8217TIP3   OH246065   5.494   2.176  12.242 -0.0190  0.3209 -0.1421
 8217TIP3    H146066   5.540   2.137  12.316 -0.3798 -1.4002 -0.7826
 8217TIP3    H246067   5.417   2.120  12.229 -0.3009  0.9591 -1.4210
 8218TIP3   OH246068   4.293   5.306  16.061  0.1150  0.1027 -0.1168
 8218TIP3    H146069   4.330   5.340  15.979 -0.5340 -3.7500 -2.2278
 8218TIP3    H246070   4.199   5.306  16.046  0.0593 -1.7903  0.0713
 8219TIP3   OH246071   1.662   5.525  15.619  0.1363 -0.1477 -0.8120
 8219TIP3    H146072   1.601   5.585  15.577 -0.1822 -0.8423 -1.3638
 8219TIP3    H246073   1.650   5.442  15.573  1.2532 -0.3878 -0.7075
 8220TIP3   OH246074   3.957   3.755  13.703 -0.0382 -0.0655 -0.7372
 8220TIP3    H146075   4.026   3.696  13.674 -1.1137 -1.2554 -0.9562
 8220TIP3    H246076   3.996   3.802  13.777  0.5794 -1.6668  0.0009
 8221TIP3   OH246077   5.648   2.621   2.511  0.0156 -0.0041  0.4114
 8221TIP3    H146078   5.719   2.559   2.531  1.3648  1.5373  0.6687
 8221TIP3    H246079   5.685   2.677   2.443 -0.9633  0.8670  0.5795
 8222TIP3   OH246080   0.166   6.420   4.235  0.4479 -0.0967  0.3006
 8222TIP3    H146081   0.109   6.443   4.308 -0.9078 -1.5054 -0.2774
 8222TIP3    H246082   0.206   6.503   4.209 -1.4175  0.9546  0.6516
 8223TIP3   OH246083   5.678   6.615   3.776 -0.6150 -0.5396  0.2637
 8223TIP3    H146084   5.695   6.659   3.693 -1.6101 -0.8922 -0.1445
 8223TIP3    H246085   5.758   6.567   3.795 -0.1754 -0.0030 -0.1989
 8224TIP3   OH246086   4.744   4.311   5.441 -0.1042 -0.1843  0.7828
 8224TIP3    H146087   4.784   4.238   5.393 -0.2213  0.9315 -1.1256
 8224TIP3    H246088   4.650   4.294   5.435 -0.1305  0.0783  0.3561
 8225TIP3   OH246089   6.161   5.222   6.129  0.2794  0.5609  0.1867
 8225TIP3    H146090   6.234   5.183   6.080 -0.6891 -0.1135 -0.7380
 8225TIP3    H246091   6.201   5.296   6.174  2.2519 -1.5015  2.1470
 8226TIP3   OH246092   3.392   5.868  12.650 -0.1323 -0.3122  0.6083
 8226TIP3    H146093   3.366   5.849  12.559  0.2120  1.2979  0.1376
 8226TIP3    H246094   3.395   5.783  12.692  2.6211 -1.4931 -1.6814
 8227TIP3   OH246095   1.700   3.339   2.912  0.1974 -0.3022  0.2584
 8227TIP3    H146096   1.669   3.256   2.946  1.5867 -1.6386 -1.5116
 8227TIP3    H246097   1.687   3.332   2.817  2.2615  0.5919 -0.1567
 8228TIP3   OH246098   0.585   5.479   1.978  0.5177 -0.3152 -0.6004
 8228TIP3    H146099   0.571   5.487   1.884  0.7389  0.2453 -0.5855
 8228TIP3    H246100   0.671   5.437   1.986  0.8687  0.3703 -0.6485
 8229TIP3   OH246101   2.170   5.656  13.326  0.0894 -0.0063  0.1951
 8229TIP3    H146102   2.096   5.614  13.282 -1.2575  2.1009  0.2577
 8229TIP3    H246103   2.231   5.585  13.345 -1.8532 -1.8209  0.0164
 8230TIP3   OH246104   3.692   5.242   5.597 -0.4416 -0.0645 -0.5599
 8230TIP3    H146105   3.778   5.207   5.619 -1.4141 -1.4316  1.4288
 8230TIP3    H246106   3.662   5.189   5.524 -1.0443 -2.1943  1.1118
 8231TIP3   OH246107   4.419   4.657   3.337  0.3876  0.2724  0.1710
 8231TIP3    H146108   4.418   4.666   3.432  0.5763 -1.3824  0.3532
 8231TIP3    H246109   4.329   4.675   3.311  0.0062 -0.6117  0.8202
 8232TIP3   OH246110   0.497   4.542   0.738  0.0580  0.0583  0.3230
 8232TIP3    H146111   0.417   4.565   0.785 -0.5457 -1.9012  0.3578
 8232TIP3    H246112   0.512   4.615   0.678 -0.5137  1.4754  1.8270
 8233TIP3   OH246113   2.527   6.555   1.334 -0.1928 -0.2074 -0.2428
 8233TIP3    H146114   2.525   6.485   1.399 -1.0207  2.9883  3.5777
 8233TIP3    H246115   2.437   6.588   1.331  0.3896  1.4443 -0.9129
 8234TIP3   OH246116   4.490   6.410  17.135  0.2918  0.0121  0.3560
 8234TIP3    H146117   4.449   6.339  17.185  1.3578 -1.2537 -0.5089
 8234TIP3    H246118   4.483   6.383  17.044 -1.9301  2.4484 -0.3107
 8235TIP3   OH246119   5.708   3.252   5.006  0.3709 -0.5730  0.2800
 8235TIP3    H146120   5.778   3.266   4.943 -0.7900 -0.2753 -0.9866
 8235TIP3    H246121   5.750   3.206   5.079  2.1679  0.7949  0.1732
 8236TIP3   OH246122   3.817   1.069   2.253  0.8311 -0.2566 -0.6322
 8236TIP3    H146123   3.869   1.147   2.274  2.7089 -1.4028 -0.7726
 8236TIP3    H246124   3.781   1.088   2.166  2.3851 -0.0523 -1.2660
 8237TIP3   OH246125   0.968   2.526   2.148 -0.2074  0.6825 -0.1069
 8237TIP3    H146126   1.042   2.469   2.170 -0.6860  0.8534  2.2733
 8237TIP3    H246127   1.008   2.605   2.113  0.5471 -0.4210 -1.8481
 8238TIP3   OH246128   5.562   1.770   4.211  0.3575  0.1180 -0.0651
 8238TIP3    H146129   5.493   1.837   4.207  0.5265  0.3050  0.1198
 8238TIP3    H246130   5.542   1.710   4.139  1.8058  1.8913 -2.0575
 8239TIP3   OH246131   1.659   6.605   4.918 -0.0178 -0.0120 -0.0180
 8239TIP3    H146132   1.721   6.587   4.988 -0.3961 -0.2666  0.2609
 8239TIP3    H246133   1.573   6.587   4.957 -0.3786  1.6948  0.0535
 8240TIP3   OH246134   1.866   5.792   5.438  0.2861  0.0281 -0.6945
 8240TIP3    H146135   1.805   5.850   5.392 -0.0508 -0.0729 -0.3834
 8240TIP3    H246136   1.896   5.844   5.513 -1.2680 -0.7384  0.5158
 8241TIP3   OH246137   3.952   4.923  17.135 -0.2326  0.0768 -0.1426
 8241TIP3    H146138   3.996   4.913  17.051  1.6778  2.5641  0.4486
 8241TIP3    H246139   3.974   4.844  17.184  0.6246 -0.3213 -1.1486
 8242TIP3   OH246140   4.230   2.213  17.093  0.2597 -0.4821 -0.3703
 8242TIP3    H146141   4.197   2.296  17.126 -0.1031 -0.0308 -1.8245
 8242TIP3    H246142   4.160   2.179  17.037  1.2173 -0.7583 -1.4415
 8243TIP3   OH246143   5.014   6.702  12.942 -0.2675 -0.1790  0.3746
 8243TIP3    H146144   4.993   6.666  12.855 -2.2990 -0.5575  0.9650
 8243TIP3    H246145   4.981   6.636  13.003  0.4500  0.4436  1.4480
 8244TIP3   OH246146   4.825   3.411  12.953 -0.0012 -0.3648  0.7910
 8244TIP3    H146147   4.875   3.336  12.984  1.7839  0.8156  0.9142
 8244TIP3    H246148   4.783   3.381  12.872 -0.2325 -1.8007  1.4155
 8245TIP3   OH246149   4.795   4.940   2.765  0.1870  0.2193 -0.0951
 8245TIP3    H146150   4.841   4.964   2.685  1.7500 -3.4598 -0.4977
 8245TIP3    H246151   4.732   4.873   2.738  1.8196 -2.2946  1.7951
 8246TIP3   OH246152   3.925   5.311  12.495 -0.0622  0.2282  0.1872
 8246TIP3    H146153   4.001   5.369  12.502  0.6064 -0.8046  2.6335
 8246TIP3    H246154   3.943   5.241  12.557 -0.6185 -2.8962 -2.8520
 8247TIP3   OH246155   4.526   3.858   4.964 -0.0971  0.0593  0.7941
 8247TIP3    H146156   4.504   3.769   4.938 -0.8346  0.3996  0.2283
 8247TIP3    H246157   4.537   3.853   5.059  1.1257 -0.8859  0.6338
 8248TIP3   OH246158   2.306   2.090   6.612 -0.0455  0.3966 -0.1724
 8248TIP3    H146159   2.235   2.148   6.640 -0.0386  0.0294  0.6319
 8248TIP3    H246160   2.384   2.126   6.654  0.3836  1.1825 -1.5688
 8249TIP3   OH246161   0.021   3.973   4.521 -0.2213  0.2145 -0.3347
 8249TIP3    H146162   0.080   4.047   4.511 -0.1436  0.0665 -0.9812
 8249TIP3    H246163   0.011   3.963   4.616  0.2282  0.6829 -0.2367
 8250TIP3   OH246164   4.148   5.216   3.878  0.5654  0.3917 -0.0918
 8250TIP3    H146165   4.205   5.141   3.893  1.4535  0.6012 -2.0393
 8250TIP3    H246166   4.191   5.264   3.807 -1.5877  1.0533 -1.0231
 8251TIP3   OH246167   6.345   0.994   0.038 -0.0492 -0.2967  0.5070
 8251TIP3    H146168   6.405   1.068   0.036 -0.9584  0.4596  0.3393
 8251TIP3    H246169   6.323   0.979  -0.054 -3.3340  2.1935  0.6913
 8252TIP3   OH246170   3.195   0.450  16.250 -0.5119 -0.4925 -0.2273
 8252TIP3    H146171   3.185   0.423  16.341  1.6243 -1.0434 -0.1045
 8252TIP3    H246172   3.241   0.378  16.208  1.0150  0.8916 -1.0615
 8253TIP3   OH246173   1.340   2.677   6.139  0.7434 -0.8910 -0.0682
 8253TIP3    H146174   1.369   2.738   6.208  1.1299 -1.4707  0.2929
 8253TIP3    H246175   1.358   2.723   6.057  1.1365 -0.5638  0.1976
 8254TIP3   OH246176   6.775   5.567  11.258 -0.1159  0.1027 -0.5748
 8254TIP3    H146177   6.805   5.515  11.333  1.2345  1.2988 -0.2363
 8254TIP3    H246178   6.788   5.510  11.182 -0.1891 -0.6190 -0.0562
 8255TIP3   OH246179   3.028   5.413  11.470 -0.5073 -0.0826 -0.9531
 8255TIP3    H146180   3.098   5.476  11.452 -0.3661  0.6795  1.7980
 8255TIP3    H246181   2.954   5.467  11.499 -1.5989 -0.9945 -1.9683
 8256TIP3   OH246182   0.665   1.094   0.914 -0.0061  0.0146 -0.0814
 8256TIP3    H146183   0.687   1.187   0.925 -1.3897  0.2146  1.4063
 8256TIP3    H246184   0.588   1.081   0.969  0.8084 -2.2848  0.6366
 8257TIP3   OH246185   5.704   5.419  12.017 -0.2430 -0.3412 -0.0638
 8257TIP3    H146186   5.618   5.457  12.036 -0.3288 -0.2480 -0.5933
 8257TIP3    H246187   5.708   5.339  12.068 -1.0549 -0.8624 -0.7808
 8258TIP3   OH246188   1.525   6.114   1.377  0.0219 -0.4582 -0.1930
 8258TIP3    H146189   1.458   6.117   1.444  0.0618 -0.6145 -0.1455
 8258TIP3    H246190   1.501   6.039   1.322 -0.5507  0.2490 -0.9244
 8259TIP3   OH246191   4.453   6.733  16.633  0.8297 -0.0086 -0.2001
 8259TIP3    H146192   4.402   6.794  16.579 -0.5867 -0.4833  0.5574
 8259TIP3    H246193   4.489   6.788  16.703  0.1812  0.1025  0.0545
 8260TIP3   OH246194   4.818   6.072   4.442  0.2780  0.1141 -0.5152
 8260TIP3    H146195   4.723   6.061   4.444  0.4250 -1.2844  0.8438
 8260TIP3    H246196   4.839   6.081   4.349 -1.2831  1.7542 -0.7698
 8261TIP3   OH246197   0.375   5.040  11.629 -0.2049 -0.4007  0.5339
 8261TIP3    H146198   0.308   5.020  11.563 -0.4576 -0.0106  0.6744
 8261TIP3    H246199   0.458   5.030  11.582 -0.3827 -0.1233  0.1578
 8262TIP3   OH246200   4.384   3.660   1.895  0.0808  0.5544 -0.2665
 8262TIP3    H146201   4.319   3.667   1.965  0.1107 -1.7841  0.0834
 8262TIP3    H246202   4.443   3.591   1.924  0.5829  0.0885 -2.2295
 8263TIP3   OH246203   5.315   4.728  13.224 -0.3409 -0.5153 -0.1638
 8263TIP3    H146204   5.275   4.687  13.301 -0.6802 -0.7812 -0.4830
 8263TIP3    H246205   5.255   4.800  13.202  0.6036  0.6174  0.8175
 8264TIP3   OH246206   2.214   6.108  14.254  0.2117 -0.0093 -0.4990
 8264TIP3    H146207   2.127   6.109  14.213 -0.1775 -0.4306  0.2823
 8264TIP3    H246208   2.231   6.200  14.277 -0.2914 -0.0059 -0.1260
 8265TIP3   OH246209   5.900   1.775  11.809  0.3507  0.3158 -0.0974
 8265TIP3    H146210   5.970   1.745  11.751  1.2887  1.7688  0.2307
 8265TIP3    H246211   5.882   1.700  11.866  0.3029 -0.6995 -1.3936
 8266TIP3   OH246212   6.503   2.505   4.492 -0.2371  0.1941  0.0343
 8266TIP3    H146213   6.550   2.584   4.520  1.0576 -0.0717 -1.2347
 8266TIP3    H246214   6.429   2.538   4.442 -0.5993  0.6092  0.8216
 8267TIP3   OH246215   3.480   1.100   3.889 -0.1486 -0.3744  0.5979
 8267TIP3    H146216   3.473   1.054   3.973 -1.2273 -0.5708  0.4237
 8267TIP3    H246217   3.400   1.153   3.884 -0.5126 -0.9793 -0.6422
 8268TIP3   OH246218   1.980   1.702   6.194  0.0354  0.3373 -0.6972
 8268TIP3    H146219   2.045   1.704   6.264  0.4853  0.6490 -1.1224
 8268TIP3    H246220   1.960   1.609   6.182 -1.7522  0.3575  1.4064
 8269TIP3   OH246221   1.565   5.709   2.749 -0.1002 -0.1476  0.0718
 8269TIP3    H146222   1.478   5.736   2.719 -0.1682  0.0653  0.4515
 8269TIP3    H246223   1.611   5.685   2.669 -0.6600 -0.7069 -0.0926
 8270TIP3   OH246224   0.242   1.299  15.342 -0.8301  0.0189  0.0692
 8270TIP3    H146225   0.202   1.356  15.408 -0.5159  0.2263  0.0789
 8270TIP3    H246226   0.229   1.345  15.259 -0.5678  0.1100  0.0779
 8271TIP3   OH246227   1.115   2.993   4.910  0.5764 -0.4940  0.1605
 8271TIP3    H146228   1.122   3.032   4.822  0.8864  0.4795  0.6062
 8271TIP3    H246229   1.021   2.982   4.924  0.3786  1.4063  0.5718
 8272TIP3   OH246230   4.119   1.850  11.199  0.1775 -0.1442 -0.1358
 8272TIP3    H146231   4.051   1.908  11.233  1.5126  0.9769  0.7700
 8272TIP3    H246232   4.147   1.892  11.117 -0.5004 -0.8450 -0.7427
 8273TIP3   OH246233   1.867   5.397   6.263  0.0114 -0.0316 -0.0869
 8273TIP3    H146234   1.918   5.477   6.251 -0.3167 -0.0239 -1.5974
 8273TIP3    H246235   1.781   5.417   6.226 -0.9566 -0.2295  1.9081
 8274TIP3   OH246236   1.395   1.978  14.724  0.2413  0.3497 -0.1590
 8274TIP3    H146237   1.336   2.031  14.778  0.7532  0.4235  0.3411
 8274TIP3    H246238   1.440   2.042  14.668 -1.6752  0.1089 -2.0958
 8275TIP3   OH246239   5.391   1.320  12.649 -0.0773 -0.0220 -0.0458
 8275TIP3    H146240   5.310   1.277  12.622 -0.7449  0.3349  1.2837
 8275TIP3    H246241   5.459   1.283  12.592 -1.6092  2.1909 -3.6325
 8276TIP3   OH246242   2.717   2.901  14.734  0.3355  0.1713  0.4424
 8276TIP3    H146243   2.711   2.976  14.792  0.6560  0.0638  0.6149
 8276TIP3    H246244   2.716   2.825  14.792  0.7248  0.0656  0.3144
 8277TIP3   OH246245   5.325   4.183   0.488 -0.2944  0.1789  0.1104
 8277TIP3    H146246   5.384   4.243   0.534 -1.2717  1.3813 -0.1550
 8277TIP3    H246247   5.374   4.158   0.410 -0.3025  1.5552 -0.3647
 8278TIP3   OH246248   4.076   4.344  12.209 -0.0117 -0.6880  0.0154
 8278TIP3    H146249   4.014   4.415  12.224  0.3538 -0.4086  0.2062
 8278TIP3    H246250   4.108   4.359  12.120  1.3748  0.4203  0.6569
 8279TIP3   OH246251   4.410   6.327   2.343  0.0496 -0.5671 -0.0594
 8279TIP3    H146252   4.414   6.362   2.254  0.9851 -0.1948  0.1267
 8279TIP3    H246253   4.471   6.380   2.394 -1.5330  0.1737  1.1521
 8280TIP3   OH246254   4.826   1.295  11.954 -0.4943 -0.1551  0.3595
 8280TIP3    H146255   4.807   1.207  11.919 -0.6487  0.0924 -0.1868
 8280TIP3    H246256   4.742   1.327  11.986 -0.2351 -0.6353  1.5575
 8281TIP3   OH246257   3.819   0.982  10.721  0.6908 -0.0875  0.0139
 8281TIP3    H146258   3.814   0.925  10.644  0.5556 -0.7904  0.5341
 8281TIP3    H246259   3.913   0.991  10.737  0.7073 -0.7101  0.3155
 8282TIP3   OH246260   5.990   0.964   6.213  0.9457  0.3286  0.1009
 8282TIP3    H146261   5.953   0.893   6.264  0.9624  1.2490  1.4567
 8282TIP3    H246262   5.923   0.985   6.148  0.6000 -0.3732  0.2284
 8283TIP3   OH246263   1.487   5.509   2.906 -0.3674 -0.2239  0.5621
 8283TIP3    H146264   1.522   5.578   2.850  1.6396 -3.0223 -1.9384
 8283TIP3    H246265   1.395   5.502   2.880 -0.7673  1.8204  1.2952
 8284TIP3   OH246266   3.460   5.241  15.707 -0.0050  0.4037  0.2068
 8284TIP3    H146267   3.536   5.298  15.719 -0.4506  0.5990  2.3829
 8284TIP3    H246268   3.419   5.273  15.627 -0.0891  2.9857  1.2093
 8285TIP3   OH246269   2.256   4.195  12.696  0.0477 -0.4545 -0.0673
 8285TIP3    H146270   2.280   4.285  12.673  0.4325  0.0653  2.1154
 8285TIP3    H246271   2.335   4.144  12.678  0.0156 -0.2499 -0.7885
 8286TIP3   OH246272   0.552   5.480   5.018 -0.4561 -0.3640  0.0787
 8286TIP3    H146273   0.632   5.531   5.005  0.0391 -1.0641  0.2906
 8286TIP3    H246274   0.551   5.418   4.945 -1.9933  1.0886 -1.2037
 8287TIP3   OH246275   6.528   5.719  15.242 -0.2970 -0.6019  0.3962
 8287TIP3    H146276   6.442   5.753  15.219 -0.1009 -0.7622 -0.6258
 8287TIP3    H246277   6.563   5.683  15.160  1.6462  1.4491  0.2182
 8288TIP3   OH246278   1.110   0.541  12.883 -0.1620  0.3713  0.1253
 8288TIP3    H146279   1.167   0.592  12.941 -0.3304 -1.0491  1.6404
 8288TIP3    H246280   1.118   0.451  12.915 -2.2667 -0.0713 -0.4178
 8289TIP3   OH246281   1.210   5.423   6.347 -0.7999 -0.3401 -0.0949
 8289TIP3    H146282   1.280   5.478   6.382 -0.1489 -1.0161 -0.3194
 8289TIP3    H246283   1.136   5.437   6.406  0.0108 -0.8194  1.0684
 8290TIP3   OH246284   0.021   0.119  12.672  0.0952 -0.0328 -0.3337
 8290TIP3    H146285  -0.063   0.106  12.629 -0.2406 -0.6984  0.5162
 8290TIP3    H246286   0.008   0.088  12.762  0.9828  0.7005  0.0650
 8291TIP3   OH246287   0.867   6.126  16.426  0.3090  0.1295 -0.2618
 8291TIP3    H146288   0.919   6.100  16.502 -0.4539  0.7252  0.4859
 8291TIP3    H246289   0.926   6.183  16.376  0.0446  1.7211  1.1566
 8292TIP3   OH246290   6.301   4.471   3.518  0.2509 -0.0391  0.0395
 8292TIP3    H146291   6.356   4.546   3.494  1.4472 -1.1286 -0.7531
 8292TIP3    H246292   6.350   4.395   3.488 -1.3264 -1.1105  0.0698
 8293TIP3   OH246293   6.217   3.153  13.421  0.4733  0.0742  0.0611
 8293TIP3    H146294   6.282   3.196  13.366  0.0257  1.3988  0.5429
 8293TIP3    H246295   6.178   3.223  13.473 -2.0020 -0.4985 -0.8688
 8294TIP3   OH246296   4.200   0.052   0.677  0.2514 -0.1680 -0.0591
 8294TIP3    H146297   4.211   0.074   0.584  1.0091  1.4725  0.3641
 8294TIP3    H246298   4.147  -0.027   0.678  2.0706 -1.5283 -1.9695
 8295TIP3   OH246299   1.050   3.695   4.709  0.1515  0.0317 -0.1141
 8295TIP3    H146300   1.110   3.736   4.647 -0.1677 -0.3201 -0.6626
 8295TIP3    H246301   0.963   3.714   4.674 -0.0397  0.0601  0.3718
 8296TIP3   OH246302   5.599   0.930   3.553  0.8931 -0.5332  0.1738
 8296TIP3    H146303   5.674   0.872   3.564  0.4713 -0.9125  1.1836
 8296TIP3    H246304   5.631   1.017   3.576  1.5431 -0.3207 -1.3945
 8297TIP3   OH246305   6.299   0.234   0.428 -0.4492 -0.2201  0.2410
 8297TIP3    H146306   6.242   0.264   0.499 -0.9512 -0.8144  0.1050
 8297TIP3    H246307   6.368   0.299   0.423 -1.4463  0.8503  0.0186
 8298TIP3   OH246308   2.670   6.404   5.111 -0.1567  0.3029 -0.1491
 8298TIP3    H146309   2.670   6.361   5.196 -0.9195  1.3614  0.4160
 8298TIP3    H246310   2.687   6.334   5.048  0.7151 -0.4418  0.8895
 8299TIP3   OH246311   6.043   1.919   5.066 -0.3999  0.2439  0.4720
 8299TIP3    H146312   6.132   1.885   5.058 -0.4145 -0.0061  1.2476
 8299TIP3    H246313   6.007   1.915   4.978  0.7211  1.3791 -0.0673
 8300TIP3   OH246314   4.558   4.372  12.762 -0.0509 -0.7019 -0.7867
 8300TIP3    H146315   4.560   4.358  12.667  0.6220  0.9459 -1.0578
 8300TIP3    H246316   4.541   4.466  12.772  1.1132 -0.6036  0.6825
 8301TIP3   OH246317   1.598   6.393  13.033  0.1388 -0.1866 -0.4745
 8301TIP3    H146318   1.505   6.373  13.041 -0.2734  1.6334 -0.1565
 8301TIP3    H246319   1.627   6.411  13.123  0.7415 -0.5083 -0.5985
 8302TIP3   OH246320   2.077   3.881   4.440 -0.1576  0.0473 -0.2211
 8302TIP3    H146321   2.165   3.915   4.424  0.4801 -1.9800 -1.4292
 8302TIP3    H246322   2.023   3.959   4.456  1.5754  1.4361 -0.8500
 8303TIP3   OH246323   6.627   2.853  14.119  0.2490 -0.3756  0.0204
 8303TIP3    H146324   6.552   2.868  14.176  0.7456 -3.0846  1.6004
 8303TIP3    H246325   6.637   2.934  14.070 -3.1844  0.3855  0.3199
 8304TIP3   OH246326   5.544   4.878   0.177  0.0631 -0.3139 -0.4383
 8304TIP3    H146327   5.562   4.945   0.111  0.6678 -0.3678 -0.3315
 8304TIP3    H246328   5.449   4.883   0.190  0.1140  0.5895 -0.3577
 8305TIP3   OH246329   0.395   5.573   3.175 -0.1776 -0.3044  0.5552
 8305TIP3    H146330   0.486   5.597   3.161 -0.4368 -0.1920 -1.1862
 8305TIP3    H246331   0.347   5.623   3.109 -1.2934 -1.7622  0.2246
 8306TIP3   OH246332   4.795   5.001   1.525  0.2791  0.1508 -0.4336
 8306TIP3    H146333   4.849   5.078   1.507 -0.2919  0.3792 -1.2284
 8306TIP3    H246334   4.858   4.931   1.543  0.7984  0.9295  0.9436
 8307TIP3   OH246335   4.980   5.954  15.274 -0.5932  0.3873 -0.3816
 8307TIP3    H146336   5.060   5.969  15.224 -0.1556 -1.9836 -0.4885
 8307TIP3    H246337   4.917   5.922  15.210 -0.0737 -2.5331  0.4375
 8308TIP3   OH246338   4.576   2.382  12.731  0.2429  1.4251 -0.2190
 8308TIP3    H146339   4.607   2.449  12.670  1.1179  1.5434  0.3307
 8308TIP3    H246340   4.613   2.408  12.816  1.3345 -0.2016 -0.1522
 8309TIP3   OH246341   0.738   3.249   1.310  0.3311 -0.0181  0.6443
 8309TIP3    H146342   0.651   3.238   1.348 -0.1014 -1.4881 -0.6469
 8309TIP3    H246343   0.775   3.325   1.355 -1.4341  0.3577  1.5415
 8310TIP3   OH246344   3.670   4.316  15.360 -0.0984  0.4836  0.3695
 8310TIP3    H146345   3.686   4.228  15.394 -0.1225  0.5458  0.5445
 8310TIP3    H246346   3.608   4.355  15.422  0.5064  0.8950  0.7276
 8311TIP3   OH246347   3.739   0.329  14.051  0.3153  0.7085  0.0441
 8311TIP3    H146348   3.780   0.358  13.970  1.3235 -2.4308 -0.6967
 8311TIP3    H246349   3.725   0.235  14.039  1.2898 -0.0706  3.8150
 8312TIP3   OH246350   6.093   6.353   2.442  0.0244  0.8065  0.7905
 8312TIP3    H146351   6.013   6.360   2.390 -0.6851  0.9520  1.8586
 8312TIP3    H246352   6.132   6.440   2.438 -1.0613  1.3864  2.0702
 8313TIP3   OH246353   3.638   3.861  16.966  0.3674  0.3933  0.4413
 8313TIP3    H146354   3.569   3.856  17.033  1.8210 -3.4164  1.9120
 8313TIP3    H246355   3.591   3.861  16.883 -1.4280  0.8228  1.4068
 8314TIP3   OH246356   2.337   6.295  11.512 -0.1115  0.0539 -0.4162
 8314TIP3    H146357   2.312   6.301  11.604  2.5019  0.6850  0.3347
 8314TIP3    H246358   2.420   6.247  11.512  0.8915  1.6198 -2.2207
 8315TIP3   OH246359   2.030   1.655  14.975 -0.6287 -0.3023 -0.2285
 8315TIP3    H146360   2.015   1.565  15.002 -2.6854 -0.3962 -1.4560
 8315TIP3    H246361   2.039   1.650  14.879 -1.8558  0.8814 -0.4359
 8316TIP3   OH246362   3.957   0.237   1.202 -0.3765  0.6164 -0.4172
 8316TIP3    H146363   3.906   0.300   1.253  0.2743  1.0833 -0.3316
 8316TIP3    H246364   4.002   0.290   1.136 -1.9381 -0.0762 -2.1289
 8317TIP3   OH246365   6.150   0.713  11.562 -0.3113  0.1263 -0.1048
 8317TIP3    H146366   6.128   0.805  11.547  0.6421  0.3140 -0.4131
 8317TIP3    H246367   6.079   0.665  11.520 -1.5093  0.7107  1.1715
 8318TIP3   OH246368   4.680   4.504   5.056  0.3830 -0.1309 -0.2427
 8318TIP3    H146369   4.698   4.595   5.032 -0.1763 -0.2302 -1.1052
 8318TIP3    H246370   4.628   4.511   5.136 -1.1329  0.4040 -1.2270
 8319TIP3   OH246371   3.520   0.427  11.640 -0.4881  0.3235  0.4839
 8319TIP3    H146372   3.543   0.508  11.685 -0.1960  0.3566  0.2744
 8319TIP3    H246373   3.542   0.443  11.548 -0.6058  0.0737  0.4111
 8320TIP3   OH246374   5.083   2.626   2.332 -0.5093 -0.0271 -0.9458
 8320TIP3    H146375   5.044   2.675   2.405 -0.5117  1.5724 -1.9759
 8320TIP3    H246376   5.123   2.693   2.277 -1.4382 -1.0794 -3.0038
 8321TIP3   OH246377   6.096   0.424   4.964  0.2045  0.0286 -0.2153
 8321TIP3    H146378   6.017   0.449   4.915  0.2947  2.4855  0.7845
 8321TIP3    H246379   6.082   0.332   4.987 -1.8668  0.1081 -0.9921
 8322TIP3   OH246380   4.267   2.587   3.845  0.6546 -0.7593 -0.0533
 8322TIP3    H146381   4.333   2.546   3.903  2.2649 -0.8809 -1.8676
 8322TIP3    H246382   4.254   2.523   3.776 -0.5029 -0.2088 -0.3536
 8323TIP3   OH246383   1.221   6.537  11.642  0.0787  0.0823  0.6392
 8323TIP3    H146384   1.215   6.583  11.558 -0.3632  0.0062  0.6273
 8323TIP3    H246385   1.276   6.461  11.623  1.0625  0.7529  0.7281
 8324TIP3   OH246386   4.913   2.567  13.530  0.5782 -0.1295  0.0357
 8324TIP3    H146387   4.881   2.609  13.609 -0.1373 -2.0011  0.7934
 8324TIP3    H246388   4.843   2.582  13.465  0.2799 -0.2451  0.3284
 8325TIP3   OH246389   6.193   2.124  16.902 -0.6474 -0.3216  0.1529
 8325TIP3    H146390   6.263   2.123  16.968 -0.2026  1.5302 -0.2472
 8325TIP3    H246391   6.239   2.109  16.819 -0.7994  0.3390 -0.0514
 8326TIP3   OH246392   5.745   0.494   5.362 -0.0785 -0.2258  0.4374
 8326TIP3    H146393   5.659   0.453   5.371 -0.6964  0.7366 -0.7985
 8326TIP3    H246394   5.734   0.556   5.290  0.9981  1.5857  1.7506
 8327TIP3   OH246395   6.328   0.881   1.781 -0.1324  0.1843 -0.4949
 8327TIP3    H146396   6.398   0.900   1.844  0.7329  0.0476 -1.3769
 8327TIP3    H246397   6.348   0.938   1.706 -1.2356  0.4670 -0.5903
 8328TIP3   OH246398   4.690   4.459  14.454  0.6014  0.2133  0.3514
 8328TIP3    H146399   4.707   4.507  14.373  0.4087  0.4406  0.4438
 8328TIP3    H246400   4.765   4.477  14.510  1.4470 -1.1053 -0.3005
 8329TIP3   OH246401   3.977   1.647   5.420  0.4178 -0.0766  0.1570
 8329TIP3    H146402   3.955   1.732   5.382 -1.1857 -0.8467 -0.7231
 8329TIP3    H246403   3.895   1.615   5.457  1.0053 -1.2263  0.5127
 8330TIP3   OH246404   3.161   3.958   2.630  0.2714 -0.6888 -0.3689
 8330TIP3    H146405   3.216   3.906   2.571  1.1816 -0.8652  0.6087
 8330TIP3    H246406   3.130   3.896   2.695 -0.2046 -0.3702 -0.2873
 8331TIP3   OH246407   1.998   1.990   6.163  0.3625 -0.4520  0.6417
 8331TIP3    H146408   1.916   2.030   6.192  0.6683  1.0974 -0.5064
 8331TIP3    H246409   1.990   1.898   6.189 -2.6045 -0.8351 -1.1519
 8332TIP3   OH246410   0.149   2.513  14.395 -0.1920  0.4962 -0.3075
 8332TIP3    H146411   0.239   2.485  14.414 -0.2463  1.0070  0.7463
 8332TIP3    H246412   0.159   2.600  14.357 -0.2985  1.2483  1.2936
 8333TIP3   OH246413   1.965   4.479   6.657 -0.0300 -0.9718  1.1320
 8333TIP3    H146414   1.903   4.444   6.594 -1.2073 -0.8515  2.1935
 8333TIP3    H246415   1.937   4.443   6.742  0.9879 -0.4497  1.7155
 8334TIP3   OH246416   6.749   3.765  15.277  0.2339 -0.5194 -0.6994
 8334TIP3    H146417   6.685   3.797  15.214  0.2586 -2.0004 -1.5109
 8334TIP3    H246418   6.718   3.678  15.301  1.2769 -0.7576 -0.1539
 8335TIP3   OH246419   1.786   2.598  10.281  0.0652 -0.1630 -0.0440
 8335TIP3    H146420   1.699   2.636  10.270 -0.1389 -0.7922 -0.6894
 8335TIP3    H246421   1.846   2.670  10.263 -0.3235  0.2308  0.2289
 8336TIP3   OH246422   1.706   1.931  11.776 -0.5397 -0.8219  0.2226
 8336TIP3    H146423   1.659   1.994  11.831 -0.9015 -1.2952  0.4664
 8336TIP3    H246424   1.756   1.985  11.715 -0.9519 -0.3043  0.3371
 8337TIP3   OH246425   4.153   3.762  15.955 -0.0214 -0.7270 -0.3221
 8337TIP3    H146426   4.227   3.704  15.943 -1.9580 -3.0586 -1.9950
 8337TIP3    H246427   4.107   3.761  15.871 -0.0286  3.5940 -0.5932
 8338TIP3   OH246428   0.920   3.723  12.757 -0.0860 -0.5224 -0.1734
 8338TIP3    H146429   0.983   3.678  12.813  0.2816  2.1566  1.7339
 8338TIP3    H246430   0.974   3.777  12.699 -0.5837 -0.0834 -0.2308
 8339TIP3   OH246431   6.162   0.587  16.978 -0.0695  0.4468  0.9115
 8339TIP3    H146432   6.232   0.542  16.930  0.9355  3.1484 -0.4021
 8339TIP3    H246433   6.194   0.590  17.069 -0.0136 -1.1099  0.9636
 8340TIP3   OH246434   6.658   3.008   5.780  0.0523  0.0492  0.4256
 8340TIP3    H146435   6.652   2.975   5.870  0.3959 -0.1110  0.3894
 8340TIP3    H246436   6.595   3.080   5.777  0.0764  0.0882  0.8083
 8341TIP3   OH246437   5.649   2.474   6.174  0.3587  0.0949  0.1743
 8341TIP3    H146438   5.723   2.460   6.115  0.7774  0.6854  0.5523
 8341TIP3    H246439   5.673   2.551   6.225  0.6043 -1.1480  2.0560
 8342TIP3   OH246440   0.843   0.127   1.655  0.0143  0.0699  0.2566
 8342TIP3    H146441   0.857   0.220   1.669  0.1032 -0.0174  0.7691
 8342TIP3    H246442   0.927   0.094   1.625 -0.4538  0.4477 -1.5442
 8343TIP3   OH246443   1.336   4.667  16.856  0.5116  0.1791 -0.0945
 8343TIP3    H146444   1.365   4.704  16.939  0.6094 -0.6748  0.2582
 8343TIP3    H246445   1.415   4.661  16.803  0.7043 -0.5589  0.2572
 8344TIP3   OH246446   1.476   0.514  16.702 -0.1880 -0.1204 -0.2011
 8344TIP3    H146447   1.491   0.591  16.758  1.3782 -0.1221 -0.5775
 8344TIP3    H246448   1.564   0.482  16.682 -0.7281 -0.4867 -2.1567
 8345TIP3   OH246449   2.940   3.509   2.004 -0.7917 -0.3763 -0.3567
 8345TIP3    H146450   2.975   3.544   2.086 -2.0155 -0.3779  0.1940
 8345TIP3    H246451   3.009   3.524   1.940  0.6241 -1.3602  0.8886
 8346TIP3   OH246452   5.425   1.550   2.160 -0.3211 -0.0535  0.1334
 8346TIP3    H146453   5.388   1.517   2.242 -2.8850 -0.6478 -1.1619
 8346TIP3    H246454   5.371   1.511   2.092  0.3072  2.1658 -1.7590
 8347TIP3   OH246455   3.573   0.243  14.329  0.6572  0.0326  0.0635
 8347TIP3    H146456   3.554   0.175  14.265 -1.7952  2.1630 -1.7238
 8347TIP3    H246457   3.558   0.202  14.414  2.9479 -2.5877 -0.6719
 8348TIP3   OH246458   1.105   0.521   1.641 -0.0721  0.0887 -0.4428
 8348TIP3    H146459   1.162   0.581   1.592  1.0838 -1.2758 -0.8450
 8348TIP3    H246460   1.129   0.434   1.609  2.3684 -1.1572  4.0264
 8349TIP3   OH246461   3.257   5.226  12.288  0.8178  0.0067  0.8137
 8349TIP3    H146462   3.248   5.142  12.332 -1.0912  0.0236  0.5389
 8349TIP3    H246463   3.201   5.219  12.211  2.0259  0.9169 -0.1882
 8350TIP3   OH246464   5.222   3.601   1.318  0.5449  0.2253  0.0112
 8350TIP3    H146465   5.146   3.554   1.285  0.7659 -1.4875  1.7721
 8350TIP3    H246466   5.195   3.634   1.404  1.0437  1.6758 -0.3617
 8351TIP3   OH246467   5.702   4.146   0.920  0.1989  0.6956 -0.1208
 8351TIP3    H146468   5.698   4.054   0.895  0.8706  0.6978 -0.2526
 8351TIP3    H246469   5.633   4.156   0.986  1.0268 -0.2232  0.9181
 8352TIP3   OH246470   5.731   6.070   2.778 -0.2529 -0.0618  0.1342
 8352TIP3    H146471   5.727   6.095   2.686  1.7976 -1.0382 -0.2695
 8352TIP3    H246472   5.755   5.977   2.777 -0.3466 -0.1302  1.6669
 8353TIP3   OH246473   1.674   4.713  15.891  0.1296  0.3478 -0.5722
 8353TIP3    H146474   1.620   4.662  15.952 -4.0361  0.3828 -3.8098
 8353TIP3    H246475   1.701   4.790  15.941 -0.9353 -0.7605  1.8765
 8354TIP3   OH246476   0.250   3.286  13.616 -0.1133 -0.1818 -0.0993
 8354TIP3    H146477   0.267   3.205  13.569  0.3171 -1.8084  2.6742
 8354TIP3    H246478   0.266   3.355  13.552 -0.0802 -2.2373 -2.4325
 8355TIP3   OH246479   3.600   0.741   2.563 -0.0307  0.5180  0.2406
 8355TIP3    H146480   3.573   0.674   2.626 -0.7180  0.5322 -0.0337
 8355TIP3    H246481   3.684   0.772   2.596  0.9488 -1.3875 -0.3264
 8356TIP3   OH246482   3.319   2.666   1.405 -0.0032 -0.5132 -0.2457
 8356TIP3    H146483   3.379   2.709   1.343  0.9927 -1.7185 -0.1750
 8356TIP3    H246484   3.376   2.632   1.474 -1.0666  0.5069  1.1831
 8357TIP3   OH246485   6.509   6.239   4.517  0.2404 -0.0055  0.0186
 8357TIP3    H146486   6.528   6.169   4.456 -0.4975 -0.0406 -0.1862
 8357TIP3    H246487   6.555   6.315   4.482  0.4273 -0.2056 -0.1697
 8358TIP3   OH246488   0.142   5.857   3.466 -0.5084 -0.0426 -0.7933
 8358TIP3    H146489   0.187   5.880   3.385 -0.4382  1.3550 -0.4001
 8358TIP3    H246490   0.103   5.940   3.495  0.3066 -0.2568  1.0893
 8359TIP3   OH246491   0.025   6.498  15.807  0.5612  0.3309 -0.0279
 8359TIP3    H146492  -0.067   6.473  15.797  0.1924  0.6989  2.1340
 8359TIP3    H246493   0.041   6.559  15.735 -0.7280 -0.1292 -0.7366
 8360TIP3   OH246494   6.023   1.101   3.090 -0.6984 -0.3045 -0.2491
 8360TIP3    H146495   6.031   1.031   3.155  1.0191 -0.8662 -1.0147
 8360TIP3    H246496   5.995   1.177   3.140  1.8929 -0.3475  1.4706
 8361TIP3   OH246497   1.120   2.750   5.927  0.3614 -0.3155  0.5573
 8361TIP3    H146498   1.033   2.791   5.935 -0.0234 -0.9652 -0.1827
 8361TIP3    H246499   1.178   2.821   5.900 -0.0853 -0.0246  0.3527
 8362TIP3   OH246500   3.743   1.220   1.119 -0.3132 -0.1186 -0.1559
 8362TIP3    H146501   3.716   1.137   1.157 -1.5514  0.3930  0.1283
 8362TIP3    H246502   3.831   1.203   1.085 -1.4541 -2.2853 -2.3505
 8363TIP3   OH246503   3.265   1.756  15.714  0.4767 -0.1720  0.7561
 8363TIP3    H146504   3.287   1.795  15.799 -0.5083  2.4578 -0.1070
 8363TIP3    H246505   3.222   1.673  15.736  0.9928  0.0365  2.7664
 8364TIP3   OH246506   4.171   2.826  12.576 -0.1948 -0.0677  0.1233
 8364TIP3    H146507   4.133   2.805  12.661 -0.4092 -0.9100 -0.1729
 8364TIP3    H246508   4.113   2.784  12.512  0.0411  0.4335 -0.4307
 8365TIP3   OH246509   2.162   3.807  13.585  0.3808  0.2292  0.5266
 8365TIP3    H146510   2.141   3.787  13.676 -2.2977 -1.3344 -0.3247
 8365TIP3    H246511   2.089   3.863  13.556  0.9320  0.2872 -0.7877
 8366TIP3   OH246512   4.807   0.123   0.837  0.4767 -0.4705  0.1453
 8366TIP3    H146513   4.866   0.140   0.911  4.9793  0.9102 -3.2920
 8366TIP3    H246514   4.841   0.043   0.796 -1.6787 -1.0405 -0.6898
 8367TIP3   OH246515   6.701   4.990  12.508 -0.0670 -0.4150 -0.3068
 8367TIP3    H146516   6.662   4.918  12.459  1.8272 -0.5779 -1.6778
 8367TIP3    H246517   6.699   4.961  12.599  0.0702 -1.9105 -0.7514
 8368TIP3   OH246518   6.299   6.735   0.383 -0.5464  0.0266 -0.3917
 8368TIP3    H146519   6.343   6.729   0.298  1.3197 -1.0134  0.5885
 8368TIP3    H246520   6.295   6.829   0.400 -0.5421  0.2289 -1.4242
 8369TIP3   OH246521   1.613   5.979   0.387  0.1455 -0.3903  0.1983
 8369TIP3    H146522   1.685   5.999   0.328  0.2808  0.7912  0.7370
 8369TIP3    H246523   1.534   6.007   0.340  0.3409  1.5944  0.9800
 8370TIP3   OH246524   3.632   4.162   0.346  0.0646 -0.3606  0.2688
 8370TIP3    H146525   3.607   4.072   0.367  1.5040 -1.0490 -0.8306
 8370TIP3    H246526   3.713   4.153   0.296 -1.0900  1.4249 -2.0534
 8371TIP3   OH246527   1.160   4.734  14.350  0.3225  0.9398  0.1782
 8371TIP3    H146528   1.214   4.694  14.418  0.6065  0.2294 -0.4593
 8371TIP3    H246529   1.219   4.748  14.276 -0.1242  1.1040 -0.1569
 8372TIP3   OH246530   3.279   5.120   1.459 -0.4511  0.0705  0.0040
 8372TIP3    H146531   3.186   5.122   1.481 -0.2270  0.9710  0.9099
 8372TIP3    H246532   3.322   5.095   1.540  0.1070 -0.3970 -0.4280
 8373TIP3   OH246533   3.797   3.294  17.076  0.0354  0.4935  0.0896
 8373TIP3    H146534   3.856   3.329  17.010  0.2001 -3.3278 -2.0372
 8373TIP3    H246535   3.851   3.235  17.128 -1.2869 -0.9391 -0.1105
 8374TIP3   OH246536   5.191   3.632   3.957  0.1358  0.3910  0.3148
 8374TIP3    H146537   5.188   3.713   4.007 -0.0783  0.3656  0.3434
 8374TIP3    H246538   5.279   3.597   3.973  0.8217  1.4268 -0.9744
 8375TIP3   OH246539   4.263   5.602  13.376  0.2552  0.3326  0.2734
 8375TIP3    H146540   4.266   5.613  13.471  1.7619  0.3758  0.2400
 8375TIP3    H246541   4.346   5.558  13.354  0.1673  0.8016 -1.0779
 8376TIP3   OH246542   1.648   4.488   1.765  0.1590 -0.0647 -0.6680
 8376TIP3    H146543   1.656   4.438   1.684 -0.3608 -0.7551 -0.3004
 8376TIP3    H246544   1.620   4.575   1.736 -1.6358 -0.7503 -1.1387
 8377TIP3   OH246545   6.262   2.921  10.754  0.3044 -0.0021 -0.5127
 8377TIP3    H146546   6.179   2.969  10.760  0.4744  0.2420 -0.0506
 8377TIP3    H246547   6.295   2.942  10.667  0.7340  1.3296 -0.0644
 8378TIP3   OH246548   1.077   2.544   1.539 -0.1628 -0.3657  0.0242
 8378TIP3    H146549   1.021   2.611   1.580 -0.4008 -0.7986  0.4064
 8378TIP3    H246550   1.046   2.461   1.575  1.6819 -0.5170  1.3792
 8379TIP3   OH246551   2.916   1.130  14.787  0.6945 -0.7639 -0.3567
 8379TIP3    H146552   2.954   1.214  14.759  0.6486 -0.3915  0.6213
 8379TIP3    H246553   2.987   1.067  14.777  0.7992 -0.5646 -0.8928
 8380TIP3   OH246554   3.554   1.835  12.194  0.3513 -0.0877  0.2198
 8380TIP3    H146555   3.605   1.755  12.206 -1.0144 -0.8065  1.5727
 8380TIP3    H246556   3.510   1.822  12.109 -0.2347 -1.0229  0.6405
 8381TIP3   OH246557   5.722   1.051  14.218 -0.1895  0.3253 -0.3995
 8381TIP3    H146558   5.809   1.083  14.241 -0.7664  0.1189  2.6035
 8381TIP3    H246559   5.681   1.124  14.171  1.0753  1.0216 -0.4503
 8382TIP3   OH246560   4.564   0.858   5.123 -0.5101 -0.1163  0.2524
 8382TIP3    H146561   4.546   0.941   5.080 -0.1633  0.5042  1.2725
 8382TIP3    H246562   4.484   0.806   5.110 -1.4686  1.0660  1.1865
 8383TIP3   OH246563   3.366   6.708   2.195  0.0959  0.3501 -0.0906
 8383TIP3    H146564   3.422   6.659   2.256  0.1965  0.2160 -0.2892
 8383TIP3    H246565   3.363   6.796   2.232  0.3812  0.3403 -0.0384
 8384TIP3   OH246566   2.456   4.813  16.338 -0.1744  0.0319  0.3534
 8384TIP3    H146567   2.512   4.872  16.288 -0.9268 -0.0284 -0.5814
 8384TIP3    H246568   2.477   4.832  16.430  0.1265  1.2226  0.0480
 8385TIP3   OH246569   3.523   4.005  14.811 -0.1211 -0.4414  0.3434
 8385TIP3    H146570   3.572   3.933  14.850  2.8348  2.5436  2.7386
 8385TIP3    H246571   3.455   4.025  14.875  1.3734  1.0724  1.5489
 8386TIP3   OH246572   3.190   0.698   4.813  0.3569 -0.3419 -0.2482
 8386TIP3    H146573   3.278   0.730   4.829  0.4277 -0.2650 -0.7517
 8386TIP3    H246574   3.141   0.718   4.893  0.1177  1.9818 -0.9030
 8387TIP3   OH246575   0.024   3.168   2.102  0.0823  0.1740 -0.5820
 8387TIP3    H146576  -0.033   3.105   2.147 -1.1986  2.8809  1.9166
 8387TIP3    H246577   0.112   3.132   2.113 -0.4289 -0.5283  2.0988
 8388TIP3   OH246578   6.492   0.047   5.289  0.6075 -0.1468  0.0361
 8388TIP3    H146579   6.423   0.074   5.350  0.5315 -1.0703  0.3781
 8388TIP3    H246580   6.463   0.080   5.204  0.7012  1.1393  0.4886
 8389TIP3   OH246581   1.948   4.175  16.258 -0.0154 -0.1407  0.3338
 8389TIP3    H146582   1.893   4.131  16.194  1.1996 -2.3074  0.6939
 8389TIP3    H246583   1.890   4.239  16.300 -2.0741 -1.8452  0.2222
 8390TIP3   OH246584   2.990   4.508   2.892 -0.3724 -0.2910 -0.7329
 8390TIP3    H146585   3.070   4.458   2.877  0.8530  1.5050 -0.5250
 8390TIP3    H246586   2.981   4.563   2.814 -1.3718 -0.4023 -0.7088
 8391TIP3   OH246587   2.566   5.372  13.388 -0.1723  0.1659  0.0698
 8391TIP3    H146588   2.644   5.367  13.333  0.0866 -2.0879  0.5344
 8391TIP3    H246589   2.562   5.287  13.432 -3.0795  0.0543 -0.1990
 8392TIP3   OH246590   1.089   5.064   5.320 -0.3556  0.1114  0.0897
 8392TIP3    H146591   1.041   5.049   5.401  0.0684 -0.2205  0.2846
 8392TIP3    H246592   1.031   5.118   5.266 -0.8372 -0.0804  0.4188
 8393TIP3   OH246593   6.468   2.395  10.755 -0.2950 -0.5723 -0.1745
 8393TIP3    H146594   6.429   2.482  10.753 -0.4674 -0.6560 -1.8758
 8393TIP3    H246595   6.537   2.398  10.689 -1.6992 -2.3074 -1.8760
 8394TIP3   OH246596   6.123   1.707  11.673 -0.4309 -0.1768 -0.1618
 8394TIP3    H146597   6.101   1.649  11.601 -0.0297 -0.0964 -0.3519
 8394TIP3    H246598   6.184   1.771  11.635 -0.1099 -0.2185  0.2764
 8395TIP3   OH246599   2.224   5.062   1.002  0.1148  0.9047  0.2522
 8395TIP3    H146600   2.164   4.988   1.015  3.3700 -1.9996  0.4605
 8395TIP3    H246601   2.190   5.107   0.925 -2.1518 -0.7287  0.1877
 8396TIP3   OH246602   1.347   1.891   4.408  0.0232 -0.0019  0.0492
 8396TIP3    H146603   1.310   1.949   4.474 -1.6207 -1.3644  0.3970
 8396TIP3    H246604   1.371   1.812   4.456  1.4123  0.0170 -0.5589
 8397TIP3   OH246605   1.588   3.734  11.109  0.8090  0.1089  0.3463
 8397TIP3    H146606   1.629   3.713  11.193  1.8236  0.3921 -0.0702
 8397TIP3    H246607   1.609   3.826  11.094  0.2535  0.1820 -0.0207
 8398TIP3   OH246608   2.282   1.208   5.807  0.2054  0.1440  0.1504
 8398TIP3    H146609   2.246   1.154   5.877 -0.8299 -1.2998 -1.4286
 8398TIP3    H246610   2.377   1.198   5.814  0.0642 -0.8599  0.6804
 8399TIP3   OH246611   1.087   5.022   6.294  0.2445 -0.2147  0.0670
 8399TIP3    H146612   1.109   4.931   6.314 -1.1453 -0.6031 -0.0573
 8399TIP3    H246613   0.997   5.033   6.325 -0.2285  0.6032 -1.4691
 8400TIP3   OH246614   4.919   5.920  14.342 -0.4172  0.4561 -0.6271
 8400TIP3    H146615   4.882   5.910  14.254 -2.2138 -0.3564  0.1696
 8400TIP3    H246616   4.844   5.911  14.401  0.7201  1.1418  1.0002
 8401TIP3   OH246617   1.290   5.784  12.497  0.1338  0.2965 -0.5981
 8401TIP3    H146618   1.342   5.712  12.461  0.3737  0.8984 -1.4896
 8401TIP3    H246619   1.336   5.863  12.471 -1.1207  0.8423 -1.2791
 8402TIP3   OH246620   0.960   4.162  16.503 -0.0738  0.0493  0.1747
 8402TIP3    H146621   1.048   4.189  16.531 -0.8022  3.8914 -0.7097
 8402TIP3    H246622   0.908   4.162  16.583  0.0742  0.8722  0.2791
 8403TIP3   OH246623   6.627   0.194  14.544  0.2395  0.1217 -0.3673
 8403TIP3    H146624   6.595   0.267  14.491  1.0717 -0.5389 -1.8619
 8403TIP3    H246625   6.685   0.234  14.608  1.9238  0.7121 -2.1456
 8404TIP3   OH246626   0.539   3.047   3.223  0.6560  0.0858  0.1395
 8404TIP3    H146627   0.557   3.136   3.253  4.0310 -1.3089  3.1067
 8404TIP3    H246628   0.602   3.032   3.153  0.7466 -0.2255  0.2847
 8405TIP3   OH246629   3.975   1.726   0.484  0.6538 -0.5579  0.3045
 8405TIP3    H146630   4.004   1.644   0.523  0.2442 -0.2475  1.2922
 8405TIP3    H246631   4.056   1.770   0.456  0.8106 -1.8851 -1.5353
 8406TIP3   OH246632   3.595   1.527  12.226 -0.3241 -0.1214 -0.1558
 8406TIP3    H146633   3.627   1.454  12.279 -0.6399  0.8530  1.4064
 8406TIP3    H246634   3.512   1.552  12.266 -1.0181  0.1014 -1.6405
 8407TIP3   OH246635   2.408   5.889  13.398 -0.4528 -0.6844  0.4128
 8407TIP3    H146636   2.460   5.810  13.383  0.3941  0.0963 -0.9957
 8407TIP3    H246637   2.350   5.895  13.322  0.5555  0.8217 -0.3038
 8408TIP3   OH246638   5.851   3.251  16.529 -0.6571 -0.4192  0.4442
 8408TIP3    H146639   5.899   3.277  16.608 -0.2701 -0.7751  0.3284
 8408TIP3    H246640   5.856   3.328  16.472 -1.0691 -0.1059  0.8223
 8409TIP3   OH246641   1.972   0.849   4.347  0.0680  0.1647 -0.3535
 8409TIP3    H146642   2.017   0.932   4.365  1.3131 -0.5991  0.1874
 8409TIP3    H246643   1.930   0.827   4.430 -1.0922  0.7276 -0.7751
 8410TIP3   OH246644   5.755   5.730  16.328 -0.1478  0.4189  0.0827
 8410TIP3    H146645   5.812   5.723  16.251  0.4849 -0.8723  0.6349
 8410TIP3    H246646   5.733   5.823  16.333 -1.7344  0.3054 -2.7295
 8411TIP3   OH246647   1.448   6.678  12.162  0.1354 -0.0379  0.5257
 8411TIP3    H146648   1.384   6.625  12.115  2.0301 -1.3511 -0.7592
 8411TIP3    H246649   1.507   6.613  12.201  1.6776  1.0981  0.1630
 8412TIP3   OH246650   3.095   0.684   1.608 -0.3162  0.1730 -0.1407
 8412TIP3    H146651   3.162   0.671   1.675 -0.6856  2.2221  0.6927
 8412TIP3    H246652   3.137   0.657   1.526  0.6086 -1.0779  0.7101
 8413TIP3   OH246653   3.748   3.094   4.605 -0.6144  0.2980 -0.9180
 8413TIP3    H146654   3.781   3.182   4.622  3.1100 -1.2681  1.2850
 8413TIP3    H246655   3.762   3.080   4.511  0.3111  1.4940 -0.9795
 8414TIP3   OH246656   6.558   6.409  15.728 -0.0778 -0.2028 -0.1549
 8414TIP3    H146657   6.513   6.361  15.797 -1.4600 -1.9936 -2.2052
 8414TIP3    H246658   6.489   6.460  15.685  0.6308  0.3709 -0.6314
 8415TIP3   OH246659   1.031   0.670  15.483  0.4401 -0.4269  0.3773
 8415TIP3    H146660   1.004   0.685  15.574  1.5110 -1.1738  0.8435
 8415TIP3    H246661   1.120   0.635  15.490  0.6382 -0.2515 -0.9792
 8416TIP3   OH246662   3.909   3.220  15.281 -0.6333 -0.3961 -0.7396
 8416TIP3    H146663   3.937   3.201  15.371 -1.4447 -0.1968 -0.4435
 8416TIP3    H246664   3.958   3.156  15.227  0.7901  0.2780 -0.3010
 8417TIP3   OH246665   0.173   3.636   4.433  0.3067 -1.0016  0.0544
 8417TIP3    H146666   0.084   3.667   4.416  0.4833 -1.3978 -1.7770
 8417TIP3    H246667   0.193   3.671   4.520 -0.9727  0.6197 -0.2295
 8418TIP3   OH246668   5.976   3.385   4.001 -0.4832  0.1333  0.0750
 8418TIP3    H146669   5.949   3.466   3.958  0.4216 -0.4839 -1.7515
 8418TIP3    H246670   6.061   3.406   4.040 -0.1830  0.0509 -0.5172
 8419TIP3   OH246671   0.071   1.421  14.365  0.3927  1.0061 -0.3695
 8419TIP3    H146672   0.129   1.355  14.402 -0.5174  0.5962  0.3831
 8419TIP3    H246673   0.129   1.493  14.339  1.2839  0.3467 -0.2304
 8420TIP3   OH246674   5.403   0.715   2.251 -0.2703  0.2985  0.0359
 8420TIP3    H146675   5.320   0.679   2.283 -2.1675  3.0229 -1.3558
 8420TIP3    H246676   5.429   0.656   2.180 -2.1346  0.4475 -0.8265
 8421TIP3   OH246677   4.522   1.836  14.540  0.0800 -0.4541  0.0813
 8421TIP3    H146678   4.495   1.868  14.626 -0.6012 -0.1446 -0.2396
 8421TIP3    H246679   4.446   1.787  14.508  0.3561 -0.6239 -0.3183
 8422TIP3   OH246680   1.519   6.027  14.116 -0.2223 -0.0045 -0.1246
 8422TIP3    H146681   1.449   6.050  14.055 -0.5076 -1.4523 -0.3837
 8422TIP3    H246682   1.478   5.967  14.179  0.8308 -1.1463 -0.4816
 8423TIP3   OH246683   6.484   2.019   4.061  0.1859  0.2142  0.0649
 8423TIP3    H146684   6.568   2.011   4.106  0.6525 -0.9113 -0.9339
 8423TIP3    H246685   6.420   1.989   4.124  0.5820  0.6681  0.6910
 8424TIP3   OH246686   0.714   1.721  15.577  0.0183  0.3301  0.0799
 8424TIP3    H146687   0.637   1.671  15.603 -0.0149  1.2009  1.7898
 8424TIP3    H246688   0.778   1.705  15.647  1.7132 -0.9948 -1.6760
 8425TIP3   OH246689   1.766   3.754   3.046 -0.7680  0.2648  0.3011
 8425TIP3    H146690   1.815   3.700   2.983 -0.6301 -1.0823  1.5093
 8425TIP3    H246691   1.794   3.844   3.028  2.1816 -0.4274  0.8976
 8426TIP3   OH246692   1.336   5.725  13.724  0.5254  0.2143  0.0345
 8426TIP3    H146693   1.399   5.758  13.660 -1.4035 -0.4633 -2.3467
 8426TIP3    H246694   1.252   5.760  13.696 -0.5754 -1.0772  1.5194
 8427TIP3   OH246695   6.559   0.826   0.954  0.0440  0.1266 -0.3365
 8427TIP3    H146696   6.628   0.864   1.008 -1.1035 -0.2638  1.4848
 8427TIP3    H246697   6.534   0.746   1.001 -0.7730 -0.4080 -1.6400
 8428TIP3   OH246698   2.101   2.297  12.254  0.3138 -0.7935  0.5491
 8428TIP3    H146699   2.051   2.324  12.177  0.2509  2.0842  1.4910
 8428TIP3    H246700   2.042   2.311  12.328  1.3867 -0.5662  1.3948
 8429TIP3   OH246701   3.887   0.322  11.086  0.1230  0.6185  0.0988
 8429TIP3    H146702   3.878   0.251  11.023  0.2076  1.3786 -0.7995
 8429TIP3    H246703   3.798   0.349  11.105  0.1093  2.3276 -2.0074
 8430TIP3   OH246704   6.262   1.548   1.854  0.1765  0.3847 -0.4218
 8430TIP3    H146705   6.259   1.530   1.760 -1.5006  2.5611 -0.8760
 8430TIP3    H246706   6.171   1.536   1.883  0.5114  0.5768  0.7606
 8431TIP3   OH246707   1.234   0.742   1.111  0.1972  0.6099 -0.3977
 8431TIP3    H146708   1.283   0.672   1.067  1.1440  0.7011  0.4647
 8431TIP3    H246709   1.177   0.777   1.043  3.5946  2.6593 -2.5171
 8432TIP3   OH246710   0.211   6.122  14.170  0.1063  0.0288  0.3174
 8432TIP3    H146711   0.123   6.109  14.136  0.6108  0.0210 -1.0474
 8432TIP3    H246712   0.225   6.049  14.231 -0.8731  0.1331  0.6817
 8433TIP3   OH246713   4.466   5.409  11.179 -0.4367 -0.1047  0.1940
 8433TIP3    H146714   4.418   5.369  11.252  0.3176 -1.1373  0.1438
 8433TIP3    H246715   4.555   5.376  11.188  0.0863  1.1557 -0.1779
 8434TIP3   OH246716   1.467   3.115  12.802 -0.1872 -0.1360 -0.0767
 8434TIP3    H146717   1.408   3.043  12.781  0.4800 -0.9907  0.8432
 8434TIP3    H246718   1.411   3.180  12.844 -0.4235 -1.1558  1.2612
 8435TIP3   OH246719   1.572   1.465   0.852 -0.3448 -0.1696  0.3268
 8435TIP3    H146720   1.507   1.535   0.844  0.3879  0.7221  1.6988
 8435TIP3    H246721   1.530   1.388   0.815 -0.7003  1.2637 -2.4970
 8436TIP3   OH246722   4.065   1.015   4.703  0.2267  0.2013 -0.4302
 8436TIP3    H146723   3.977   0.983   4.723 -0.1639  0.3669 -1.7393
 8436TIP3    H246724   4.115   1.000   4.783 -0.9414 -0.0634  0.2798
 8437TIP3   OH246725   3.399   5.323   4.077  0.3497  0.2712 -0.4790
 8437TIP3    H146726   3.433   5.244   4.120 -1.3612 -0.2149  0.0496
 8437TIP3    H246727   3.381   5.295   3.987 -2.8328 -0.8358  0.3629
 8438TIP3   OH246728   1.564   0.311  12.342 -0.3476 -0.2214  0.3326
 8438TIP3    H146729   1.587   0.282  12.431 -1.0408 -0.9854  0.2742
 8438TIP3    H246730   1.648   0.321  12.298 -0.0502 -3.2428  0.0342
 8439TIP3   OH246731   2.163   4.875  13.990 -0.0993 -0.1689  0.0185
 8439TIP3    H146732   2.252   4.845  13.970 -0.5795 -1.4158 -0.3384
 8439TIP3    H246733   2.107   4.802  13.965 -1.0969 -0.1353  2.0114
 8440TIP3   OH246734   4.130   1.855   2.890  0.4494  0.0530  0.0231
 8440TIP3    H146735   4.108   1.786   2.828 -3.0269  1.4649 -0.5872
 8440TIP3    H246736   4.217   1.884   2.864  0.0923 -1.0082 -2.7010
 8441TIP3   OH246737   0.338   4.233   2.647  0.1951 -0.0300 -0.2332
 8441TIP3    H146738   0.252   4.201   2.619 -0.8777  0.3695  2.3752
 8441TIP3    H246739   0.367   4.170   2.712  0.9427  0.9309  0.3781
 8442TIP3   OH246740   5.197   6.362  11.951  0.3581  0.2392  0.5469
 8442TIP3    H146741   5.285   6.384  11.920  0.2239 -1.3138 -1.0485
 8442TIP3    H246742   5.189   6.410  12.034  1.5144  2.9004 -0.7411
 8443TIP3   OH246743   3.173   4.015   3.236  0.4393  0.1863  0.8384
 8443TIP3    H146744   3.124   4.094   3.216  1.2075  0.2212 -1.0929
 8443TIP3    H246745   3.192   4.021   3.330 -0.9816  1.4210  1.0651
 8444TIP3   OH246746   1.033   0.725  11.337 -0.0522 -0.3193  0.5131
 8444TIP3    H146747   1.056   0.769  11.419 -0.6909  1.8300 -0.3807
 8444TIP3    H246748   0.939   0.706  11.345 -0.2581  0.4575  0.0682
 8445TIP3   OH246749   4.205   1.851  16.672 -0.3738 -0.9262 -0.6267
 8445TIP3    H146750   4.166   1.798  16.603 -0.5739 -2.3320  0.4929
 8445TIP3    H246751   4.213   1.790  16.746  1.6730 -0.0359 -0.0488
 8446TIP3   OH246752   1.011   5.472  14.202 -0.4529  0.3375  0.5312
 8446TIP3    H146753   1.004   5.465  14.297 -1.2061  1.3212  0.5740
 8446TIP3    H246754   1.030   5.565  14.186 -3.2326  0.8572 -0.3580
 8447TIP3   OH246755   0.801   2.665  12.268 -0.3086 -0.1433 -0.3635
 8447TIP3    H146756   0.734   2.601  12.248  0.0104 -0.0650 -1.8034
 8447TIP3    H246757   0.806   2.666  12.364 -2.9745  0.5155 -0.1509
 8448TIP3   OH246758   1.364   3.825   5.600  0.4919  0.0830  0.1985
 8448TIP3    H146759   1.294   3.832   5.535  1.2353 -0.0383 -0.6478
 8448TIP3    H246760   1.404   3.912   5.601  1.8373 -0.4760 -1.1201
 8449TIP3   OH246761   0.800   2.288   3.692 -0.0249  0.0602  0.6927
 8449TIP3    H146762   0.861   2.250   3.755  0.7493 -0.6480 -0.4499
 8449TIP3    H246763   0.782   2.217   3.630 -1.6682  0.3961  0.7389
 8450TIP3   OH246764   1.100   2.773   4.277 -0.0827  0.4691 -0.5956
 8450TIP3    H146765   1.124   2.837   4.210  1.6283 -0.2293 -0.6871
 8450TIP3    H246766   1.167   2.781   4.344 -0.3923 -0.5467 -0.1451
 8451TIP3   OH246767   1.695   1.251   1.160 -0.2964 -0.1242 -0.0982
 8451TIP3    H146768   1.790   1.246   1.160 -0.1917  1.2572 -1.7416
 8451TIP3    H246769   1.667   1.165   1.128  0.3754 -0.5116  0.3186
 8452TIP3   OH246770   0.361   5.418   0.483  0.3099  0.9817 -0.2265
 8452TIP3    H146771   0.281   5.423   0.431  0.2401  2.0907 -0.0278
 8452TIP3    H246772   0.361   5.498   0.536  0.6801  0.1830  1.0488
 8453TIP3   OH246773   5.684   6.606  14.112  0.8150 -0.0544  0.2054
 8453TIP3    H146774   5.691   6.673  14.180 -0.1363 -0.1255  0.3761
 8453TIP3    H246775   5.691   6.655  14.030 -0.1217  0.3008  0.3246
 8454TIP3   OH246776   5.145   3.946  15.044  0.1138  0.1654 -0.3174
 8454TIP3    H146777   5.064   3.974  15.002 -0.5273 -1.4311 -0.2175
 8454TIP3    H246778   5.210   3.947  14.973 -0.1775  0.6833 -0.5826
 8455TIP3   OH246779   5.113   1.389   2.298  0.5645 -0.4225  0.2471
 8455TIP3    H146780   5.121   1.311   2.353 -1.5901  0.0106  1.2715
 8455TIP3    H246781   5.164   1.456   2.344 -0.8086 -0.1991  1.5359
 8456TIP3   OH246782   2.651   5.416   2.508  0.9298 -0.0830 -0.1596
 8456TIP3    H146783   2.726   5.458   2.466  1.2716 -1.2488 -0.7537
 8456TIP3    H246784   2.686   5.334   2.545  0.0177 -0.5119 -0.2014
 8457TIP3   OH246785   0.577   4.455  11.120 -0.1679 -0.1977 -0.5851
 8457TIP3    H146786   0.647   4.404  11.079  0.5865 -0.5661  1.0750
 8457TIP3    H246787   0.525   4.390  11.167 -0.4445  0.3022 -0.1902
 8458TIP3   OH246788   5.108   2.871  17.067 -0.3471 -0.7914  0.7933
 8458TIP3    H146789   5.143   2.831  16.987  0.9124 -1.5979  1.7168
 8458TIP3    H246790   5.053   2.803  17.106 -0.3256 -0.6853  1.0113
 8459TIP3   OH246791   3.195   4.658  17.028 -0.2988  0.4669  0.4457
 8459TIP3    H146792   3.226   4.601  16.958 -2.0228 -0.3216  0.2613
 8459TIP3    H246793   3.271   4.710  17.053  0.9004 -0.7646 -0.5148
 8460TIP3   OH246794   3.241   1.559   0.009 -0.5810  0.8110  0.3456
 8460TIP3    H146795   3.307   1.566  -0.060 -1.5077 -1.0676 -0.8271
 8460TIP3    H246796   3.196   1.643   0.009 -0.2327  1.0168 -1.0292
 8461TIP3   OH246797   5.160   1.326  12.880  0.1875 -0.3662  0.2098
 8461TIP3    H146798   5.248   1.299  12.855  0.1179 -0.9968  0.6235
 8461TIP3    H246799   5.161   1.421  12.872  1.0296 -0.3347  0.6145
 8462TIP3   OH246800   4.948   5.902   2.177 -0.0543 -0.5950  0.0982
 8462TIP3    H146801   4.913   5.859   2.099 -0.2838  0.0189 -0.1368
 8462TIP3    H246802   4.898   5.983   2.184  0.8458 -0.0421  0.1562
 8463TIP3   OH246803   1.214   4.615   3.943  0.0770 -0.1695 -0.2798
 8463TIP3    H146804   1.282   4.633   4.007 -1.4238  0.1231  1.3034
 8463TIP3    H246805   1.257   4.626   3.858  1.4575  2.1873  0.6282
 8464TIP3   OH246806   6.370   1.427  15.549 -0.1179  0.2077  0.1129
 8464TIP3    H146807   6.406   1.490  15.487  0.1310 -1.8156 -1.9467
 8464TIP3    H246808   6.282   1.408  15.516 -0.1123 -0.6525  0.5526
 8465TIP3   OH246809   2.445   1.602  13.981  0.5860  0.5884 -0.6582
 8465TIP3    H146810   2.517   1.621  14.042 -0.1672 -0.0157  0.4428
 8465TIP3    H246811   2.367   1.598  14.036 -0.0407 -0.5110 -1.5922
 8466TIP3   OH246812   3.599   1.897  15.304 -0.1463  0.3933 -0.6675
 8466TIP3    H146813   3.543   1.841  15.251 -0.1644 -2.1348  1.8212
 8466TIP3    H246814   3.644   1.838  15.363 -0.8797  3.0071  2.8659
 8467TIP3   OH246815   2.061   4.737  13.160 -0.1444  0.1457 -0.3978
 8467TIP3    H146816   2.036   4.669  13.223  0.8708  0.6992  0.6353
 8467TIP3    H246817   2.091   4.810  13.214  1.3883  0.3984 -1.5222
 8468TIP3   OH246818   6.145   1.941   2.713  0.1069 -0.2923  0.0223
 8468TIP3    H146819   6.098   1.996   2.650 -1.8892 -1.6145  0.2722
 8468TIP3    H246820   6.220   1.994   2.739 -0.7867  1.6013 -1.0243
 8469TIP3   OH246821   0.654   1.007  13.455 -0.0017  0.3320 -0.0690
 8469TIP3    H146822   0.737   0.970  13.485  0.1091  1.5380  1.2547
 8469TIP3    H246823   0.652   0.991  13.361  0.7955 -1.4873  0.1987
 8470TIP3   OH246824   4.014   5.236   6.650  0.2314 -0.5812 -0.1225
 8470TIP3    H146825   4.007   5.211   6.742  0.7184  2.1242  0.7157
 8470TIP3    H246826   3.925   5.227   6.616 -0.5089  0.8282  1.3351
 8471TIP3   OH246827   6.183   1.739   0.852 -0.1664  0.0235 -0.5315
 8471TIP3    H146828   6.198   1.725   0.946 -0.7641  1.9108 -0.1084
 8471TIP3    H246829   6.157   1.653   0.819 -1.1037 -0.4374  1.2798
 8472TIP3   OH246830   5.199   0.176   4.086  0.1360  0.2259 -0.0860
 8472TIP3    H146831   5.173   0.240   4.152 -3.2587 -0.8722 -0.1923
 8472TIP3    H246832   5.161   0.094   4.115  0.8612 -0.8627 -2.0509
 8473TIP3   OH246833   4.408   4.953  12.305  0.0868  0.2407  0.1134
 8473TIP3    H146834   4.330   4.978  12.355  0.4109  0.2412  0.6173
 8473TIP3    H246835   4.373   4.906  12.229 -0.4424  0.8334 -0.0170
 8474TIP3   OH246836   5.145   5.754  13.624  0.1907 -0.1635 -0.4731
 8474TIP3    H146837   5.231   5.712  13.622  0.5579  0.6051 -1.8664
 8474TIP3    H246838   5.086   5.692  13.580  0.1581 -0.3888 -0.1205
 8475TIP3   OH246839   1.888   0.489  14.513 -0.1313  0.4196  0.2636
 8475TIP3    H146840   1.953   0.431  14.555 -1.4935 -0.2893  1.4679
 8475TIP3    H246841   1.872   0.557  14.578  0.7090  1.6447 -0.7547
 8476TIP3   OH246842   3.880   1.409   4.741  0.4047  0.3726  0.0505
 8476TIP3    H146843   3.788   1.432   4.754 -0.0432 -1.7441  0.8841
 8476TIP3    H246844   3.884   1.381   4.650  0.6727  2.2591 -0.5647
 8477TIP3   OH246845   5.520   3.102  15.599  0.3667 -0.1989 -0.2036
 8477TIP3    H146846   5.488   3.012  15.593  3.1192 -1.2135 -1.7716
 8477TIP3    H246847   5.492   3.132  15.685 -2.0932 -1.9069 -0.3026
 8478TIP3   OH246848   1.674   3.559   3.604  1.2431  0.2641  0.8217
 8478TIP3    H146849   1.654   3.467   3.586  1.4976 -0.1051  2.3335
 8478TIP3    H246850   1.637   3.575   3.690  2.8807  1.0311  1.4168
 8479TIP3   OH246851   5.094   1.274   2.683  0.6467 -0.3330  0.5629
 8479TIP3    H146852   5.002   1.274   2.657  0.4840 -0.3555  1.1442
 8479TIP3    H246853   5.139   1.236   2.607  0.3609  1.0420 -0.3415
 8480TIP3   OH246854   3.786   6.508   2.020  0.5979  0.4750  0.6427
 8480TIP3    H146855   3.709   6.468   1.979  0.5900  0.9687  0.1661
 8480TIP3    H246856   3.751   6.551   2.098  0.8334 -1.7057  2.0267
 8481TIP3   OH246857   3.916   5.794   6.061  0.4036 -0.1922 -0.5048
 8481TIP3    H146858   3.909   5.847   6.140  1.0140 -1.1374  0.2065
 8481TIP3    H246859   3.846   5.730   6.070 -0.1651  0.3149 -1.2335
 8482TIP3   OH246860   3.300   1.368   0.242 -0.4244  0.3772  0.0096
 8482TIP3    H146861   3.300   1.455   0.201 -1.4372  0.8252  0.9409
 8482TIP3    H246862   3.213   1.358   0.278 -0.2327 -0.9370  0.1441
 8483TIP3   OH246863   4.664   0.675   5.465 -0.4232  0.0523 -0.5371
 8483TIP3    H146864   4.727   0.615   5.425  0.4238  0.8271 -0.3855
 8483TIP3    H246865   4.666   0.753   5.410 -1.3641  0.0313 -0.6124
 8484TIP3   OH246866   0.800   0.204   2.859 -0.5836 -0.4107  0.7006
 8484TIP3    H146867   0.832   0.285   2.819  0.5909 -1.9969 -1.7701
 8484TIP3    H246868   0.851   0.197   2.940  3.1146 -1.0693 -1.4304
 8485TIP3   OH246869   5.986   4.522  14.104 -0.0708 -0.1067  0.1678
 8485TIP3    H146870   5.932   4.533  14.182 -1.4324 -2.8016 -0.2520
 8485TIP3    H246871   6.019   4.609  14.084 -0.5448  0.8509  3.1041
 8486TIP3   OH246872   2.240   1.917  14.649  0.1310  0.1346 -0.4137
 8486TIP3    H146873   2.195   1.844  14.691  0.4711  0.3082  0.2629
 8486TIP3    H246874   2.215   1.910  14.556  0.4546 -1.0519 -0.4302
 8487TIP3   OH246875   3.939   2.952  13.454 -0.6063  0.7563 -0.2589
 8487TIP3    H146876   3.875   2.918  13.516 -0.8386 -1.1422 -1.4562
 8487TIP3    H246877   4.016   2.973  13.507 -0.7635 -0.9018  0.6898
 8488TIP3   OH246878   3.595   1.849   3.835 -0.5092  0.4977 -0.3451
 8488TIP3    H146879   3.580   1.942   3.850  0.3952  0.5972 -0.0287
 8488TIP3    H246880   3.509   1.809   3.845 -0.6960  1.1398  0.7042
 8489TIP3   OH246881   3.367   6.602  13.753 -0.1137 -0.7412  0.2543
 8489TIP3    H146882   3.275   6.615  13.732 -0.2416 -0.7293  0.8005
 8489TIP3    H246883   3.367   6.533  13.820  0.4775 -3.0526 -1.9809
 8490TIP3   OH246884   4.571   3.793   4.667 -0.3221 -0.3837  0.1136
 8490TIP3    H146885   4.520   3.873   4.652 -0.2196 -0.3465 -0.0409
 8490TIP3    H246886   4.505   3.725   4.680 -0.4614 -0.6412 -1.5930
 8491TIP3   OH246887   2.692   2.744  15.444  0.2418 -0.1872  0.1235
 8491TIP3    H146888   2.663   2.686  15.514  0.3908 -0.6175 -0.1648
 8491TIP3    H246889   2.777   2.777  15.474 -0.2819  0.6336  0.7168
 8492TIP3   OH246890   6.068   1.384  15.472 -0.4610  0.2490 -0.2480
 8492TIP3    H146891   6.008   1.388  15.397  0.2700  0.8504 -0.8104
 8492TIP3    H246892   6.044   1.302  15.517 -1.1335  0.0524 -0.9361
 8493TIP3   OH246893   6.675   3.683   5.099  0.0481 -0.2374  0.5033
 8493TIP3    H146894   6.766   3.711   5.109 -0.2326  1.2805 -0.8859
 8493TIP3    H246895   6.628   3.731   5.168  0.0308  0.4459  0.0281
 8494TIP3   OH246896   4.122   4.209   1.296 -0.3049 -0.4834  0.0348
 8494TIP3    H146897   4.054   4.218   1.229 -1.1089  1.3102  1.0475
 8494TIP3    H246898   4.175   4.288   1.287 -0.4972 -0.1537  1.5830
 8495TIP3   OH246899   5.657   5.929  11.180 -0.0755 -0.3494  0.1470
 8495TIP3    H146900   5.643   5.835  11.168 -0.4358 -0.5210  1.6055
 8495TIP3    H246901   5.570   5.963  11.203  0.3131  0.0711  1.0575
 8496TIP3   OH246902   4.040   6.291  15.846 -0.3879  0.2402 -0.1246
 8496TIP3    H146903   4.012   6.223  15.784 -1.7918 -0.1924  0.9239
 8496TIP3    H246904   3.978   6.363  15.832 -0.0287  0.5774  0.0102
 8497TIP3   OH246905   6.091   2.533  13.844  0.0608  0.5297 -0.5488
 8497TIP3    H146906   6.047   2.448  13.852  2.1889 -0.6475 -0.5127
 8497TIP3    H246907   6.039   2.582  13.781 -1.9623 -0.2812  0.4308
 8498TIP3   OH246908   4.642   5.771  12.792  0.4578 -0.2674  0.3727
 8498TIP3    H146909   4.661   5.843  12.733  0.0947  0.7405  1.4445
 8498TIP3    H246910   4.668   5.692  12.744 -0.4939  0.4455 -1.4061
 8499TIP3   OH246911   6.739   5.441  15.981 -0.3337  0.4358  0.3297
 8499TIP3    H146912   6.820   5.404  15.945 -0.4619  0.4690  0.0055
 8499TIP3    H246913   6.744   5.421  16.074  0.9510  2.0866  0.6598
 8500TIP3   OH246914   4.969   2.857   2.477  0.7515 -0.4141  0.0186
 8500TIP3    H146915   4.888   2.817   2.445  1.0333 -0.9001 -0.0910
 8500TIP3    H246916   4.972   2.943   2.434  0.4314 -0.5000 -0.1764
 8501TIP3   OH246917   6.420   4.548  16.626 -0.4653 -0.0390 -0.0922
 8501TIP3    H146918   6.502   4.588  16.596 -1.0551 -0.3969 -2.3979
 8501TIP3    H246919   6.354   4.617  16.617 -0.5749  0.0155  1.0038
 8502TIP3   OH246920   1.513   6.394   1.959  0.0260 -0.0576  0.0880
 8502TIP3    H146921   1.570   6.453   1.910 -0.7051  0.2179 -0.4472
 8502TIP3    H246922   1.515   6.428   2.049  0.9883 -0.2738  0.1600
 8503TIP3   OH246923   2.087   0.079  16.299 -0.6695  0.3469  0.4623
 8503TIP3    H146924   2.065   0.091  16.391 -0.3524 -0.3607  0.6349
 8503TIP3    H246925   2.177   0.113  16.291 -0.2756 -0.6126  0.6644
 8504TIP3   OH246926   0.349   5.229   6.149 -0.0526  0.5956 -0.1678
 8504TIP3    H146927   0.332   5.286   6.224 -0.3487 -0.7151  0.8012
 8504TIP3    H246928   0.435   5.191   6.166 -1.0814 -1.5141  0.7893
 8505TIP3   OH246929   3.962   4.746   3.875 -0.2350 -0.6339  0.1396
 8505TIP3    H146930   3.914   4.814   3.923 -0.5682  0.3873 -1.5660
 8505TIP3    H246931   4.054   4.769   3.887 -0.3665  0.7613 -1.2503
 8506TIP3   OH246932   2.412   5.024  11.475  0.1499 -0.0652  0.8469
 8506TIP3    H146933   2.321   4.998  11.492  0.1897 -0.5355  0.3670
 8506TIP3    H246934   2.451   4.947  11.432  0.1032  0.9705 -1.1685
 8507TIP3   OH246935   0.955   0.914  13.761 -0.1644  0.6966 -0.5054
 8507TIP3    H146936   1.006   0.907  13.680 -1.0431  0.2800 -1.0313
 8507TIP3    H246937   0.872   0.871  13.741 -0.2529  0.2656  0.7348
 8508TIP3   OH246938   5.452   5.201   4.827 -0.4062  0.2208 -0.2501
 8508TIP3    H146939   5.540   5.179   4.857 -0.5522  0.0367  0.0454
 8508TIP3    H246940   5.419   5.263   4.891 -2.3247 -3.2820  2.5154
 8509TIP3   OH246941   1.715   2.899   5.300  0.2025  0.2381 -0.6144
 8509TIP3    H146942   1.626   2.929   5.319  0.2150  0.0267 -0.2111
 8509TIP3    H246943   1.763   2.912   5.383  0.1081 -1.2471 -0.3080
 8510TIP3   OH246944   6.135   3.830   3.239 -0.2441  0.3997 -0.0791
 8510TIP3    H146945   6.160   3.901   3.297  1.2071 -0.1894  0.0573
 8510TIP3    H246946   6.052   3.797   3.275 -0.4102  1.3563  0.4357
 8511TIP3   OH246947   1.158   3.839   3.854  0.2135 -0.7126  0.9214
 8511TIP3    H146948   1.126   3.783   3.924  0.7067 -2.3614 -0.1090
 8511TIP3    H246949   1.090   3.835   3.787 -1.0514  2.1729  1.8498
 8512TIP3   OH246950   1.460   3.376   0.802 -0.3715 -0.1991  0.4072
 8512TIP3    H146951   1.431   3.321   0.728 -1.7283  0.3786  0.4908
 8512TIP3    H246952   1.507   3.315   0.859 -0.4155 -0.9292 -0.3063
 8513TIP3   OH246953   6.088   3.767  12.709  0.4710  0.1760  0.1853
 8513TIP3    H146954   6.041   3.828  12.653  0.4954  0.8399  0.8669
 8513TIP3    H246955   6.025   3.697  12.728  0.9949 -0.9972 -2.0684
 8514TIP3   OH246956   0.302   6.279   2.726  0.3239 -0.5208  0.6497
 8514TIP3    H146957   0.347   6.327   2.795 -0.4130 -2.4243  2.5693
 8514TIP3    H246958   0.313   6.186   2.749 -0.0689 -1.2407 -1.7303
 8515TIP3   OH246959   3.492   1.400  11.295 -0.1938  0.1253 -0.1285
 8515TIP3    H146960   3.522   1.349  11.220  0.6426 -2.3016  1.6968
 8515TIP3    H246961   3.397   1.410  11.281  0.3373  2.5738 -2.9721
 8516TIP3   OH246962   4.856   5.448   3.297 -0.0558 -0.4398  0.1967
 8516TIP3    H146963   4.901   5.421   3.377  0.8942 -0.1217 -0.2163
 8516TIP3    H246964   4.824   5.366   3.259  2.4859 -1.0525 -0.8532
 8517TIP3   OH246965   5.775   3.156  13.134  0.1655 -0.0426  0.1002
 8517TIP3    H146966   5.694   3.188  13.094  0.9352 -0.6808 -2.1010
 8517TIP3    H246967   5.774   3.192  13.222 -2.6069 -0.1755  0.2088
 8518TIP3   OH246968   2.170   6.630  16.512 -0.3521  0.1347 -0.5209
 8518TIP3    H146969   2.109   6.624  16.439  0.7793  3.0626 -1.8426
 8518TIP3    H246970   2.123   6.680  16.579 -0.2156  0.4086 -0.6269
 8519TIP3   OH246971   5.437   0.710  12.383  0.3920  0.4492 -0.2888
 8519TIP3    H146972   5.455   0.690  12.475  1.1556 -0.6568 -0.6663
 8519TIP3    H246973   5.523   0.711  12.341 -0.0516 -0.5532 -1.2738
 8520TIP3   OH246974   6.201   3.455   1.438 -0.0746 -0.6128 -0.2724
 8520TIP3    H146975   6.261   3.433   1.367 -0.2196 -0.9507 -0.2948
 8520TIP3    H246976   6.221   3.392   1.507  0.0969 -0.2560  0.0039
 8521TIP3   OH246977   5.794   2.778   3.292  0.1108  0.6382  0.2841
 8521TIP3    H146978   5.868   2.736   3.249 -1.5813 -2.1101 -0.2205
 8521TIP3    H246979   5.778   2.857   3.241  0.8027 -0.3300 -1.5235
 8522TIP3   OH246980   6.684   4.111   1.088  0.4327 -0.3848 -0.2090
 8522TIP3    H146981   6.617   4.172   1.058  1.4550  0.6013 -0.5421
 8522TIP3    H246982   6.700   4.054   1.013 -1.0057 -1.5569  0.3132
 8523TIP3   OH246983   4.420   0.930   2.616 -0.0072  0.5694  0.3917
 8523TIP3    H146984   4.333   0.959   2.642 -0.8517 -1.7001  0.3665
 8523TIP3    H246985   4.410   0.903   2.524  1.2331  2.0619 -0.2262
 8524TIP3   OH246986   4.455   4.411  15.483 -0.4673 -0.2758 -0.7532
 8524TIP3    H146987   4.444   4.408  15.578  0.5925 -1.1477 -0.6383
 8524TIP3    H246988   4.507   4.490  15.467 -1.3029  0.2982 -0.6972
 8525TIP3   OH246989   5.031   4.559  12.074  0.1224 -0.2858 -0.1025
 8525TIP3    H146990   5.090   4.545  12.148 -0.1981 -2.5267 -0.2188
 8525TIP3    H246991   4.947   4.582  12.113 -0.2142 -2.0920  0.2993
 8526TIP3   OH246992   1.922   0.806   2.977 -0.5748  0.1174 -0.1119
 8526TIP3    H146993   1.861   0.880   2.978 -1.2261 -0.3179 -2.2985
 8526TIP3    H246994   1.999   0.838   3.023 -1.3544  1.6872  0.1645
 8527TIP3   OH246995   5.097   5.371  12.115  0.2044 -0.2970  0.4552
 8527TIP3    H146996   5.173   5.335  12.160  1.1102  0.6731 -0.2452
 8527TIP3    H246997   5.054   5.427  12.180  0.5467 -0.2254  0.6182
 8528TIP3   OH246998   2.734   2.182  16.128 -0.4135 -0.1928  0.0447
 8528TIP3    H146999   2.749   2.116  16.061 -0.2822 -0.5555  0.4304
 8528TIP3    H247000   2.738   2.265  16.081  1.0999 -0.3580 -0.1808
 8529TIP3   OH247001   3.579   1.359   3.122  0.1167  0.1087 -0.4217
 8529TIP3    H147002   3.495   1.400   3.139  0.7271  1.3551 -0.2996
 8529TIP3    H247003   3.602   1.315   3.203  0.3048  1.1013  0.0765
 8530TIP3   OH247004   1.192   1.367   1.039  0.4779 -0.6974 -0.3786
 8530TIP3    H147005   1.124   1.307   1.069 -0.5346  0.0503 -1.0915
 8530TIP3    H247006   1.273   1.335   1.080 -0.3371 -1.4573  0.6875
 8531TIP3   OH247007   4.474   0.902  10.406 -0.2299 -0.3235 -0.2869
 8531TIP3    H147008   4.495   0.992  10.430 -1.5759 -0.7370  2.9705
 8531TIP3    H247009   4.553   0.853  10.429 -0.2966 -0.2420  0.1374
 8532TIP3   OH247010   3.270   2.324  16.395 -0.4993 -0.3953  0.5259
 8532TIP3    H147011   3.308   2.261  16.333 -0.6201  0.5004 -0.4860
 8532TIP3    H247012   3.199   2.276  16.438 -0.3772 -1.0472  0.0041
 8533TIP3   OH247013   1.799   6.604  10.515 -0.4563  0.6986  0.6841
 8533TIP3    H147014   1.769   6.685  10.474  2.0904  0.0419 -2.9818
 8533TIP3    H247015   1.894   6.614  10.521  0.0759 -2.3234 -0.8672
 8534TIP3   OH247016   3.854   2.209   3.067  0.4075  0.5396  0.0610
 8534TIP3    H147017   3.942   2.179   3.090  0.5590 -0.5100 -1.7328
 8534TIP3    H247018   3.857   2.224   2.973 -1.6024 -0.4770 -0.2172
 8535TIP3   OH247019   0.601   4.732   6.206 -0.2247  0.3402  0.7452
 8535TIP3    H147020   0.579   4.642   6.231 -1.3097 -0.0242 -1.3176
 8535TIP3    H247021   0.532   4.785   6.245 -0.4730  0.0903  0.6515
 8536TIP3   OH247022   2.956   1.378  15.198  0.2079  0.4449  0.5066
 8536TIP3    H147023   2.931   1.367  15.290 -0.0030 -1.2461  0.2835
 8536TIP3    H247024   3.023   1.311  15.183  0.4135  0.8627 -0.5142
 8537TIP3   OH247025   1.349   5.885   0.765  0.0446  0.2240  0.2508
 8537TIP3    H147026   1.288   5.959   0.759  1.5390  1.6745  1.8727
 8537TIP3    H247027   1.323   5.840   0.845 -1.2937 -1.5111 -1.0772
 8538TIP3   OH247028   1.832   3.038  13.694 -0.3553 -0.0231  0.0692
 8538TIP3    H147029   1.828   3.126  13.731  1.7935 -0.3508  1.2256
 8538TIP3    H247030   1.859   3.051  13.603  0.6467  0.5106  0.4275
 8539TIP3   OH247031   5.363   2.038   2.180  0.0784  0.0382 -0.2529
 8539TIP3    H147032   5.412   1.956   2.168  0.7299  0.6374 -2.0302
 8539TIP3    H247033   5.423   2.106   2.150 -0.5236  1.1752  1.0290
 8540TIP3   OH247034   6.188   5.372   6.744 -0.5876 -0.7396 -0.3427
 8540TIP3    H147035   6.104   5.337   6.714  0.1844 -2.0934 -1.0665
 8540TIP3    H247036   6.237   5.294   6.771  0.6413 -0.0349 -0.4858
 8541TIP3   OH247037   6.281   6.176   0.046 -0.2658 -0.4680 -0.0076
 8541TIP3    H147038   6.199   6.136   0.016 -1.0566  0.0178  1.4140
 8541TIP3    H247039   6.277   6.266   0.015 -0.3313 -0.4061  0.1807
 8542TIP3   OH247040   6.272   1.218   2.699 -0.0015 -0.0524  0.2823
 8542TIP3    H147041   6.305   1.202   2.787 -1.9230 -1.0949  0.8620
 8542TIP3    H247042   6.217   1.142   2.679 -0.5502  0.7187 -1.3450
 8543TIP3   OH247043   0.438   4.972  14.939  0.3612 -0.5970 -0.0544
 8543TIP3    H147044   0.482   5.039  14.887  0.5873  0.2237  1.1564
 8543TIP3    H247045   0.427   4.899  14.878  2.2687 -0.3676 -0.7651
 8544TIP3   OH247046   4.810   0.403   4.026  0.4623 -0.6970 -0.2448
 8544TIP3    H147047   4.763   0.364   4.099  1.1607  1.6638  1.5975
 8544TIP3    H247048   4.864   0.332   3.991 -1.4838 -2.4307  0.1050
 8545TIP3   OH247049   4.620   0.230   4.201 -0.0112 -1.0443  0.9807
 8545TIP3    H147050   4.563   0.172   4.151 -1.1053  0.5162  0.3453
 8545TIP3    H247051   4.570   0.250   4.281 -0.0543 -0.2693  0.7703
 8546TIP3   OH247052   2.958   5.681   2.385  0.5267  0.0970  0.0458
 8546TIP3    H147053   3.022   5.639   2.443  0.0065 -0.2854  0.3587
 8546TIP3    H247054   2.918   5.609   2.337 -0.7417  0.1395  0.9585
 8547TIP3   OH247055   6.671   5.774   5.305  0.3959  0.1265 -0.0769
 8547TIP3    H147056   6.605   5.837   5.276 -0.3731 -1.3927 -1.7920
 8547TIP3    H247057   6.703   5.809   5.388 -2.5949  0.9005  0.8430
 8548TIP3   OH247058   3.753   3.808  16.179 -0.4435 -0.1571 -0.3396
 8548TIP3    H147059   3.695   3.875  16.215 -0.0764 -0.7975  1.5147
 8548TIP3    H247060   3.796   3.851  16.105  0.6215  2.0708  1.4567
 8549TIP3   OH247061   6.593   2.091  16.353  0.4939  0.1606  0.2042
 8549TIP3    H147062   6.582   2.014  16.298  1.1431  0.5877 -0.5508
 8549TIP3    H247063   6.504   2.117  16.376  0.2918 -1.1189  0.9227
 8550TIP3   OH247064   5.499   1.338   2.698  0.0771  0.2741  0.3452
 8550TIP3    H147065   5.522   1.251   2.731  0.1297  0.8515  1.8792
 8550TIP3    H247066   5.524   1.398   2.768 -0.8066  1.4539 -0.3119
 8551TIP3   OH247067   1.260   3.032   2.139  0.0631 -0.1492  0.8241
 8551TIP3    H147068   1.328   3.045   2.072  0.2053  1.9284  1.3117
 8551TIP3    H247069   1.179   3.019   2.088  0.4824 -0.5710  0.2509
 8552TIP3   OH247070   1.726   1.437   1.865 -0.0225  0.5256 -0.0008
 8552TIP3    H147071   1.705   1.530   1.868 -1.8565  0.1708 -0.2558
 8552TIP3    H247072   1.653   1.395   1.910  0.2199 -0.8614 -0.8373
 8553TIP3   OH247073   5.833   3.911   4.630 -0.7026 -0.2301 -0.5680
 8553TIP3    H147074   5.773   3.846   4.666 -0.8579  1.2320  2.0575
 8553TIP3    H247075   5.872   3.953   4.707 -0.3218  2.5125 -2.1341
 8554TIP3   OH247076   5.990   3.239   1.123  0.0316 -0.4919 -0.3834
 8554TIP3    H147077   5.957   3.190   1.047 -0.7589  4.0585 -3.4037
 8554TIP3    H247078   5.911   3.275   1.164  0.6623  0.1356  0.2940
 8555TIP3   OH247079   0.796   4.706   0.392 -0.0341 -0.0133 -0.1998
 8555TIP3    H147080   0.825   4.616   0.406  0.7734  0.3757  0.7493
 8555TIP3    H247081   0.837   4.732   0.309  1.9840  0.3501  0.8587
 8556TIP3   OH247082   3.548   6.362   0.092 -0.0548  0.4392 -0.1457
 8556TIP3    H147083   3.547   6.431   0.158  1.9445  0.2828  0.1220
 8556TIP3    H247084   3.628   6.379   0.041  0.1523 -1.2890 -0.4695
 8557TIP3   OH247085   2.365   0.909   3.202  0.0592  0.0209  0.3231
 8557TIP3    H147086   2.440   0.968   3.208 -0.1194  0.2518  0.3000
 8557TIP3    H247087   2.381   0.857   3.123  0.6198 -0.5218  0.7985
 8558TIP3   OH247088   0.912   4.717  14.177 -0.1049 -0.6983  0.0174
 8558TIP3    H147089   0.994   4.677  14.148 -0.9307 -2.6795  0.2398
 8558TIP3    H247090   0.910   4.803  14.134  1.6273 -1.0009 -0.7272
 8559TIP3   OH247091   3.650   6.618   5.018 -0.4376 -0.0280 -0.5811
 8559TIP3    H147092   3.645   6.607   5.113 -0.2170 -1.2876 -0.7021
 8559TIP3    H247093   3.721   6.560   4.991 -1.1043 -0.3935 -1.6202
 8560TIP3   OH247094   3.003   4.852   0.181 -0.1903 -0.8153  0.0475
 8560TIP3    H147095   2.992   4.847   0.086 -1.3211 -1.0742  0.1849
 8560TIP3    H247096   3.078   4.795   0.198  0.8461  0.2156 -0.8026
 8561TIP3   OH247097   6.459   0.374  11.077  0.0490  0.2838  0.8541
 8561TIP3    H147098   6.380   0.423  11.099  0.8651  2.4020 -0.6185
 8561TIP3    H247099   6.441   0.338  10.990  0.2294 -0.3566  1.0761
 8562TIP3   OH247100   2.687   3.772   3.089 -0.7058 -0.1077  0.2315
 8562TIP3    H147101   2.712   3.854   3.131 -1.4680  0.6583 -0.7869
 8562TIP3    H247102   2.610   3.794   3.036 -0.8137 -1.4362 -0.1982
 8563TIP3   OH247103   6.658   3.786   5.483  0.3369 -0.1292 -0.3552
 8563TIP3    H147104   6.599   3.727   5.435  1.0921  1.3653 -3.2977
 8563TIP3    H247105   6.599   3.846   5.528 -0.4689  0.4482 -2.0841
 8564TIP3   OH247106   3.271   3.157   3.163 -0.0546 -0.5037 -0.0368
 8564TIP3    H147107   3.280   3.252   3.159 -1.8422 -0.2279  1.3498
 8564TIP3    H247108   3.191   3.137   3.115  0.5417 -1.3867 -0.7111
 8565TIP3   OH247109   6.008   1.644  13.537 -0.4382  0.0594 -0.0094
 8565TIP3    H147110   5.932   1.696  13.563  0.0968  0.9868 -0.2584
 8565TIP3    H247111   6.001   1.563  13.588 -0.6670  0.8510  1.2376
 8566TIP3   OH247112   5.330   1.485   1.377  0.2126 -0.2650  0.4025
 8566TIP3    H147113   5.372   1.508   1.294 -0.0515  0.6348  0.5066
 8566TIP3    H247114   5.276   1.408   1.355  2.2175 -1.7571  0.3829
 8567TIP3   OH247115   2.289   0.705   1.625  0.4302 -0.1363  0.4021
 8567TIP3    H147116   2.260   0.672   1.540  1.1943  0.1230  0.0404
 8567TIP3    H247117   2.208   0.733   1.668  0.1227  0.5977 -0.6121
 8568TIP3   OH247118   1.789   1.768   3.856 -0.2765  0.4525  0.1221
 8568TIP3    H147119   1.738   1.688   3.866 -0.4065  0.5919  0.5845
 8568TIP3    H247120   1.779   1.791   3.764 -0.7156  0.2572  0.1174
 8569TIP3   OH247121   3.033   4.823   3.153  0.3820  0.0629 -0.8267
 8569TIP3    H147122   3.079   4.791   3.076 -0.4515 -0.1239 -1.2682
 8569TIP3    H247123   3.053   4.759   3.222  0.5272 -0.1830 -1.0952
 8570TIP3   OH247124   0.733   3.192  13.054  0.3954 -0.0102 -0.3999
 8570TIP3    H147125   0.666   3.132  13.087 -0.0014  0.5331 -0.1911
 8570TIP3    H247126   0.729   3.267  13.113  0.2497  0.6176 -1.1887
 8571TIP3   OH247127   3.345   5.630   1.802  0.5576  0.7624 -0.2747
 8571TIP3    H147128   3.254   5.615   1.775  0.7698 -0.0717 -0.5459
 8571TIP3    H247129   3.337   5.682   1.882 -0.1908  0.1127  0.0902
 8572TIP3   OH247130   5.529   6.790   4.827  0.5911  0.3465  0.2465
 8572TIP3    H147131   5.571   6.873   4.806 -2.5123  1.8599 -0.5289
 8572TIP3    H247132   5.489   6.761   4.745  1.4778 -1.9144  0.5326
 8573TIP3   OH247133   6.719   0.665   4.434 -0.5138 -0.1939 -0.0427
 8573TIP3    H147134   6.691   0.701   4.350  0.7605  1.1383  0.0629
 8573TIP3    H247135   6.804   0.705   4.450 -0.4593 -0.8917  1.6079
 8574TIP3   OH247136   3.196   6.338  15.666 -0.0828 -0.4054  0.1014
 8574TIP3    H147137   3.237   6.424  15.653 -1.5791  0.4240  0.7239
 8574TIP3    H247138   3.102   6.354  15.660 -0.3845 -2.0957 -0.2477
 8575TIP3   OH247139   5.823   6.782  15.528  0.2688  0.0514 -0.0003
 8575TIP3    H147140   5.787   6.868  15.506 -0.0381 -0.0465  0.1161
 8575TIP3    H247141   5.778   6.722  15.469  1.3453  0.1122 -0.9096
 8576TIP3   OH247142   6.383   6.580  15.614  0.4345 -0.0997  0.0105
 8576TIP3    H147143   6.325   6.623  15.552  0.2014  0.9644  0.9259
 8576TIP3    H247144   6.404   6.648  15.678  0.3874 -1.2293  1.2878
 8577TIP3   OH247145   6.208   6.496  13.909 -0.0615  0.2959 -0.4568
 8577TIP3    H147146   6.151   6.452  13.846 -0.5452  0.5845 -0.2248
 8577TIP3    H247147   6.153   6.512  13.986 -0.6892  3.5736 -1.4291
 8578TIP3   OH247148   4.145   4.128   5.032 -0.1144  0.0138 -0.3965
 8578TIP3    H147149   4.058   4.137   4.993 -0.5627 -0.7903  0.3686
 8578TIP3    H247150   4.192   4.069   4.973 -0.2708  0.0217 -0.5265
 8579TIP3   OH247151   2.560   3.812   2.274  0.6825  0.5682 -0.0195
 8579TIP3    H147152   2.503   3.769   2.211  0.7324  0.7879 -0.2126
 8579TIP3    H247153   2.646   3.775   2.257  0.5628  0.0649  0.4238
 8580TIP3   OH247154   3.118   5.610  10.932 -0.0824 -0.5753  0.4707
 8580TIP3    H147155   3.053   5.613  10.861  0.2383 -1.1279  0.1499
 8580TIP3    H247156   3.190   5.665  10.901  0.4967 -1.6215 -0.0833
 8581TIP3   OH247157   0.146   6.368   0.369  0.4922 -0.2852 -0.2725
 8581TIP3    H147158   0.229   6.320   0.369  0.9359  0.4610  0.3772
 8581TIP3    H247159   0.164   6.447   0.317  0.0105 -0.4083 -0.6331
 8582TIP3   OH247160   6.640   6.765  16.334 -0.3961  0.0967 -0.1607
 8582TIP3    H147161   6.706   6.827  16.304 -1.3274  0.7565 -0.9333
 8582TIP3    H247162   6.625   6.789  16.426  1.3580 -0.9242  0.4287
 8583TIP3   OH247163   3.123   0.924  12.247  0.3126  0.1134  0.2399
 8583TIP3    H147164   3.103   1.007  12.204  1.9433 -0.6017 -2.1034
 8583TIP3    H247165   3.064   0.921  12.322 -1.9134  1.9916 -1.3091
 8584TIP3   OH247166   3.753   4.534  11.225  0.2303 -0.0253 -0.3147
 8584TIP3    H147167   3.810   4.609  11.245 -0.3595  0.3330  0.0582
 8584TIP3    H247168   3.674   4.550  11.277 -0.0235 -0.7533 -0.4710
 8585TIP3   OH247169   6.741   0.997   5.570 -0.1051  0.2815  0.5263
 8585TIP3    H147170   6.687   0.945   5.630 -1.8030  0.3059 -0.9071
 8585TIP3    H247171   6.831   0.973   5.593 -0.7496 -3.2185  0.0630
 8586TIP3   OH247172   2.308   3.717   2.048 -0.6877 -0.4844 -0.0678
 8586TIP3    H147173   2.300   3.778   1.975 -0.3874  0.0299  0.3113
 8586TIP3    H247174   2.232   3.660   2.041 -0.4687 -0.6763 -0.9898
 8587TIP3   OH247175   1.956   2.000  12.666  0.8373  0.1294 -0.9014
 8587TIP3    H147176   1.877   2.016  12.718  1.3708 -0.8574  0.2493
 8587TIP3    H247177   1.925   2.000  12.576 -0.5965 -0.8367 -0.4471
 8588TIP3   OH247178   4.187   1.001   3.742  0.5984  0.6207 -0.3796
 8588TIP3    H147179   4.122   1.006   3.812  0.8108 -1.2515 -0.0164
 8588TIP3    H247180   4.220   0.912   3.745  2.7175  1.3272 -1.0202
 8589TIP3   OH247181   0.096   3.718  17.098  0.0089  0.2611  0.0030
 8589TIP3    H147182   0.014   3.730  17.146  0.0717  2.2862 -0.3007
 8589TIP3    H247183   0.154   3.675  17.161 -1.3081 -1.3807  0.1619
 8590TIP3   OH247184   0.698   1.823   3.492 -0.0035  0.9381  0.1777
 8590TIP3    H147185   0.632   1.820   3.561 -0.2993 -1.0724 -0.1324
 8590TIP3    H247186   0.781   1.835   3.538 -0.2847  0.4508  0.8274
 8591TIP3   OH247187   3.496   0.716   3.755  0.1280 -0.6395  0.5211
 8591TIP3    H147188   3.427   0.782   3.764  1.8010  1.3470 -0.3239
 8591TIP3    H247189   3.523   0.723   3.663  2.9027  0.2435  1.3188
 8592TIP3   OH247190   0.906   6.075   2.276 -0.3496  0.4029 -0.5895
 8592TIP3    H147191   0.994   6.070   2.238 -0.0490  0.9056  0.0342
 8592TIP3    H247192   0.911   6.021   2.355 -1.8233 -3.3277 -2.7664
 8593TIP3   OH247193   1.061   5.836   0.559 -0.0197  0.3415 -0.3587
 8593TIP3    H147194   0.975   5.795   0.561  0.3656 -0.4242  1.1533
 8593TIP3    H247195   1.120   5.774   0.601  2.2605 -1.1819 -5.0273
 8594TIP3   OH247196   2.288   2.422   5.986  0.6914 -0.0355 -0.1870
 8594TIP3    H147197   2.318   2.501   6.031  0.9801 -0.3281  0.1461
 8594TIP3    H247198   2.259   2.452   5.900 -1.7456  0.8408  0.8740
 8595TIP3   OH247199   3.885   5.481   5.484  0.2040 -0.0751 -0.2883
 8595TIP3    H147200   3.854   5.561   5.526  0.7803  0.4385 -0.8324
 8595TIP3    H247201   3.889   5.417   5.555 -0.5205  0.2957  0.0977
 8596TIP3   OH247202   0.925   4.408  11.723  0.2110  0.4345  0.9309
 8596TIP3    H147203   0.890   4.341  11.665  1.4456  0.9204 -0.4246
 8596TIP3    H247204   0.923   4.488  11.671 -0.6500  1.3615  2.3047
 8597TIP3   OH247205   4.893   2.694  12.926 -0.0720 -0.2292  0.4118
 8597TIP3    H147206   4.971   2.740  12.958 -0.0151  0.6155 -0.8626
 8597TIP3    H247207   4.832   2.765  12.902 -1.4594 -0.8675  1.8588
 8598TIP3   OH247208   1.865   0.444   2.581  0.6852 -0.3226 -0.1223
 8598TIP3    H147209   1.788   0.410   2.536 -0.9478  1.8975  0.8014
 8598TIP3    H247210   1.919   0.480   2.510 -0.2396  0.1469 -0.6091
 8599TIP3   OH247211   1.273   4.353  11.496  0.6645  0.1084  0.4832
 8599TIP3    H147212   1.238   4.380  11.581  2.8599  3.8566  0.4244
 8599TIP3    H247213   1.195   4.342  11.441 -0.7175 -0.4941  2.4572
 8600TIP3   OH247214   1.208   0.287   3.821  0.1253  0.1773  0.4570
 8600TIP3    H147215   1.225   0.200   3.858 -1.4459 -0.0220  0.8118
 8600TIP3    H247216   1.181   0.269   3.731  0.4748  0.3669  0.3127
 8601TIP3   OH247217   1.091   5.891  15.389 -0.6771  0.0931 -0.4046
 8601TIP3    H147218   1.042   5.936  15.458  1.0012 -0.1120  0.9975
 8601TIP3    H247219   1.145   5.959  15.349 -1.2981  0.1186 -1.2191
 8602TIP3   OH247220   0.114   5.502   0.082 -0.6175 -0.2187  0.4480
 8602TIP3    H147221   0.122   5.420   0.032  2.3162 -0.2485  0.7951
 8602TIP3    H247222   0.049   5.553   0.033  1.4218 -0.5828 -3.0431
 8603TIP3   OH247223   3.776   5.812  15.346  0.2868  0.2214 -0.1416
 8603TIP3    H147224   3.726   5.824  15.427  0.7631 -1.9606  0.5344
 8603TIP3    H247225   3.789   5.718  15.339 -0.1823  0.2881 -3.0762
 8604TIP3   OH247226   5.510   5.239   3.726 -0.5845  0.0988  0.0218
 8604TIP3    H147227   5.427   5.220   3.769 -0.9820 -0.4957 -0.9720
 8604TIP3    H247228   5.510   5.183   3.648  1.6839 -1.5225  1.0615
 8605TIP3   OH247229   6.193   3.186   2.200 -0.1741 -0.0674  0.0802
 8605TIP3    H147230   6.266   3.124   2.199 -0.8752 -0.9103 -0.8190
 8605TIP3    H247231   6.208   3.239   2.279  0.4408 -1.3932  0.8978
 8606TIP3   OH247232   5.489   2.407   0.388  0.8290 -0.4043 -0.1118
 8606TIP3    H147233   5.572   2.423   0.433  0.7687 -1.5817  0.4407
 8606TIP3    H247234   5.500   2.322   0.345  0.3985  0.0774 -1.2243
 8607TIP3   OH247235   6.566   4.065  11.550  0.2502  0.0339 -0.1401
 8607TIP3    H147236   6.609   4.148  11.529  0.5432 -0.2505 -0.6594
 8607TIP3    H247237   6.628   3.998  11.523 -0.8316 -0.4123 -1.6484
 8608TIP3   OH247238   1.627   5.943   2.999 -0.5257 -0.2395  0.0407
 8608TIP3    H147239   1.706   5.892   3.018 -1.3763 -2.9805 -2.9674
 8608TIP3    H247240   1.645   5.985   2.915 -1.9290 -0.2248 -0.2809
 8609TIP3   OH247241   2.277   4.684  10.810  0.0751  0.3082 -0.6942
 8609TIP3    H147242   2.187   4.660  10.832 -0.2833  1.8393 -0.3474
 8609TIP3    H247243   2.331   4.613  10.847 -0.9642 -0.4946 -0.6901
 8610TIP3   OH247244   5.841   2.974  15.645 -0.5195  0.0096 -0.1633
 8610TIP3    H147245   5.773   2.987  15.711 -1.0238 -0.6364 -0.5417
 8610TIP3    H247246   5.823   2.888  15.609  2.3849 -1.6523  1.9175
 8611TIP3   OH247247   3.246   4.558   2.663  0.3068  0.0061 -0.0434
 8611TIP3    H147248   3.226   4.479   2.713 -0.6526  0.4988  0.3838
 8611TIP3    H247249   3.205   4.545   2.578 -1.9534  1.0022  0.8217
 8612TIP3   OH247250   4.372   3.665  12.477 -0.3177  0.2024  0.2184
 8612TIP3    H147251   4.401   3.619  12.556 -0.3466 -0.8907 -0.3913
 8612TIP3    H247252   4.386   3.603  12.406 -0.5019  1.0879 -0.6234
 8613TIP3   OH247253   1.653   3.360   0.577 -0.2485  0.1972  0.3043
 8613TIP3    H147254   1.702   3.278   0.564 -0.2080  0.3939 -0.9250
 8613TIP3    H247255   1.564   3.331   0.596 -0.0625 -0.1426  0.6708
 8614TIP3   OH247256   1.416   2.684   2.440 -0.0992 -0.4215  0.5140
 8614TIP3    H147257   1.422   2.597   2.401  0.2658 -0.6780  1.1366
 8614TIP3    H247258   1.505   2.705   2.467 -0.0299  0.5022 -0.3755
 8615TIP3   OH247259   6.334   0.554   5.673  0.1186 -0.4809  0.1350
 8615TIP3    H147260   6.278   0.622   5.636  1.2566 -0.1934 -1.1345
 8615TIP3    H247261   6.375   0.513   5.597  1.5443 -0.7366  1.0145
 8616TIP3   OH247262   1.359   1.216  13.632  0.6897 -0.2823  0.7959
 8616TIP3    H147263   1.325   1.129  13.613 -1.2883  0.3768  1.0035
 8616TIP3    H247264   1.449   1.215  13.600  0.1193 -1.8125 -0.9268
 8617TIP3   OH247265   3.371   2.999   0.765 -0.3105 -0.0830  0.0376
 8617TIP3    H147266   3.466   2.994   0.758 -0.3487 -0.0349 -0.5295
 8617TIP3    H247267   3.342   3.029   0.679 -0.8090  0.2888  0.3330
 8618TIP3   OH247268   3.667   1.498  11.472  0.3775  0.3898 -0.0943
 8618TIP3    H147269   3.609   1.459  11.406  1.6215 -1.4721 -0.1770
 8618TIP3    H247270   3.751   1.507  11.427  1.9280 -3.0760  1.6975
 8619TIP3   OH247271   4.616   6.687  12.878 -0.1648 -0.0642 -0.5119
 8619TIP3    H147272   4.653   6.750  12.816 -2.2981  1.3736 -0.4389
 8619TIP3    H247273   4.628   6.602  12.836 -1.8793  0.8887 -3.1608
 8620TIP3   OH247274   1.963   3.298   3.762 -0.1877  0.0405  0.3290
 8620TIP3    H147275   1.982   3.378   3.810 -0.1450  0.1453  0.1336
 8620TIP3    H247276   1.989   3.228   3.822  0.8428  0.1758  0.0525
 8621TIP3   OH247277   5.877   3.745   2.199 -0.5833  0.1276  0.3537
 8621TIP3    H147278   5.804   3.704   2.152 -1.0643  1.3523 -0.0099
 8621TIP3    H247279   5.852   3.738   2.292 -0.1851 -1.2449  0.3834
 8622TIP3   OH247280   2.239   2.931   3.804 -0.1247 -0.3201  0.2381
 8622TIP3    H147281   2.279   2.876   3.736 -0.5188 -0.9569  0.5098
 8622TIP3    H247282   2.175   2.873   3.846 -0.3125  0.2565  0.7484
 8623TIP3   OH247283   1.539   4.280   0.267 -0.4053 -0.7101  0.9199
 8623TIP3    H147284   1.504   4.365   0.292  0.4976 -0.2197  0.5986
 8623TIP3    H247285   1.537   4.280   0.171 -2.0183 -1.7723  0.9206
 8624TIP3   OH247286   3.063   2.904   4.037 -0.7129  0.1408 -0.3262
 8624TIP3    H147287   3.011   2.984   4.033  0.8301  1.3619  1.5258
 8624TIP3    H247288   3.001   2.833   4.021 -2.6141  1.5874  0.2664
 8625TIP3   OH247289   4.206   6.667   2.362  0.0303  1.0875  0.5705
 8625TIP3    H147290   4.243   6.637   2.445  0.8223 -0.1367 -0.1890
 8625TIP3    H247291   4.272   6.727   2.327  1.8756 -1.6905 -1.1566
 8626TIP3   OH247292   2.539   4.545   4.853  0.1862  0.0158 -0.2019
 8626TIP3    H147293   2.544   4.452   4.834  1.3547  0.3161 -1.5739
 8626TIP3    H247294   2.446   4.566   4.852 -0.1826 -1.3715  1.4833
 8627TIP3   OH247295   5.938   6.437   2.680 -0.6717  0.4505 -0.6423
 8627TIP3    H147296   5.959   6.404   2.767 -1.1287  2.3845  0.2729
 8627TIP3    H247297   6.010   6.409   2.625 -1.0781 -2.0487  0.0046
 8628TIP3   OH247298   5.696   1.475  12.996 -0.0295 -0.0830 -0.2842
 8628TIP3    H147299   5.676   1.513  12.910 -0.9388  0.7413  0.2672
 8628TIP3    H247300   5.657   1.536  13.059 -0.0245 -1.0526  0.6955
 8629TIP3   OH247301   5.175   4.956   3.362 -0.3495  0.2091 -0.6061
 8629TIP3    H147302   5.172   5.052   3.361 -0.9752  0.1954 -0.3586
 8629TIP3    H247303   5.202   4.932   3.273 -0.2279  0.6113 -0.6800
 8630TIP3   OH247304   5.114   5.166   4.879  0.0451 -0.0098 -0.1730
 8630TIP3    H147305   5.172   5.152   4.803  1.3336  1.0842  0.5659
 8630TIP3    H247306   5.107   5.080   4.920 -0.9290 -0.6912 -1.6853
 8631TIP3   OH247307   2.939   0.736  14.700  0.2853  0.2347  0.0742
 8631TIP3    H147308   2.970   0.665  14.755 -0.6827  0.4496  0.9401
 8631TIP3    H247309   2.985   0.814  14.733 -0.3405  0.3741  0.6519
 8632TIP3   OH247310   5.757   2.559   2.060  0.8109 -0.3184 -0.2138
 8632TIP3    H147311   5.672   2.578   2.100  1.9530  1.8830  1.3480
 8632TIP3    H247312   5.740   2.563   1.966 -0.8156  0.0383  0.0610
 8633TIP3   OH247313   5.876   3.057  14.498 -0.5199  0.1491  0.1497
 8633TIP3    H147314   5.895   3.041  14.591  1.7330 -1.3056 -0.4823
 8633TIP3    H247315   5.876   2.971  14.458  1.9741  0.8961 -1.7338
 8634TIP3   OH247316   5.200   4.380   0.339  0.0214 -0.5970 -0.1999
 8634TIP3    H147317   5.108   4.372   0.364  0.1688  0.7658  0.8805
 8634TIP3    H247318   5.244   4.309   0.384 -0.3418 -0.5809  0.1821
 8635TIP3   OH247319   4.767   4.472  17.177 -0.1810  0.0506 -0.0318
 8635TIP3    H147320   4.709   4.516  17.240  0.5682  0.5228  0.3403
 8635TIP3    H247321   4.825   4.418  17.232  1.0750  1.1546 -0.2248
 8636TIP3   OH247322   4.343   2.890  11.678 -0.3219 -0.5520 -0.2963
 8636TIP3    H147323   4.320   2.966  11.732  1.0619 -1.2006  1.3217
 8636TIP3    H247324   4.265   2.834  11.682  0.0694 -1.0615  2.0209
 8637TIP3   OH247325   5.958   0.209  14.375  0.4032 -0.0888 -0.0658
 8637TIP3    H147326   5.961   0.192  14.469 -0.4305  0.2646  0.0308
 8637TIP3    H247327   6.013   0.140  14.336  0.0910 -0.7263  0.6058
 8638TIP3   OH247328   4.269   6.010   2.809 -0.7279  0.3859  0.2919
 8638TIP3    H147329   4.196   5.954   2.836 -0.3404 -0.5367 -0.5292
 8638TIP3    H247330   4.300   5.971   2.728  1.3381  0.1346  1.1442
 8639TIP3   OH247331   2.296   5.780  14.685 -0.2359  0.1654  0.1932
 8639TIP3    H147332   2.340   5.791  14.769  0.7979  0.9220 -0.4231
 8639TIP3    H247333   2.273   5.869  14.658  2.3002  0.3388 -1.7779
 8640TIP3   OH247334   4.454   4.454  13.643 -0.5476  0.5143  0.3827
 8640TIP3    H147335   4.495   4.373  13.672 -1.9163 -0.1753  0.4639
 8640TIP3    H247336   4.460   4.452  13.548 -1.9689 -0.4688  0.2915
 8641TIP3   OH247337   1.127   5.480   2.600  0.5128  0.4181 -0.5395
 8641TIP3    H147338   1.178   5.433   2.534  0.8922  0.4145 -0.2481
 8641TIP3    H247339   1.099   5.560   2.555 -1.4126 -0.7456 -1.5256
 8642TIP3   OH247340   3.642   4.761   4.109 -0.5462 -0.1842 -0.7761
 8642TIP3    H147341   3.707   4.713   4.159 -0.0684 -0.8231 -1.9578
 8642TIP3    H247342   3.561   4.753   4.160  0.1868  0.2396  0.4794
 8643TIP3   OH247343   3.038   1.375  12.939  0.3520  0.6485  0.0103
 8643TIP3    H147344   3.123   1.401  12.906  0.9825 -0.9205  0.3263
 8643TIP3    H247345   2.976   1.434  12.895  1.0756 -1.2870 -4.1370
 8644TIP3   OH247346   6.373   0.214  16.078  0.2883  0.1149 -0.1264
 8644TIP3    H147347   6.384   0.144  16.144 -0.3112  0.6049  0.5085
 8644TIP3    H247348   6.334   0.170  16.003 -1.0438 -0.0651  0.6448
 8645TIP3   OH247349   2.172   3.929  13.141 -0.2687  0.0183 -0.2441
 8645TIP3    H147350   2.229   3.906  13.214  0.2067  0.4951 -0.4567
 8645TIP3    H247351   2.231   3.966  13.075 -0.2050 -2.9643 -2.0844
 8646TIP3   OH247352   5.499   5.083   5.829 -0.0682  0.1288  0.3545
 8646TIP3    H147353   5.433   5.033   5.780  0.8021 -0.3056 -0.3951
 8646TIP3    H247354   5.462   5.091   5.917 -2.3420  2.1774 -0.6827
 8647TIP3   OH247355   1.777   2.753  16.593  0.1431  0.0112 -0.1118
 8647TIP3    H147356   1.851   2.783  16.646  0.4812 -1.4321  0.2628
 8647TIP3    H247357   1.701   2.765  16.651 -0.1210  2.3738 -0.8202
 8648TIP3   OH247358   0.383   1.651  14.031  0.1367  0.3397 -0.0583
 8648TIP3    H147359   0.474   1.676  14.019 -0.6938  2.8322 -1.9573
 8648TIP3    H247360   0.333   1.725  13.998 -2.6037 -1.2727  0.1687
 8649TIP3   OH247361   4.822   4.624  16.291 -0.1164 -0.6948  0.4559
 8649TIP3    H147362   4.785   4.550  16.243  1.8703 -1.2305 -0.3489
 8649TIP3    H247363   4.912   4.630  16.260  0.2102  1.1539  1.6031
 8650TIP3   OH247364   1.977   0.056  13.642 -0.4342 -0.8040  0.8196
 8650TIP3    H147365   1.899   0.107  13.623 -0.3402 -0.8647  0.2574
 8650TIP3    H247366   1.944  -0.033  13.656 -0.1856 -1.7193 -3.1829
 8651TIP3   OH247367   3.202   4.993   6.374  0.6245  0.0698  0.0177
 8651TIP3    H147368   3.248   4.909   6.366 -0.6706 -0.8189  1.3398
 8651TIP3    H247369   3.223   5.023   6.463 -0.5476  0.1253  0.2845
 8652TIP3   OH247370   6.538   1.130   0.368  0.3162 -0.3610  0.3009
 8652TIP3    H147371   6.484   1.208   0.356 -0.3887 -1.1369 -2.1816
 8652TIP3    H247372   6.623   1.153   0.330 -0.0780 -0.9449 -0.9893
 8653TIP3   OH247373   2.142   4.292  15.815 -0.2149 -0.5313 -0.0394
 8653TIP3    H147374   2.096   4.371  15.844 -0.2950  0.0977 -1.7584
 8653TIP3    H247375   2.211   4.325  15.758  1.3045 -1.5769  1.0975
 8654TIP3   OH247376   4.215   2.945  14.592  0.0341 -0.0711  0.1226
 8654TIP3    H147377   4.262   3.025  14.612  1.2093 -0.6271 -0.2917
 8654TIP3    H247378   4.144   2.972  14.535 -0.1136  0.7877  0.7075
 8655TIP3   OH247379   0.712   2.951  13.872 -0.0779  0.4620 -0.1456
 8655TIP3    H147380   0.670   2.886  13.928  1.2332 -0.3474 -0.0570
 8655TIP3    H247381   0.639   3.004  13.839 -0.9959  0.1804  1.3102
 8656TIP3   OH247382   6.710   2.687   3.653 -0.1530 -0.3686 -1.2125
 8656TIP3    H147383   6.773   2.643   3.710 -0.7174 -0.6724 -0.8054
 8656TIP3    H247384   6.759   2.757   3.612  0.1581  0.1365 -0.0143
 8657TIP3   OH247385   6.589   4.746   4.261 -0.3608 -0.3782  0.0266
 8657TIP3    H147386   6.550   4.699   4.335  0.9002 -0.6114  0.5718
 8657TIP3    H247387   6.544   4.711   4.184  0.8805 -2.9276  0.3490
 8658TIP3   OH247388   2.009   1.014   0.010  0.0843 -0.4844 -0.4848
 8658TIP3    H147389   1.927   0.972  -0.014 -0.9117  0.6366  0.8014
 8658TIP3    H247390   2.043   0.959   0.081 -0.0228 -0.4406 -0.3989
 8659TIP3   OH247391   4.995   5.335  15.054 -0.1942 -0.4211  0.3486
 8659TIP3    H147392   5.017   5.398  15.122 -1.6831  0.5170  0.0017
 8659TIP3    H247393   4.982   5.388  14.975 -0.9946 -1.2082 -0.0636
 8660TIP3   OH247394   3.755   1.489  15.597 -1.0496  0.5596  0.2990
 8660TIP3    H147395   3.775   1.415  15.540 -0.7401  0.8813 -0.0176
 8660TIP3    H247396   3.820   1.484  15.667  0.2938  1.6922 -0.8095
 8661TIP3   OH247397   5.854   2.644   1.317 -0.3105 -0.6280 -0.3292
 8661TIP3    H147398   5.791   2.715   1.303  0.4299 -0.2518 -2.0228
 8661TIP3    H247399   5.884   2.621   1.229  0.9292 -1.7103  0.3418
 8662TIP3   OH247400   1.941   3.650   3.613 -0.0489  0.0175 -0.3157
 8662TIP3    H147401   1.973   3.618   3.698 -0.9693  1.9788  0.8450
 8662TIP3    H247402   1.847   3.628   3.613  0.0698 -0.5291 -1.1252
 8663TIP3   OH247403   3.859   6.608   3.576 -0.1718  0.1565 -0.4564
 8663TIP3    H147404   3.921   6.656   3.520 -0.7633  0.9617 -0.4519
 8663TIP3    H247405   3.788   6.671   3.592  0.0710  0.0037  1.3582
 8664TIP3   OH247406   1.070   0.829   0.913 -0.6904  0.3444 -0.3657
 8664TIP3    H147407   0.986   0.820   0.868  0.0739 -4.2470 -1.4326
 8664TIP3    H247408   1.135   0.832   0.843  0.2061 -1.6124  0.2875
 8665TIP3   OH247409   4.466   5.418  14.907  0.3448  0.5575 -0.3780
 8665TIP3    H147410   4.414   5.387  14.981 -0.4144  2.5628  0.0187
 8665TIP3    H247411   4.539   5.466  14.948  0.2973  1.1001 -0.9113
 8666TIP3   OH247412   1.736   5.917  12.615 -0.2248 -0.0150  0.1692
 8666TIP3    H147413   1.646   5.941  12.591 -0.7802  1.2210  3.0593
 8666TIP3    H247414   1.779   6.000  12.633  0.7843 -0.7217  1.1180
 8667TIP3   OH247415   3.567   1.195  12.778 -0.6651  0.2631 -0.0344
 8667TIP3    H147416   3.566   1.214  12.872  0.1705  0.2612 -0.0132
 8667TIP3    H247417   3.653   1.226  12.749 -0.7232 -0.1866 -0.6997
 8668TIP3   OH247418   3.104   5.873   4.329  0.3530 -0.0245  0.0087
 8668TIP3    H147419   3.105   5.824   4.247 -0.5259  0.3459 -0.2304
 8668TIP3    H247420   3.109   5.806   4.397  0.7926 -0.3473 -0.3330
 8669TIP3   OH247421   6.464   4.508   5.521  0.3191 -0.0781  0.0759
 8669TIP3    H147422   6.433   4.595   5.546 -1.9383 -0.6637 -0.4515
 8669TIP3    H247423   6.476   4.513   5.426 -1.6302 -0.7963 -0.2527
 8670TIP3   OH247424   2.357   0.089  14.352  0.9691 -0.0348  0.1505
 8670TIP3    H147425   2.302   0.166  14.365  1.9969  0.9978 -1.2117
 8670TIP3    H247426   2.352   0.041  14.435 -0.4402  0.9957  0.7019
 8671TIP3   OH247427   5.150   1.597  16.763 -0.7315  0.2604  0.1958
 8671TIP3    H147428   5.140   1.547  16.682  0.0216 -0.3746  0.4796
 8671TIP3    H247429   5.061   1.623  16.787 -1.1516 -1.0062  0.0815
 8672TIP3   OH247430   0.347   0.362  17.159  0.4095 -0.5054 -0.1149
 8672TIP3    H147431   0.357   0.449  17.120  0.9911 -0.3837  0.2992
 8672TIP3    H247432   0.374   0.301  17.089  2.8163 -0.2413  0.4823
 8673TIP3   OH247433   4.747   6.268  14.700  0.1237 -0.8460  0.6239
 8673TIP3    H147434   4.677   6.314  14.746 -0.2626 -0.3922 -0.3828
 8673TIP3    H247435   4.760   6.318  14.619  0.4218 -1.9025 -0.0116
 8674TIP3   OH247436   3.787   6.686  12.986  0.9529 -0.0173 -0.4972
 8674TIP3    H147437   3.731   6.763  12.974  2.5368  1.0109 -1.5711
 8674TIP3    H247438   3.818   6.666  12.898  2.6822 -0.2265  0.1420
 8675TIP3   OH247439   6.741   3.351  14.992 -0.2082 -0.1662 -0.1569
 8675TIP3    H147440   6.823   3.397  15.010 -1.1965  1.3366  0.6814
 8675TIP3    H247441   6.708   3.391  14.912 -0.0912 -0.8454 -0.5531
 8676TIP3   OH247442   1.657   4.663   2.474  0.2032  0.1673 -0.2729
 8676TIP3    H147443   1.585   4.642   2.534  0.1952 -2.1280 -0.9769
 8676TIP3    H247444   1.614   4.677   2.390  0.4568  0.2026 -0.3946
 8677TIP3   OH247445   6.537   2.785   4.568  0.1907  0.1506 -0.6144
 8677TIP3    H147446   6.455   2.778   4.520 -0.7181  1.1909  0.7453
 8677TIP3    H247447   6.512   2.809   4.657  1.8930 -0.6972  0.1573
 8678TIP3   OH247448   0.967   1.019  16.223 -0.3319  0.4371 -0.4901
 8678TIP3    H147449   0.890   1.076  16.226 -0.1528  0.8716 -2.4198
 8678TIP3    H247450   0.945   0.946  16.281 -1.1984  1.6983  0.8447
 8679TIP3   OH247451   5.799   1.720   0.915  0.2954 -0.1176  0.7164
 8679TIP3    H147452   5.832   1.648   0.861 -2.5369 -1.3437  0.4133
 8679TIP3    H247453   5.811   1.690   1.005  0.8239 -0.1178  0.6495
 8680TIP3   OH247454   5.810   4.277   1.184  0.1600 -0.5319 -0.8706
 8680TIP3    H147455   5.825   4.187   1.212  1.0172 -0.7556 -1.9927
 8680TIP3    H247456   5.863   4.287   1.105  0.6657  1.1755 -0.3659
 8681TIP3   OH247457   4.455   6.632   0.109 -0.4099  0.4754 -0.1636
 8681TIP3    H147458   4.420   6.624   0.021  0.8862 -1.2489 -0.5835
 8681TIP3    H247459   4.448   6.544   0.146 -0.2726  1.0049  1.2023
 8682TIP3   OH247460   4.849   2.805  15.705 -0.2617 -0.1119  0.3431
 8682TIP3    H147461   4.788   2.735  15.681 -0.5683 -0.3307  1.6805
 8682TIP3    H247462   4.793   2.878  15.732  0.0413 -0.3061  1.5543
 8683TIP3   OH247463   5.276   3.969  16.383 -0.0308 -0.0722  0.0907
 8683TIP3    H147464   5.268   4.064  16.372 -1.6528  0.0545  1.8863
 8683TIP3    H247465   5.186   3.936  16.376  0.4266 -1.4001  0.2142
 8684TIP3   OH247466   1.652   1.787  13.585 -0.0485 -0.0376  0.3227
 8684TIP3    H147467   1.731   1.763  13.633  0.4409 -1.1601 -0.9635
 8684TIP3    H247468   1.666   1.753  13.496 -2.2475 -0.8712  0.2153
 8685TIP3   OH247469   0.751   2.431  14.560  0.0277 -0.1145  0.1849
 8685TIP3    H147470   0.787   2.380  14.632  0.0559  0.7609  0.8021
 8685TIP3    H247471   0.770   2.522  14.583  1.7379  0.1132 -1.8245
 8686TIP3   OH247472   5.177   0.982   0.700  0.3089  0.0542 -0.1437
 8686TIP3    H147473   5.253   0.948   0.654  0.8208 -0.3370  0.9645
 8686TIP3    H247474   5.204   1.069   0.730  0.4920 -0.2506  0.6122
 8687TIP3   OH247475   4.341   1.432  16.096  0.4884  0.1395  0.0549
 8687TIP3    H147476   4.353   1.471  16.009  0.4193  1.7638  0.7457
 8687TIP3    H247477   4.384   1.493  16.156 -0.9289 -0.0748  1.3417
 8688TIP3   OH247478   5.137   3.106  15.145  0.4049 -0.0463  0.2577
 8688TIP3    H147479   5.216   3.057  15.169  1.8957  2.6455  1.2742
 8688TIP3    H247480   5.083   3.042  15.099  2.4412 -2.4486  0.9478
 8689TIP3   OH247481   3.821   4.692  14.334 -0.4161  0.0463  0.0879
 8689TIP3    H147482   3.863   4.731  14.258  1.9724  0.1358  1.3617
 8689TIP3    H247483   3.730   4.679  14.307 -0.3052  2.5211 -1.8535
 8690TIP3   OH247484   2.496   5.653  16.668  0.5793 -0.2033  0.1058
 8690TIP3    H147485   2.434   5.644  16.741  0.4721 -3.4743 -0.2163
 8690TIP3    H247486   2.581   5.661  16.711  0.3801 -0.5938  0.5885
 8691TIP3   OH247487   4.880   5.472  17.151  0.1310  0.2263 -0.2069
 8691TIP3    H147488   4.918   5.394  17.193 -0.8527 -0.8763 -1.3050
 8691TIP3    H247489   4.838   5.520  17.223  2.7511  1.0409  0.9103
 8692TIP3   OH247490   4.380   5.333   5.982  0.1081  0.2322 -0.0532
 8692TIP3    H147491   4.294   5.293   5.964  0.4091 -1.2307  1.4912
 8692TIP3    H247492   4.362   5.398   6.050  0.0316  0.9121 -0.7107
 8693TIP3   OH247493   3.295   3.851   2.373 -0.2949 -0.0783 -0.1090
 8693TIP3    H147494   3.221   3.904   2.342 -1.4213 -1.2516  0.4529
 8693TIP3    H247495   3.334   3.816   2.293 -0.8187 -0.0393 -0.3906
 8694TIP3   OH247496   2.124   4.464  14.575 -0.7227 -0.1617  0.5077
 8694TIP3    H147497   2.171   4.523  14.635 -0.2097 -0.8880  0.8278
 8694TIP3    H247498   2.194   4.425  14.522 -1.1961  0.8149 -0.9052
 8695TIP3   OH247499   4.297   2.912   4.303  0.2879 -0.0418  0.5429
 8695TIP3    H147500   4.368   2.929   4.364 -0.5641 -0.6055  1.7425
 8695TIP3    H247501   4.253   2.834   4.338 -0.1875 -0.4367 -0.8433
 8696TIP3   OH247502   0.922   5.079  13.829 -0.2095  0.3275 -0.0434
 8696TIP3    H147503   0.981   5.152  13.809 -0.0721  0.4213  0.6805
 8696TIP3    H247504   0.964   5.003  13.789  0.8094  0.2573  1.1000
 8697TIP3   OH247505   1.563   2.377   3.971 -0.1990 -0.7027  0.0515
 8697TIP3    H147506   1.569   2.337   3.885 -1.8434 -0.3216 -0.2865
 8697TIP3    H247507   1.526   2.309   4.027  1.9733 -1.3533  0.8049
 8698TIP3   OH247508   4.391   3.098  17.090 -0.0267 -0.4188 -0.2590
 8698TIP3    H147509   4.346   3.175  17.126 -0.0744 -1.2829  1.6414
 8698TIP3    H247510   4.364   3.095  16.998 -0.5392  1.4486 -0.1975
 8699TIP3   OH247511   2.506   6.645   2.932  0.8786 -0.3964 -0.9446
 8699TIP3    H147512   2.462   6.698   2.999  1.8750  1.4621 -1.6936
 8699TIP3    H247513   2.528   6.564   2.977 -1.2385 -0.4842  0.0824
 8700TIP3   OH247514   2.481   3.163  13.212  0.0412 -0.4183  0.0276
 8700TIP3    H147515   2.562   3.208  13.186  1.2210 -2.4878 -0.0888
 8700TIP3    H247516   2.413   3.229  13.200  1.6797  1.3934  0.0729
 8701TIP3   OH247517   0.537   0.271  13.718  0.6890 -0.0856  0.1286
 8701TIP3    H147518   0.447   0.246  13.700  0.9723 -0.1854 -1.1920
 8701TIP3    H247519   0.537   0.366  13.717  0.9774 -0.0748 -1.9613
 8702TIP3   OH247520   2.894   3.983   5.942  0.4767 -0.2069  0.4956
 8702TIP3    H147521   2.970   3.968   5.885  0.8436  0.0699  0.9026
 8702TIP3    H247522   2.819   3.978   5.883  0.7358 -1.3673  0.2372
 8703TIP3   OH247523   2.136   2.562   1.961  0.0007  0.0137  0.2657
 8703TIP3    H147524   2.120   2.486   1.905 -0.3653 -1.6837  2.5176
 8703TIP3    H247525   2.102   2.536   2.047 -0.0802  2.7290  1.1539
 8704TIP3   OH247526   0.906   5.105  16.035 -0.1459 -0.4495 -0.6732
 8704TIP3    H147527   0.960   5.055  15.975 -0.5816  0.0536 -1.5023
 8704TIP3    H247528   0.968   5.145  16.096  0.1152 -3.7776  1.4890
 8705TIP3   OH247529   1.828   5.687   1.850  0.2950 -0.5116  0.0303
 8705TIP3    H147530   1.741   5.652   1.868 -0.0513 -0.1883 -0.9574
 8705TIP3    H247531   1.813   5.760   1.790  1.4128 -1.9988 -2.1975
 8706TIP3   OH247532   5.538   0.182   0.920  0.5392  0.2350  0.0048
 8706TIP3    H147533   5.632   0.188   0.938  0.5852  0.8741 -0.4135
 8706TIP3    H247534   5.503   0.265   0.952  0.2460  0.3298 -0.5420
 8707TIP3   OH247535   2.452   6.473  14.765 -0.1814 -0.5041 -0.0740
 8707TIP3    H147536   2.399   6.528  14.707  0.1638  1.1371  1.1095
 8707TIP3    H247537   2.528   6.449  14.712  0.3995  1.4199 -0.2009
 8708TIP3   OH247538   4.536   3.814   5.579  0.2263  0.1164  0.0204
 8708TIP3    H147539   4.452   3.824   5.533  0.2463 -0.9887 -0.2874
 8708TIP3    H247540   4.550   3.720   5.582  1.7704  0.3106 -0.4852
 8709TIP3   OH247541   2.426   3.253   3.389 -0.1471  0.6095  0.4018
 8709TIP3    H147542   2.425   3.200   3.469  1.7528 -0.6855 -0.3619
 8709TIP3    H247543   2.351   3.221   3.339  0.0737 -0.2965  0.6242
 8710TIP3   OH247544   0.944   6.468  10.973 -0.1060  1.0648  0.7087
 8710TIP3    H147545   0.957   6.453  10.879  0.8929 -0.0907  1.0056
 8710TIP3    H247546   0.868   6.526  10.978  0.7116  2.3613 -0.8662
 8711TIP3   OH247547   1.204   6.043   1.386 -0.5423  0.0857  0.1958
 8711TIP3    H147548   1.174   6.023   1.297 -0.7667 -1.8640  0.6526
 8711TIP3    H247549   1.205   5.958   1.430  0.8774  0.8159  1.6725
 8712TIP3   OH247550   0.565   4.229   3.792 -0.0892  0.1003  0.1777
 8712TIP3    H147551   0.641   4.178   3.766 -0.3056 -0.0071 -0.2424
 8712TIP3    H247552   0.602   4.309   3.831  0.2577 -0.6115  1.3766
 8713TIP3   OH247553   0.445   1.577  17.018 -0.0492  0.0385 -0.4024
 8713TIP3    H147554   0.441   1.589  16.923  1.6572  3.6121 -0.1980
 8713TIP3    H247555   0.502   1.648  17.048  2.4008 -3.0078  2.9930
 8714TIP3   OH247556   3.663   4.910  13.807  0.0111 -0.2817  0.0250
 8714TIP3    H147557   3.588   4.852  13.817 -0.0690 -0.1224  0.3858
 8714TIP3    H247558   3.739   4.851  13.805  0.0905 -0.3573  2.1098
 8715TIP3   OH247559   6.149   4.112  16.622 -0.5043 -0.1797 -0.5675
 8715TIP3    H147560   6.200   4.184  16.657 -2.3582  0.9121  0.0241
 8715TIP3    H247561   6.203   4.034  16.636  1.1278  0.9579 -0.3706
 8716TIP3   OH247562   2.809   4.168  12.582  0.4730 -0.2090  0.0367
 8716TIP3    H147563   2.902   4.188  12.591 -0.1200  3.1171 -0.0812
 8716TIP3    H247564   2.798   4.147  12.489  0.8611  1.0999 -0.3222
 8717TIP3   OH247565   2.045   6.279   0.212  0.2258 -0.0533 -0.4091
 8717TIP3    H147566   2.104   6.301   0.140  2.0125 -0.4624  0.8491
 8717TIP3    H247567   2.067   6.341   0.281 -0.9990 -0.0863  0.0383
 8718TIP3   OH247568   0.676   1.758   2.210 -0.4600  0.3218 -0.1500
 8718TIP3    H147569   0.669   1.853   2.209 -0.3399  0.4030  2.2600
 8718TIP3    H247570   0.714   1.737   2.295  1.5068 -1.7785 -1.4299
 8719TIP3   OH247571   0.135   3.661   3.134 -0.2625  0.5577 -0.6891
 8719TIP3    H147572   0.152   3.649   3.228  0.2855  0.2140 -0.8303
 8719TIP3    H247573   0.135   3.573   3.098  1.6137  0.7729 -1.3549
 8720TIP3   OH247574   3.940   4.016  17.066  0.2538 -0.4175 -0.6923
 8720TIP3    H147575   4.035   4.022  17.055  0.2594  0.5757 -0.1963
 8720TIP3    H247576   3.905   4.030  16.978  0.5555 -0.7916 -0.8787
 8721TIP3   OH247577   4.511   5.412   0.156 -0.4615  0.2443 -0.0019
 8721TIP3    H147578   4.607   5.403   0.160 -0.6731 -2.1511  2.7055
 8721TIP3    H247579   4.486   5.363   0.078  0.4839  1.6930 -1.3025
 8722TIP3   OH247580   1.067   5.507  12.535  0.1894  0.0781 -0.6795
 8722TIP3    H147581   1.160   5.500  12.558 -0.2152 -2.2143  0.6521
 8722TIP3    H247582   1.029   5.559  12.606  0.3301  0.3749 -0.8209
 8723TIP3   OH247583   4.037   0.221   5.536 -0.5067 -0.1766  0.1499
 8723TIP3    H147584   3.992   0.157   5.592 -0.2113  0.3861  1.0436
 8723TIP3    H247585   3.965   0.268   5.494 -0.7319 -0.7677 -0.1511
 8724TIP3   OH247586   5.308   1.418   1.938 -0.0704 -0.9700 -0.1283
 8724TIP3    H147587   5.386   1.412   1.882 -0.4509 -3.3670 -0.4855
 8724TIP3    H247588   5.255   1.342   1.914 -2.6335  0.6496  0.0015
 8725TIP3   OH247589   3.323   3.033  11.333  0.0466  0.1560  0.2457
 8725TIP3    H147590   3.264   3.084  11.277  1.5455  1.3641 -0.2928
 8725TIP3    H247591   3.309   2.942  11.305 -1.4041  0.4180  0.0182
 8726TIP3   OH247592   6.306   4.805  11.657 -0.0632 -0.3026  0.6831
 8726TIP3    H147593   6.383   4.824  11.712 -0.0703  0.0289  0.5784
 8726TIP3    H247594   6.266   4.890  11.643  0.2158 -0.3185 -0.2581
 8727TIP3   OH247595   2.468   0.762   4.035 -0.5756  0.6091  0.0157
 8727TIP3    H147596   2.532   0.712   3.984 -0.5362  0.4448  0.2261
 8727TIP3    H247597   2.467   0.848   3.994 -1.0451  0.2744 -0.6904
 8728TIP3   OH247598   1.325   2.567   1.617 -0.0417 -0.2785  0.0572
 8728TIP3    H147599   1.320   2.505   1.690  1.1838 -0.9344 -0.3719
 8728TIP3    H247600   1.247   2.549   1.564 -0.4202 -0.4859  0.6813
 8729TIP3   OH247601   1.195   1.669   1.737 -0.4677  0.2078 -0.7423
 8729TIP3    H147602   1.246   1.747   1.715  0.9097 -1.1755 -2.7478
 8729TIP3    H247603   1.106   1.691   1.711 -0.5585  1.8526  0.7503
 8730TIP3   OH247604   6.490   5.009  14.958  0.6447  0.4622 -0.0251
 8730TIP3    H147605   6.518   5.052  15.039 -0.1350  0.2700  0.3540
 8730TIP3    H247606   6.510   4.917  14.971 -1.7355  0.0380  0.9786
 8731TIP3   OH247607   3.891   6.080   1.882 -0.3275  0.1926  0.1048
 8731TIP3    H147608   3.957   6.014   1.863 -0.8382  0.0253 -1.1990
 8731TIP3    H247609   3.809   6.032   1.889 -0.7595  0.6816 -1.1806
 8732TIP3   OH247610   6.180   3.536   1.019 -0.0170  0.2532  0.0264
 8732TIP3    H147611   6.250   3.600   1.034 -0.7371  1.2310 -0.6595
 8732TIP3    H247612   6.134   3.532   1.103  1.5513 -1.3125  0.8717
 8733TIP3   OH247613   2.189   6.304   1.867  0.3118  0.0654  0.1501
 8733TIP3    H147614   2.261   6.241   1.862  0.3403  0.1789 -1.3251
 8733TIP3    H247615   2.216   6.365   1.937  2.1461  0.6711 -1.0099
 8734TIP3   OH247616   4.456   4.750  12.493  0.6630  0.4904 -0.2964
 8734TIP3    H147617   4.452   4.809  12.418 -0.6387  0.6011 -0.1783
 8734TIP3    H247618   4.385   4.781  12.551  0.6919 -0.4892  0.2897
 8735TIP3   OH247619   2.394   5.365   3.172 -0.2747 -0.1679  0.0091
 8735TIP3    H147620   2.323   5.427   3.160 -0.2759 -0.5023 -2.0894
 8735TIP3    H247621   2.469   5.405   3.127  0.5683 -0.3369  1.2073
 8736TIP3   OH247622   1.398   0.709  12.978 -0.3924  0.2087  0.5644
 8736TIP3    H147623   1.465   0.649  12.946 -0.8165 -0.3987  0.8003
 8736TIP3    H247624   1.411   0.789  12.927 -0.4007 -0.3903 -0.4047
 8737TIP3   OH247625   4.548   0.039  14.362 -0.2840  0.2409 -0.3749
 8737TIP3    H147626   4.459   0.015  14.391 -0.0857  0.0727  0.1128
 8737TIP3    H247627   4.604   0.011  14.434  0.1515  0.4849 -0.6191
 8738TIP3   OH247628   0.572   5.127  12.452  0.4222 -1.0043  0.0940
 8738TIP3    H147629   0.527   5.167  12.378 -1.5897  0.4660  1.9806
 8738TIP3    H247630   0.582   5.035  12.428  0.2995 -0.4652 -2.1733
 8739TIP3   OH247631   1.807   0.270   3.048  0.2552  0.2246 -0.1261
 8739TIP3    H147632   1.791   0.176   3.057 -1.2803  0.6098  2.0429
 8739TIP3    H247633   1.777   0.291   2.959  0.5859 -1.2951 -0.6322
 8740TIP3   OH247634   2.650   6.290  15.435  0.1281 -0.5847  0.1420
 8740TIP3    H147635   2.661   6.199  15.461  0.1959 -0.9164 -1.0027
 8740TIP3    H247636   2.694   6.340  15.504  0.2648 -1.4192  0.6745
 8741TIP3   OH247637   1.663   5.193  11.490  0.5986  0.9255 -0.4237
 8741TIP3    H147638   1.612   5.230  11.562  0.8457 -0.6559  0.6167
 8741TIP3    H247639   1.616   5.218  11.411 -0.3874  1.6268  0.3649
 8742TIP3   OH247640   0.295   0.808  11.574  0.2175 -0.0346 -0.5663
 8742TIP3    H147641   0.354   0.827  11.501  0.7190  1.0707  0.1020
 8742TIP3    H247642   0.349   0.821  11.652 -0.7336  0.3394  0.0433
 8743TIP3   OH247643   6.644   4.407   2.221  0.3442  0.7875 -0.1357
 8743TIP3    H147644   6.630   4.338   2.156  2.8232 -0.1403  0.2097
 8743TIP3    H247645   6.578   4.389   2.288 -1.3116  0.9015 -1.6418
 8744TIP3   OH247646   5.144   1.049   3.631 -0.0964 -0.0408 -0.0785
 8744TIP3    H147647   5.204   1.079   3.563  1.1605 -2.8307 -0.3326
 8744TIP3    H247648   5.057   1.065   3.595  0.5350 -0.2483 -1.7952
 8745TIP3   OH247649   2.866   1.115   1.254 -0.6306 -0.1571 -0.2267
 8745TIP3    H147650   2.899   1.064   1.328  0.1711  0.3731 -0.1988
 8745TIP3    H247651   2.802   1.058   1.212 -0.4786 -0.7938  0.3814
 8746TIP3   OH247652   4.039   2.416  16.101  0.6326  0.7827 -0.0339
 8746TIP3    H147653   4.073   2.411  16.012  0.4012  1.9125 -0.1920
 8746TIP3    H247654   4.070   2.335  16.142  1.8694  0.8578 -0.7504
 8747TIP3   OH247655   2.455   4.319   1.716  0.3756  0.1592 -0.3216
 8747TIP3    H147656   2.386   4.263   1.680  1.6507 -1.3753 -0.5041
 8747TIP3    H247657   2.523   4.257   1.744  0.5230  1.4270  2.4367
 8748TIP3   OH247658   0.841   6.741   4.297  0.2593 -0.0158 -0.2583
 8748TIP3    H147659   0.877   6.821   4.335 -1.4362  0.2125  0.9530
 8748TIP3    H247660   0.768   6.718   4.353 -1.6474 -0.3347 -2.6928
 8749TIP3   OH247661   1.488   5.563  14.679 -0.0958 -0.6437 -0.0315
 8749TIP3    H147662   1.546   5.617  14.732  1.1596  1.5236 -3.2452
 8749TIP3    H247663   1.401   5.580  14.713  0.7287 -0.6945  2.2898
 8750TIP3   OH247664   6.442   1.486  15.186 -0.3285  0.0252  0.1120
 8750TIP3    H147665   6.405   1.571  15.210  2.0856  1.0700  0.5227
 8750TIP3    H247666   6.534   1.492  15.212  0.4158 -1.9771 -1.7191
 8751TIP3   OH247667   0.703   6.057  16.793  0.0387  0.5079  0.2292
 8751TIP3    H147668   0.742   6.139  16.762 -2.3019  1.1370 -1.2629
 8751TIP3    H247669   0.779   6.002  16.813  1.7631  1.5614 -2.6908
 8752TIP3   OH247670   0.137   6.780  15.108 -0.4645 -0.2237  0.0293
 8752TIP3    H147671   0.107   6.697  15.071 -0.1727 -0.2773 -0.0899
 8752TIP3    H247672   0.068   6.805  15.169 -1.7481  0.6739 -1.7127
 8753TIP3   OH247673   3.845   3.268   0.820 -0.3185  0.2738 -0.0173
 8753TIP3    H147674   3.924   3.268   0.767  1.5911  0.7312  2.6319
 8753TIP3    H247675   3.774   3.255   0.757  1.6897  1.3863 -2.7068
 8754TIP3   OH247676   4.953   0.834   5.154  0.5148  0.3630 -0.2831
 8754TIP3    H147677   4.944   0.842   5.059 -0.5053  0.4223 -0.1924
 8754TIP3    H247678   5.033   0.782   5.166  0.7503  0.5033 -1.1653
 8755TIP3   OH247679   5.038   6.471   0.327  0.3834  0.4456 -0.2498
 8755TIP3    H147680   5.044   6.459   0.421 -0.2639 -1.4691 -0.3965
 8755TIP3    H247681   5.099   6.407   0.291 -1.3679 -0.8560 -1.1259
 8756TIP3   OH247682   5.003   1.447   0.725  0.6340 -0.2453 -0.2956
 8756TIP3    H147683   4.918   1.485   0.700  0.0747 -1.6946 -0.7041
 8756TIP3    H247684   5.067   1.513   0.698 -0.3071  0.5443 -0.6980
 8757TIP3   OH247685   1.165   1.966   2.422  0.5377 -0.4691 -0.1393
 8757TIP3    H147686   1.136   2.031   2.486  1.3049 -0.1049 -0.1354
 8757TIP3    H247687   1.087   1.916   2.400 -0.4695  1.5009 -1.3572
 8758TIP3   OH247688   0.704   4.628  14.366 -0.1042 -0.2455 -0.4829
 8758TIP3    H147689   0.756   4.639  14.286 -0.0182  0.9857 -0.2642
 8758TIP3    H247690   0.663   4.713  14.380  2.0802  0.4663  2.3178
 8759TIP3   OH247691   2.616   1.907  16.953 -0.0115  0.3887 -0.5949
 8759TIP3    H147692   2.589   1.959  16.876  1.0644  0.5773 -0.8648
 8759TIP3    H247693   2.622   1.817  16.920 -1.4931  0.1405 -0.2241
 8760TIP3   OH247694   4.185   0.538   3.158 -0.5645 -0.2999  0.4131
 8760TIP3    H147695   4.278   0.516   3.164 -1.0682 -2.8806 -0.0282
 8760TIP3    H247696   4.182   0.615   3.102  1.3633  0.4987  1.3120
 8761TIP3   OH247697   3.351   0.994   5.123 -0.0143  0.6678 -0.1858
 8761TIP3    H147698   3.345   0.899   5.113 -0.0739  0.7912 -1.4920
 8761TIP3    H247699   3.350   1.008   5.218  1.2779 -0.7042  0.0698
 8762TIP3   OH247700   1.493   4.644   6.740  0.2733  0.5341  0.2169
 8762TIP3    H147701   1.476   4.584   6.813  0.6582 -0.5629 -0.5733
 8762TIP3    H247702   1.584   4.628   6.716  0.1843  0.9782 -0.4349
 8763TIP3   OH247703   4.143   4.139  16.476 -0.3466 -0.6241  0.2404
 8763TIP3    H147704   4.101   4.219  16.507  0.7284 -0.6427  1.8655
 8763TIP3    H247705   4.092   4.113  16.400  0.6406  2.8806 -1.8347
 8764TIP3   OH247706   3.522   4.979  15.125 -0.0898  0.8913  0.6236
 8764TIP3    H147707   3.528   4.886  15.147 -0.6280  0.3411 -1.3687
 8764TIP3    H247708   3.436   5.005  15.156 -1.5224 -0.2846 -2.0347
 8765TIP3   OH247709   5.202   5.506  15.451 -0.5489  0.5721  0.8278
 8765TIP3    H147710   5.158   5.513  15.366  0.2678  1.0109  0.4387
 8765TIP3    H247711   5.162   5.574  15.504 -1.3446  0.0416  0.9338
 8766TIP3   OH247712   6.223   6.735   4.234  0.6510 -0.2942  0.4122
 8766TIP3    H147713   6.254   6.648   4.206  1.3794  0.1935 -0.3598
 8766TIP3    H247714   6.133   6.740   4.203  1.2339 -0.0245 -1.3343
 8767TIP3   OH247715   6.718   5.394  15.187  0.1464  0.0301  0.4229
 8767TIP3    H147716   6.741   5.462  15.122  0.1371  1.0986  1.4975
 8767TIP3    H247717   6.794   5.335  15.187 -0.4372 -0.8149 -1.5494
 8768TIP3   OH247718   3.882   5.536  15.483  0.1895  0.1529  0.4730
 8768TIP3    H147719   3.854   5.604  15.544  0.7329  1.4985 -0.7452
 8768TIP3    H247720   3.978   5.538  15.487  0.2137 -0.3162  0.1768
 8769TIP3   OH247721   0.102   1.512   4.495 -0.0412 -0.3896 -0.5493
 8769TIP3    H147722   0.007   1.523   4.494 -0.6421 -4.3824 -0.9926
 8769TIP3    H247723   0.119   1.444   4.560  2.6012  0.4026 -0.2633
 8770TIP3   OH247724   0.184   0.253  14.776 -0.1107 -0.1958  0.0844
 8770TIP3    H147725   0.146   0.165  14.768  0.2449 -0.1693 -4.7698
 8770TIP3    H247726   0.111   0.312  14.755  0.5713  0.3791 -0.7025
 8771TIP3   OH247727   2.113   2.693   6.038  0.0217  0.5027 -0.5220
 8771TIP3    H147728   2.055   2.761   6.072 -1.7516 -1.9940  1.9075
 8771TIP3    H247729   2.192   2.700   6.091 -0.7501 -0.1678  0.7863
 8772TIP3   OH247730   0.630   0.384   4.749 -0.5139  0.6319  0.2063
 8772TIP3    H147731   0.708   0.354   4.795 -1.0542 -0.5197  0.4090
 8772TIP3    H247732   0.591   0.305   4.713 -1.6733  1.1635  0.2345
 8773TIP3   OH247733   0.082   1.636  12.021 -0.0415 -0.5089 -0.4271
 8773TIP3    H147734   0.158   1.578  12.025 -1.1022 -1.9362 -0.0265
 8773TIP3    H247735   0.093   1.696  12.095 -0.2648 -1.9654  0.8254
 8774TIP3   OH247736   0.821   3.547  14.754 -0.1405  0.1608  0.1203
 8774TIP3    H147737   0.797   3.546  14.846 -0.0779 -0.8824  0.1306
 8774TIP3    H247738   0.742   3.522  14.707 -0.5442  1.9324 -0.2238
 8775TIP3   OH247739   3.448   6.538  16.356  0.3327  0.0660 -0.4417
 8775TIP3    H147740   3.470   6.485  16.433 -0.2820 -0.1347 -0.3939
 8775TIP3    H247741   3.532   6.560  16.317  0.6031 -1.4489 -0.7944
 8776TIP3   OH247742   0.756   0.883   4.540 -0.0970  0.3172 -0.4081
 8776TIP3    H147743   0.701   0.960   4.553 -0.8677 -0.3954  0.6625
 8776TIP3    H247744   0.709   0.812   4.583  1.8360 -0.2449  0.9049
 8777TIP3   OH247745   2.719   6.011  16.709 -0.5980  0.1105  0.6677
 8777TIP3    H147746   2.691   6.096  16.674  1.4777  0.2168 -0.9131
 8777TIP3    H247747   2.694   5.947  16.643  4.1186  0.4082 -1.8353
 8778TIP3   OH247748   5.373   1.657  15.030 -0.2745  0.1590 -0.2753
 8778TIP3    H147749   5.296   1.613  15.068  1.8491 -2.6832  1.0732
 8778TIP3    H247750   5.394   1.606  14.952  1.0281  0.0450  0.1315
 8779TIP3   OH247751   3.988   2.292  11.865 -0.0795  1.0087 -0.0837
 8779TIP3    H147752   3.984   2.265  11.957 -0.0723 -0.8657 -0.5863
 8779TIP3    H247753   4.082   2.302  11.847 -0.0602  1.0493  0.0429
 8780TIP3   OH247754   6.336   6.782  14.646  0.2950  0.5541  0.2830
 8780TIP3    H147755   6.288   6.720  14.701  0.3440 -0.8664 -1.2080
 8780TIP3    H247756   6.421   6.792  14.691  0.7206 -1.3718 -0.0160
 8781TIP3   OH247757   2.028   1.710   5.815  0.5424 -0.1597 -0.7304
 8781TIP3    H147758   2.020   1.644   5.746 -1.0970 -0.9852  0.1997
 8781TIP3    H247759   1.942   1.750   5.821  0.5414 -0.3581  1.0780
 8782TIP3   OH247760   3.805   3.488   5.334 -0.2403  0.1370  0.1939
 8782TIP3    H147761   3.736   3.554   5.328  0.2730  0.9552  2.3474
 8782TIP3    H247762   3.885   3.536   5.315 -0.0338 -0.2835 -0.0064
 8783TIP3   OH247763   5.129   5.723  12.139  0.4957 -0.0509 -0.2813
 8783TIP3    H147764   5.157   5.682  12.058  1.9436 -0.8940  0.5940
 8783TIP3    H247765   5.072   5.659  12.181 -1.0872  0.7914 -1.0556
 8784TIP3   OH247766   0.065   5.711   0.537  0.3523 -0.2249  0.0537
 8784TIP3    H147767   0.057   5.651   0.611  2.7387 -1.6762 -0.7689
 8784TIP3    H247768  -0.023   5.748   0.526 -0.3142 -0.7406  2.9126
 8785TIP3   OH247769   4.195   4.484   1.238  0.1974 -0.7812  0.3620
 8785TIP3    H147770   4.283   4.486   1.199 -0.3816  0.2881 -0.9790
 8785TIP3    H247771   4.174   4.576   1.255 -0.3309 -1.0963  1.4736
 8786TIP3   OH247772   5.799   0.913  13.365  0.3880 -0.2552 -0.0409
 8786TIP3    H147773   5.767   0.874  13.447 -0.3577  1.7244  0.6684
 8786TIP3    H247774   5.720   0.932  13.315  0.8031 -0.7118 -0.8783
 8787TIP3   OH247775   5.297   3.879   0.145  0.1825  0.1808  0.3586
 8787TIP3    H147776   5.325   3.788   0.138  2.1614  0.8420 -1.2706
 8787TIP3    H247777   5.373   3.930   0.116 -1.2017  2.3276  0.2546
 8788TIP3   OH247778   4.936   3.746   4.810 -0.5018  0.0912 -0.1243
 8788TIP3    H147779   5.000   3.794   4.862 -0.3856  1.1893 -1.2224
 8788TIP3    H247780   4.962   3.655   4.817 -0.5599  0.1939  1.7968
 8789TIP3   OH247781   1.498   0.146   0.072 -0.2787 -0.1760 -0.1299
 8789TIP3    H147782   1.548   0.096   0.136 -0.8390 -0.0866  0.3952
 8789TIP3    H247783   1.519   0.238   0.091  0.9368 -0.1987 -1.2493
 8790TIP3   OH247784   6.637   0.127   1.027 -0.0354 -0.6295 -0.0674
 8790TIP3    H147785   6.659   0.177   1.106  0.2429  1.9140 -1.6489
 8790TIP3    H247786   6.542   0.119   1.029 -0.2825  1.5032 -0.5553
 8791TIP3   OH247787   3.370   0.835  14.754  0.1224 -0.3097 -0.4980
 8791TIP3    H147788   3.427   0.910  14.769 -0.7240  0.2028  0.2120
 8791TIP3    H247789   3.419   0.761  14.791  1.1934 -0.2312 -1.6827
 8792TIP3   OH247790   1.549   0.753   4.408  0.1880  0.3534  0.4142
 8792TIP3    H147791   1.585   0.842   4.418  0.5556  0.4927 -1.6530
 8792TIP3    H247792   1.573   0.728   4.319 -1.7304 -1.0045  0.2252
 8793TIP3   OH247793   0.666   4.762   3.839 -0.1068 -0.3311  0.1805
 8793TIP3    H147794   0.732   4.694   3.823 -0.2255 -0.5898  0.7802
 8793TIP3    H247795   0.674   4.782   3.932 -2.5624 -2.1466  0.8799
 8794TIP3   OH247796   2.864   6.203   2.485 -0.0160 -0.6345  0.7511
 8794TIP3    H147797   2.826   6.117   2.467 -0.5494 -0.5252  1.3356
 8794TIP3    H247798   2.884   6.239   2.398 -0.9352 -0.8345  0.4504
 8795TIP3   OH247799   6.324   3.616  16.137 -0.2078  0.0948  0.4711
 8795TIP3    H147800   6.239   3.654  16.117 -0.0758  0.3735  0.4349
 8795TIP3    H247801   6.361   3.674  16.204  0.0403  0.0924  0.3381
 8796TIP3   OH247802   3.788   5.779  15.965 -0.0780  0.0796 -0.2404
 8796TIP3    H147803   3.741   5.726  16.029 -0.6414  1.6715  0.7068
 8796TIP3    H247804   3.722   5.840  15.931  0.9662  1.4988  0.1729
 8797TIP3   OH247805   4.056   6.407   2.731 -0.2086 -0.2681 -0.2186
 8797TIP3    H147806   4.145   6.390   2.759 -0.2343  0.8408  0.5899
 8797TIP3    H247807   4.050   6.368   2.644  1.1779 -0.0184 -0.4428
 8798TIP3   OH247808   5.164   0.458   5.300 -0.3286 -0.1165 -0.2348
 8798TIP3    H147809   5.148   0.364   5.291  2.8499 -0.8322  0.3127
 8798TIP3    H247810   5.137   0.479   5.389  2.5750 -1.5521  1.1394
 8799TIP3   OH247811   3.790   3.895   4.505 -0.5602  0.0811 -0.2500
 8799TIP3    H147812   3.830   3.876   4.420 -0.7828  1.0531 -0.5878
 8799TIP3    H247813   3.757   3.985   4.496 -3.4814 -0.8852 -0.2928
 8800TIP3   OH247814   2.046   0.713  16.677 -0.2386 -0.3960  0.3308
 8800TIP3    H147815   2.000   0.795  16.660  0.4236  0.2189  1.3402
 8800TIP3    H247816   2.039   0.664  16.596 -1.2340  0.3769 -0.0692
 8801TIP3   OH247817   5.962   1.212  14.299 -0.5174  0.2056 -0.4543
 8801TIP3    H147818   6.000   1.266  14.230  2.5613  1.3788  1.9267
 8801TIP3    H247819   5.901   1.270  14.344  0.2657  0.6573  0.0440
 8802TIP3   OH247820   5.492   1.919   0.695  0.4142  0.4765 -0.3889
 8802TIP3    H147821   5.559   1.858   0.664  1.6127  0.1599  2.4850
 8802TIP3    H247822   5.494   1.911   0.790 -2.4452  1.8794 -0.0941
 8803TIP3   OH247823   6.623   3.148   2.834  0.2723  0.4319 -0.3267
 8803TIP3    H147824   6.675   3.185   2.763 -1.4583  3.4550 -0.2024
 8803TIP3    H247825   6.674   3.164   2.913  2.1339 -2.8061 -0.6937
 8804TIP3   OH247826   1.313   2.447   2.705  0.2352  0.4478  0.0128
 8804TIP3    H147827   1.249   2.383   2.673  0.8417 -0.5208  0.6747
 8804TIP3    H247828   1.260   2.519   2.739 -0.4821  0.0615 -0.2644
 8805TIP3   OH247829   2.874   3.375   4.610 -0.1743  0.3247  0.1414
 8805TIP3    H147830   2.917   3.417   4.535  1.3226  0.1479  0.8665
 8805TIP3    H247831   2.883   3.437   4.682 -1.6739  0.5266  0.1838
 8806TIP3   OH247832   0.129   2.993   6.661  0.3475 -0.6567  0.0037
 8806TIP3    H147833   0.170   2.910   6.687  0.6674 -0.3048  0.6391
 8806TIP3    H247834   0.037   2.981   6.683  0.6673 -0.2405  1.6571
 8807TIP3   OH247835   4.417   4.135  15.108  0.3138 -0.1597 -0.4548
 8807TIP3    H147836   4.504   4.165  15.135  0.8445 -0.8834 -1.2947
 8807TIP3    H247837   4.434   4.063  15.048 -0.9005 -1.3344  0.5541
 8808TIP3   OH247838   2.293   6.710   4.214  0.6090 -0.2009  0.3856
 8808TIP3    H147839   2.209   6.677   4.181  1.1592 -1.1736 -0.1205
 8808TIP3    H247840   2.346   6.631   4.226  2.2004  0.5013 -1.4380
 8809TIP3   OH247841   3.419   1.635   5.404  0.2144  0.1059  0.1768
 8809TIP3    H147842   3.451   1.549   5.375 -0.3048 -0.6309  1.6543
 8809TIP3    H247843   3.438   1.637   5.498 -0.4991  1.2836  0.3140
 8810TIP3   OH247844   5.030   5.439   6.079  0.4297 -0.2060 -0.1758
 8810TIP3    H147845   4.971   5.389   6.135 -0.4793 -0.8191 -1.6412
 8810TIP3    H247846   5.118   5.421   6.114  0.0596 -2.2677 -0.2207
 8811TIP3   OH247847   6.334   0.667  15.915 -0.5991  0.4961 -0.4462
 8811TIP3    H147848   6.257   0.702  15.870 -0.2300  2.2208  0.1661
 8811TIP3    H247849   6.393   0.742  15.923  0.6624 -0.5151  0.1210
 8812TIP3   OH247850   3.269   3.881   1.179  0.4045  0.1855 -0.5948
 8812TIP3    H147851   3.336   3.944   1.206  0.7056 -0.8767  1.2307
 8812TIP3    H247852   3.246   3.833   1.258 -2.1720  0.1512 -1.2480
 8813TIP3   OH247853   0.935   4.232   0.005 -1.0074 -0.6485  0.0974
 8813TIP3    H147854   0.936   4.305   0.067 -2.2516 -0.6267  0.1089
 8813TIP3    H247855   0.913   4.155   0.058 -2.2469 -0.6006 -0.3193
 8814TIP3   OH247856   1.865   6.350   4.063  0.0701 -0.0501 -0.0546
 8814TIP3    H147857   1.787   6.405   4.059 -0.5039 -0.8569 -0.3452
 8814TIP3    H247858   1.890   6.337   3.972  0.4611  0.0899  0.0323
 8815TIP3   OH247859   0.149   0.480  12.103 -0.1569  0.0077  0.5304
 8815TIP3    H147860   0.146   0.531  12.022  0.3921 -0.7897 -0.0098
 8815TIP3    H247861   0.074   0.420  12.096  0.1639 -0.3846  0.3769
 8816TIP3   OH247862   3.112   6.484  11.459 -0.2899  0.7396 -0.3836
 8816TIP3    H147863   3.145   6.398  11.486  1.2220  1.5751  0.5637
 8816TIP3    H247864   3.074   6.521  11.539  1.2058  1.8813 -0.1665
 8817TIP3   OH247865   5.752   4.281   2.901 -0.2608  0.0170 -0.0049
 8817TIP3    H147866   5.832   4.268   2.849  0.1256 -1.7634  0.9569
 8817TIP3    H247867   5.782   4.277   2.992 -1.4484 -0.7585  0.3679
 8818TIP3   OH247868   5.442   4.716   2.420 -0.3417  0.4785  0.0768
 8818TIP3    H147869   5.523   4.753   2.386  0.4174  0.0376  1.3538
 8818TIP3    H247870   5.383   4.791   2.428 -0.1117  0.7881 -0.9485
 8819TIP3   OH247871   0.330   3.566  14.456  0.0353 -0.4631  0.2558
 8819TIP3    H147872   0.425   3.576  14.455  0.0869 -0.9683  0.2171
 8819TIP3    H247873   0.298   3.652  14.483  0.5051 -0.3156  0.3545
 8820TIP3   OH247874   4.165   2.371   3.681  0.4105  0.2019  0.3568
 8820TIP3    H147875   4.220   2.354   3.605 -0.9283  0.3764 -0.6751
 8820TIP3    H247876   4.191   2.304   3.745  1.1751 -0.2811 -0.4444
 8821TIP3   OH247877   3.459   2.567   1.118  0.1578  0.0060 -0.4025
 8821TIP3    H147878   3.427   2.500   1.178  1.7187 -1.1946 -0.8216
 8821TIP3    H247879   3.380   2.608   1.082 -0.8110 -0.1920  1.3990
 8822TIP3   OH247880   3.297   6.742   0.673 -0.1637  0.4679  0.1847
 8822TIP3    H147881   3.383   6.706   0.650 -0.0706  0.3614  0.6947
 8822TIP3    H247882   3.235   6.674   0.647  0.0034 -0.0203  1.0417
 8823TIP3   OH247883   4.456   2.022  11.125  0.4261  0.5983 -0.4000
 8823TIP3    H147884   4.379   2.071  11.154  0.2538  0.0127  0.1488
 8823TIP3    H247885   4.421   1.958  11.063  0.0700 -1.2620  1.5989
 8824TIP3   OH247886   5.218   1.732   5.098 -0.2359  0.2154  0.2549
 8824TIP3    H147887   5.270   1.693   5.028  1.8400 -0.4284  2.0656
 8824TIP3    H247888   5.260   1.816   5.116 -1.7374  1.1290 -0.3104
 8825TIP3   OH247889   6.457   3.072   2.063 -0.4706  0.3041 -0.1555
 8825TIP3    H147890   6.500   3.156   2.049 -1.3509  1.4930  3.2249
 8825TIP3    H247891   6.524   3.016   2.101 -0.4130  0.2201 -0.3856
 8826TIP3   OH247892   5.464   6.467   4.414  0.4372 -0.4265 -0.2057
 8826TIP3    H147893   5.438   6.542   4.360 -2.9181 -0.1845  1.4945
 8826TIP3    H247894   5.501   6.506   4.493 -0.8133 -0.4889  0.4450
 8827TIP3   OH247895   6.162   6.723  12.778 -0.2292  0.1995 -0.6127
 8827TIP3    H147896   6.234   6.718  12.717  1.2418  0.1830  1.0448
 8827TIP3    H247897   6.137   6.816  12.779  0.4046  0.3749 -0.5250
 8828TIP3   OH247898   3.680   4.386  14.362 -0.0456  0.2050  0.2242
 8828TIP3    H147899   3.586   4.373  14.348  0.1417  0.1332 -1.1528
 8828TIP3    H247900   3.722   4.323  14.303  0.8562  1.5231 -0.6067
 8829TIP3   OH247901   4.332   5.985   0.663 -0.3661  0.5481 -0.0568
 8829TIP3    H147902   4.396   5.915   0.677  1.1108  1.4781 -1.7353
 8829TIP3    H247903   4.359   6.026   0.581 -1.8721  2.3661  0.2835
 8830TIP3   OH247904   3.141   0.302   3.920 -0.1062  0.0218  0.1953
 8830TIP3    H147905   3.171   0.345   4.000 -0.3571 -0.3557  0.4968
 8830TIP3    H247906   3.099   0.372   3.870  1.3291  0.5872 -0.2816
 8831TIP3   OH247907   2.572   6.517  12.745  0.4253 -0.4428 -0.4245
 8831TIP3    H147908   2.479   6.532  12.762  0.8547  0.7509  1.1880
 8831TIP3    H247909   2.600   6.459  12.816  0.8573 -1.0134 -1.0502
 8832TIP3   OH247910   6.135   3.475   2.074 -0.3407  0.6396 -0.5224
 8832TIP3    H147911   6.074   3.404   2.094  0.4013 -0.3951 -1.7663
 8832TIP3    H247912   6.092   3.523   2.003 -0.2583  0.6380 -0.5738
 8833TIP3   OH247913   0.671   4.925  15.942  0.8240  0.0278  0.2852
 8833TIP3    H147914   0.750   4.936  15.889 -0.1891 -2.1458 -1.8855
 8833TIP3    H247915   0.604   4.978  15.898  0.1779 -1.1195 -0.1605
 8834TIP3   OH247916   3.281   3.691   2.696 -0.1020  0.4743 -0.1319
 8834TIP3    H147917   3.243   3.681   2.609 -1.5387  1.1616  0.3735
 8834TIP3    H247918   3.217   3.650   2.754 -0.0299  1.5668  0.7547
 8835TIP3   OH247919   6.418   3.597   3.658  0.0638  0.2021  0.2316
 8835TIP3    H147920   6.459   3.561   3.579  3.0965 -1.1780  2.2202
 8835TIP3    H247921   6.346   3.537   3.678  1.9962 -2.0768  0.8008
 8836TIP3   OH247922   2.849   0.722  16.917 -0.3735  0.5207 -0.1089
 8836TIP3    H147923   2.914   0.655  16.895 -1.1397 -0.4043  0.3976
 8836TIP3    H247924   2.838   0.771  16.835  1.8172  1.4927  0.0899
 8837TIP3   OH247925   2.076   1.538   1.913 -0.5163 -0.0075 -0.0244
 8837TIP3    H147926   2.046   1.515   2.000 -1.3259 -0.5477 -0.4388
 8837TIP3    H247927   2.134   1.466   1.888  0.4471  0.5954  0.4184
 8838TIP3   OH247928   6.562   5.425  16.437 -0.3070 -0.3669  0.0057
 8838TIP3    H147929   6.537   5.476  16.514  0.2757  0.5122 -0.3717
 8838TIP3    H247930   6.586   5.490  16.372  4.0960 -1.0166  0.6773
 8839TIP3   OH247931   4.348   6.630   3.132 -0.1403  0.1076 -0.3418
 8839TIP3    H147932   4.428   6.615   3.184  0.3111 -0.1234 -1.0968
 8839TIP3    H247933   4.288   6.670   3.194  0.5389  0.2239  0.2651
 8840TIP3   OH247934   2.352   4.306  13.298 -0.1778  0.1732 -0.7291
 8840TIP3    H147935   2.359   4.275  13.389  1.3765  1.5710 -0.3290
 8840TIP3    H247936   2.440   4.296  13.262 -0.4368  0.9853 -1.6381
 8841TIP3   OH247937   6.641   5.753  11.669  0.2739 -0.2540 -0.6463
 8841TIP3    H147938   6.621   5.680  11.727 -0.6024  0.6585  0.2195
 8841TIP3    H247939   6.733   5.738  11.643  0.9289 -0.3073  1.5292
 8842TIP3   OH247940   1.736   6.679  14.781 -0.0225  0.4295  0.2403
 8842TIP3    H147941   1.764   6.736  14.709  0.0735  1.1620  0.8375
 8842TIP3    H247942   1.805   6.689  14.847  1.1305 -2.0732 -0.4770
 8843TIP3   OH247943   5.638   2.946  15.856  0.3372  0.7865  0.5558
 8843TIP3    H147944   5.552   2.960  15.897  0.3989 -0.2238  1.0505
 8843TIP3    H247945   5.701   2.964  15.926  0.4189 -1.9736  1.2876
 8844TIP3   OH247946   3.316   2.767   5.575  0.0591 -0.7222 -0.7732
 8844TIP3    H147947   3.266   2.807   5.646  1.4485 -2.1590  1.1113
 8844TIP3    H247948   3.299   2.823   5.499 -0.9066  1.3054  0.8385
 8845TIP3   OH247949   1.583   4.161  12.197  0.9010 -0.1161  0.3535
 8845TIP3    H147950   1.617   4.153  12.286  0.2833 -0.0440  0.6035
 8845TIP3    H247951   1.586   4.255  12.178  1.0776 -0.1365  0.2809
 8846TIP3   OH247952   6.704   1.949  12.554  0.8051  0.0262 -0.7724
 8846TIP3    H147953   6.676   2.017  12.616  3.7527 -0.7170  1.6146
 8846TIP3    H247954   6.776   1.989  12.506  1.5610 -0.8918 -0.4221
 8847TIP3   OH247955   5.063   3.277  14.802 -0.3096 -0.5188  0.7549
 8847TIP3    H147956   5.030   3.188  14.802 -1.0711 -0.2501  0.3410
 8847TIP3    H247957   5.057   3.305  14.710 -0.9774  0.2782  1.0292
 8848TIP3   OH247958   3.886   3.647   6.002 -0.1613  0.1091 -0.0160
 8848TIP3    H147959   3.810   3.701   6.025 -0.0326  0.2378  0.1053
 8848TIP3    H247960   3.961   3.704   6.018  0.0807 -0.6538  1.7220
 8849TIP3   OH247961   2.834   5.380  12.826 -0.2450 -0.6185 -0.2722
 8849TIP3    H147962   2.900   5.359  12.760 -0.7794 -0.0091 -1.0319
 8849TIP3    H247963   2.779   5.447  12.784  0.1624  0.7492  1.2600
 8850TIP3   OH247964   1.554   5.520   1.575  0.3066 -0.1967  0.4234
 8850TIP3    H147965   1.562   5.453   1.508 -1.4158  1.3024 -1.4117
 8850TIP3    H247966   1.482   5.491   1.631 -0.3288  0.0027 -0.2722
 8851TIP3   OH247967   0.834   3.348  14.342 -0.7596  0.1720  0.1880
 8851TIP3    H147968   0.885   3.420  14.304 -0.7861  0.7159  1.1516
 8851TIP3    H247969   0.892   3.309  14.406 -0.8689 -0.4686 -0.0956
 8852TIP3   OH247970   2.302   2.597  12.581  0.0290  0.4059  0.1874
 8852TIP3    H147971   2.330   2.627  12.667  0.6483 -1.9033  0.8593
 8852TIP3    H247972   2.291   2.502  12.591 -1.5669  0.3072 -1.8357
 8853TIP3   OH247973   4.248   2.459  13.269 -0.5415  0.5621  0.2908
 8853TIP3    H147974   4.247   2.468  13.173 -1.8273  0.2581  0.2563
 8853TIP3    H247975   4.208   2.540  13.300 -1.4719  0.0356  0.4958
 8854TIP3   OH247976   4.572   6.220   5.948 -0.5054  0.2450 -0.2070
 8854TIP3    H147977   4.524   6.302   5.960 -1.5513 -0.6664  3.1158
 8854TIP3    H247978   4.558   6.173   6.030  4.3269 -1.0365  0.1759
 8855TIP3   OH247979   5.536   1.789   2.190  0.2074 -0.1939  0.3211
 8855TIP3    H147980   5.508   1.697   2.191  0.2100 -0.2386 -1.2676
 8855TIP3    H247981   5.630   1.786   2.208  0.2726 -0.5319 -0.0758
 8856TIP3   OH247982   5.991   2.363   1.899  0.3035  0.6635 -0.1547
 8856TIP3    H147983   5.925   2.425   1.867  0.4114  0.8493 -0.0161
 8856TIP3    H247984   6.033   2.331   1.820 -2.7223 -2.6490 -0.6950
 8857TIP3   OH247985   1.103   4.585  16.445 -0.2984  0.0391 -0.4092
 8857TIP3    H147986   1.120   4.543  16.529 -0.3954 -0.6745 -0.7307
 8857TIP3    H247987   1.008   4.596  16.443 -0.1228  1.9611  0.4394
 8858TIP3   OH247988   3.360   0.568   2.388  0.0080  0.1578 -0.5218
 8858TIP3    H147989   3.292   0.631   2.409  1.7084  1.9823 -0.1375
 8858TIP3    H247990   3.362   0.509   2.463  2.0127  3.0241  1.9389
 8859TIP3   OH247991   0.745   4.531   2.802 -0.1392 -0.7600 -0.1990
 8859TIP3    H147992   0.748   4.627   2.806  0.1374 -0.8042  2.8235
 8859TIP3    H247993   0.654   4.511   2.781 -0.0551  0.1404 -1.5291
 8860TIP3   OH247994   4.011   0.138  14.001  0.2509  0.5258 -0.1336
 8860TIP3    H147995   3.929   0.090  13.994  0.7605 -0.1956 -1.6765
 8860TIP3    H247996   3.993   0.222  13.957  0.7789 -0.3066 -2.0404
 8861TIP3   OH247997   5.825   0.123   5.465 -0.5099  0.5620 -0.0127
 8861TIP3    H147998   5.751   0.102   5.408  1.0425  0.7617 -2.2384
 8861TIP3    H247999   5.894   0.062   5.439  0.9061  1.9724  0.2128
 8862TIP3   OH248000   3.972   1.473   0.633 -0.3183 -0.1870  0.4239
 8862TIP3    H148001   3.901   1.432   0.583  0.5413  0.9246 -1.8539
 8862TIP3    H248002   4.033   1.402   0.652 -0.4394 -0.5799 -0.5831
 8863TIP3   OH248003   5.676   0.173  15.714 -0.0113 -0.8188  0.0770
 8863TIP3    H148004   5.665   0.083  15.742 -0.1894 -1.7567 -2.6806
 8863TIP3    H248005   5.766   0.177  15.682 -0.0863 -0.0877 -0.0582
 8864TIP3   OH248006   1.517   0.945  14.417  0.5426  0.0330  0.6478
 8864TIP3    H148007   1.594   0.903  14.378  1.5036  2.1270  0.1649
 8864TIP3    H248008   1.443   0.895  14.383  1.5039  0.0725 -1.6809
 8865TIP3   OH248009   1.317   1.187  12.238  0.6608  0.2879 -0.7872
 8865TIP3    H148010   1.261   1.252  12.195  1.1931  1.3409  0.0457
 8865TIP3    H248011   1.268   1.105  12.233 -0.6281  1.0277 -0.6991
 8866TIP3   OH248012   3.298   0.383   1.616  0.6666  0.4133  0.9901
 8866TIP3    H148013   3.392   0.366   1.626  0.7769  0.0299 -0.4496
 8866TIP3    H248014   3.278   0.448   1.683  2.6172  2.8214 -0.6002
 8867TIP3   OH248015   3.606   1.810  11.471 -0.0284  0.0126 -0.7022
 8867TIP3    H148016   3.694   1.800  11.435  0.4452  2.2250 -0.2989
 8867TIP3    H248017   3.548   1.789  11.397  0.8053 -1.3622 -1.0022
 8868TIP3   OH248018   4.784   6.712  13.566 -0.4120 -0.7368 -0.3852
 8868TIP3    H148019   4.810   6.647  13.500  1.2272 -0.9917  0.4467
 8868TIP3    H248020   4.694   6.734  13.544 -0.0095 -1.0267 -2.5320
 8869TIP3   OH248021   0.557   5.768  14.753 -0.1502  0.1583  0.4414
 8869TIP3    H148022   0.637   5.818  14.744 -0.6500  0.6377 -2.2240
 8869TIP3    H248023   0.583   5.678  14.732 -0.2615  0.3040 -0.3658
 8870TIP3   OH248024   3.787   0.737   3.401 -0.0123  0.7138 -0.5527
 8870TIP3    H148025   3.863   0.699   3.357  0.2695  1.4830 -0.7600
 8870TIP3    H248026   3.731   0.768   3.329 -1.3080 -1.2545 -0.4616
 8871TIP3   OH248027   0.589   2.193   5.365  0.2791 -0.2881  0.1608
 8871TIP3    H148028   0.594   2.235   5.452 -3.0780  1.3304 -0.2546
 8871TIP3    H248029   0.635   2.253   5.307 -1.6790  1.2895  0.1226
 8872TIP3   OH248030   5.317   2.216   2.402  1.2235  0.8516  0.3567
 8872TIP3    H148031   5.302   2.310   2.398 -1.1134  0.4788 -2.1095
 8872TIP3    H248032   5.336   2.190   2.312 -1.6483 -1.4443  0.2544
 8873TIP3   OH248033   4.009   2.591  11.442  0.3947 -0.0439  0.1465
 8873TIP3    H148034   3.968   2.667  11.484  0.4064 -0.6855  1.3435
 8873TIP3    H248035   4.037   2.624  11.356 -2.1169  0.5706 -0.5231
 8874TIP3   OH248036   4.570   2.453   2.264 -0.1802  0.0001 -0.4079
 8874TIP3    H148037   4.590   2.434   2.172  1.1360  1.7976 -0.5573
 8874TIP3    H248038   4.511   2.383   2.291  2.1481 -2.6186 -1.5893
 8875TIP3   OH248039   4.754   4.873  16.711 -0.1774 -0.0285 -0.5540
 8875TIP3    H148040   4.791   4.942  16.655  1.0764 -2.6287 -3.1910
 8875TIP3    H248041   4.686   4.833  16.658  0.2281 -1.8512  0.2344
 8876TIP3   OH248042   3.260   4.053   0.893 -0.4221 -0.3918  0.3001
 8876TIP3    H148043   3.187   4.037   0.952 -0.7396  1.1698  0.3801
 8876TIP3    H248044   3.338   4.051   0.949 -0.3025 -2.6047  0.1240
 8877TIP3   OH248045   3.220   3.641  13.047 -0.7495  0.3220  0.2179
 8877TIP3    H148046   3.279   3.700  12.999 -1.3793  0.2232 -0.7117
 8877TIP3    H248047   3.202   3.570  12.985 -2.6275  0.8545  0.1162
 8878TIP3   OH248048   6.153   1.905  15.488 -0.1148 -0.0844 -0.0438
 8878TIP3    H148049   6.095   1.937  15.419  1.5928 -0.8763 -1.9416
 8878TIP3    H248050   6.137   1.810  15.491  0.9421 -0.2926 -0.5036
 8879TIP3   OH248051   3.878   2.948  11.799 -0.0692  0.1345  0.0255
 8879TIP3    H148052   3.936   2.998  11.742 -0.3013  0.0585 -0.2833
 8879TIP3    H248053   3.841   3.013  11.858  0.8122  0.0862  0.6461
 8880TIP3   OH248054   3.830   6.202   0.333  0.1685 -0.1836  0.0218
 8880TIP3    H148055   3.791   6.117   0.314 -0.0365 -0.5801  1.9761
 8880TIP3    H248056   3.895   6.184   0.401  2.4169  0.7740 -1.7501
 8881TIP3   OH248057   4.007   4.155   3.853  0.5984 -0.3000 -0.0222
 8881TIP3    H148058   4.011   4.249   3.837 -1.0247 -0.0539  0.7394
 8881TIP3    H248059   3.929   4.144   3.908 -0.0261 -2.2273 -1.1905
 8882TIP3   OH248060   5.002   4.361  14.577  0.2590 -0.3721  0.0858
 8882TIP3    H148061   5.016   4.439  14.629 -1.0987  1.5597 -2.2229
 8882TIP3    H248062   5.062   4.370  14.503  0.6095 -1.9152  0.1452
 8883TIP3   OH248063   1.327   5.184   2.623  0.1043 -0.4477 -0.0033
 8883TIP3    H148064   1.403   5.240   2.640 -0.2163  0.5890 -1.7502
 8883TIP3    H248065   1.280   5.228   2.552 -0.0137 -3.0846 -1.6673
 8884TIP3   OH248066   1.209   1.683   5.609 -0.4985  1.1416  0.2027
 8884TIP3    H148067   1.202   1.748   5.679 -0.8614 -0.9877  2.2561
 8884TIP3    H248068   1.282   1.627   5.635 -2.3858 -1.3941  0.4570
 8885TIP3   OH248069   6.531   5.143   1.091 -0.8574  0.2900 -0.3994
 8885TIP3    H148070   6.589   5.209   1.053  0.4836  0.7714  2.2387
 8885TIP3    H248071   6.510   5.176   1.178 -0.0962 -2.7023  1.0791
 8886TIP3   OH248072   2.161   0.711  14.472  0.2392 -0.1623 -0.2828
 8886TIP3    H148073   2.250   0.681  14.491  0.3081  0.2001 -0.0265
 8886TIP3    H248074   2.129   0.650  14.406  0.4440 -0.6895  0.1035
 8887TIP3   OH248075   0.699   5.966  15.347 -0.4665  1.0201 -0.3942
 8887TIP3    H148076   0.720   6.052  15.311 -1.4368  1.1830 -0.6169
 8887TIP3    H248077   0.609   5.975  15.378 -0.2046  0.3941  0.5829
 8888TIP3   OH248078   2.210   2.664   5.726 -1.0558  0.2346 -0.0381
 8888TIP3    H148079   2.270   2.684   5.797 -1.1978  2.1120 -0.4126
 8888TIP3    H248080   2.245   2.583   5.687  0.3258  0.4382  0.7190
 8889TIP3   OH248081   6.183   3.244  16.409  0.3310 -0.0905  0.8894
 8889TIP3    H148082   6.203   3.226  16.501 -0.4970  0.2780  1.1613
 8889TIP3    H248083   6.117   3.178  16.386 -0.6744  0.8334  1.0631
 8890TIP3   OH248084   1.548   0.303   0.621  0.3375  0.8236  0.7810
 8890TIP3    H148085   1.474   0.251   0.589  2.3371 -1.5224 -0.3685
 8890TIP3    H248086   1.537   0.304   0.716 -0.3543 -0.8400  0.7572
 8891TIP3   OH248087   4.172   2.551  14.207 -0.7968 -0.1381  0.5844
 8891TIP3    H148088   4.247   2.604  14.231  1.1900 -2.9577  1.1261
 8891TIP3    H248089   4.128   2.532  14.290 -0.3111 -0.9604  0.6612
 8892TIP3   OH248090   4.827   4.540  15.776  0.0265 -0.2535 -0.0649
 8892TIP3    H148091   4.842   4.491  15.857  0.3788  0.3792  0.2543
 8892TIP3    H248092   4.809   4.472  15.711 -0.7102 -0.7423  0.6342
 8893TIP3   OH248093   3.942   0.828   4.438  0.2439 -0.2748  0.1089
 8893TIP3    H148094   4.023   0.877   4.452  0.3722  0.0510 -1.4869
 8893TIP3    H248095   3.878   0.894   4.410  0.1062 -0.8278 -0.9614
 8894TIP3   OH248096   6.772   5.043   3.195 -0.5797 -0.3165 -0.3187
 8894TIP3    H148097   6.848   5.073   3.245 -1.2989  1.8294 -0.4086
 8894TIP3    H248098   6.730   4.978   3.252 -0.2267  0.5383  0.9716
 8895TIP3   OH248099   6.678   5.453  15.439 -0.2312 -0.5002 -0.4943
 8895TIP3    H148100   6.594   5.427  15.478 -0.9083 -0.0013 -1.5691
 8895TIP3    H248101   6.675   5.417  15.350  1.2110 -1.4798 -0.1811
 8896TIP3   OH248102   0.669   0.559   3.805 -0.5192 -0.0963 -0.5204
 8896TIP3    H148103   0.630   0.579   3.890  0.0814 -0.6909 -0.0899
 8896TIP3    H248104   0.747   0.509   3.827 -0.3744 -0.2728 -1.4317
 8897TIP3   OH248105   6.348   4.266  12.176 -0.1937 -0.1786  0.5111
 8897TIP3    H148106   6.387   4.270  12.089  0.2521 -0.0756  0.7146
 8897TIP3    H248107   6.308   4.352  12.189 -2.0781 -0.8411 -0.4176
 8898TIP3   OH248108   6.260   3.502  14.682 -0.4131  0.5877 -0.5090
 8898TIP3    H148109   6.302   3.419  14.703 -1.1544  0.1577 -0.6625
 8898TIP3    H248110   6.324   3.569  14.707  0.0880 -0.0189 -0.1339
 8899TIP3   OH248111   4.345   0.710  13.855  0.0574  0.8537 -0.7492
 8899TIP3    H148112   4.391   0.794  13.858 -0.2046  1.0634 -1.8477
 8899TIP3    H248113   4.285   0.718  13.780 -2.5031  0.9486  1.1961
 8900TIP3   OH248114   6.028   4.653   3.461 -0.2399 -0.2117  0.2628
 8900TIP3    H148115   6.050   4.611   3.545 -0.5379  0.0569  0.4755
 8900TIP3    H248116   6.048   4.586   3.395 -0.4247 -0.5828  0.5786
 8901TIP3   OH248117   6.763   0.064  12.290  0.4025 -0.1459 -0.2805
 8901TIP3    H148118   6.791   0.086  12.379 -1.2954  0.9975  0.0022
 8901TIP3    H248119   6.838   0.088  12.235  1.7991 -1.6198  0.8710
 8902TIP3   OH248120   0.062   0.240  14.239  0.5088  0.3196 -0.1623
 8902TIP3    H148121   0.082   0.296  14.314  2.3403  2.5916 -2.1674
 8902TIP3    H248122   0.131   0.174  14.240  1.1042  0.9207 -0.3292
 8903TIP3   OH248123   3.131   4.898   4.594  0.1914  0.0659  0.2321
 8903TIP3    H148124   3.133   4.825   4.656 -1.0029 -2.0344 -2.0521
 8903TIP3    H248125   3.038   4.912   4.576  0.5281 -0.3210 -2.0930
 8904TIP3   OH248126   2.266   4.344  16.915 -0.5341 -0.4502  0.5080
 8904TIP3    H148127   2.208   4.420  16.907 -1.7123 -1.3331  0.2492
 8904TIP3    H248128   2.210   4.276  16.954  0.4764 -1.1919  0.7021
 8905TIP3   OH248129   1.930   3.761   1.050 -0.4166  0.4958  0.2464
 8905TIP3    H148130   1.873   3.816   1.104 -0.3224 -0.2884  1.1701
 8905TIP3    H248131   1.980   3.709   1.113  1.1599  0.9936 -0.5606
 8906TIP3   OH248132   5.371   0.603  13.311 -0.0456 -0.1728  0.2054
 8906TIP3    H148133   5.390   0.511  13.329 -1.0564 -0.4747 -0.1611
 8906TIP3    H248134   5.399   0.650  13.389  0.9946 -0.7197  0.1742
 8907TIP3   OH248135   6.769   0.996  13.268 -0.2469 -0.7990  0.1817
 8907TIP3    H148136   6.797   0.986  13.177  3.0786 -2.6515  1.2439
 8907TIP3    H248137   6.689   0.943  13.274  0.4711 -2.1212 -1.2674
 8908TIP3   OH248138   6.576   6.567   1.530 -0.0288 -0.1702 -0.6667
 8908TIP3    H148139   6.661   6.590   1.567 -1.0558  0.1155  1.6708
 8908TIP3    H248140   6.553   6.641   1.474 -0.4386  1.6730  1.7695
 8909TIP3   OH248141   4.785   2.991   3.097  0.2974  0.1208  0.4183
 8909TIP3    H148142   4.740   3.025   3.174  0.1152  0.0516  0.3415
 8909TIP3    H248143   4.840   2.920   3.130  0.7383  0.5367  0.5925
 8910TIP3   OH248144   6.779   5.785  16.907 -0.4896 -0.0474  0.4855
 8910TIP3    H148145   6.873   5.788  16.892 -0.8188  1.3427 -1.8302
 8910TIP3    H248146   6.745   5.731  16.836 -1.5199  0.3729  0.6309
 8911TIP3   OH248147   5.592   4.509  11.852 -0.7071  0.0112  0.6019
 8911TIP3    H148148   5.588   4.605  11.846  0.7673  0.2083  2.1200
 8911TIP3    H248149   5.681   4.487  11.823 -1.5138 -1.0837 -1.2163
 8912TIP3   OH248150   1.911   6.303  11.299 -0.1491  0.1332  0.0922
 8912TIP3    H148151   1.999   6.267  11.314  0.4094  0.4322 -2.0716
 8912TIP3    H248152   1.909   6.322  11.205 -3.0820 -1.3583 -0.2833
 8913TIP3   OH248153   6.462   2.432  16.162  0.0130  0.3731  0.3030
 8913TIP3    H148154   6.516   2.377  16.105 -1.2134  0.0408 -0.5895
 8913TIP3    H248155   6.520   2.457  16.233  0.8262 -1.4588  0.3492
 8914TIP3   OH248156   6.471   5.511  13.422  0.9214 -0.0768  0.0297
 8914TIP3    H148157   6.491   5.577  13.356  0.0011 -1.3976 -1.6638
 8914TIP3    H248158   6.514   5.432  13.391  1.3338 -0.5063  1.5878
 8915TIP3   OH248159   5.114   0.492   0.110  0.1463 -0.0138 -0.1115
 8915TIP3    H148160   5.178   0.465   0.177 -0.7726 -1.2182  0.3156
 8915TIP3    H248161   5.119   0.588   0.110  0.8530 -0.0242  1.0060
 8916TIP3   OH248162   4.338   3.518  12.193 -0.3644  0.6412  0.2891
 8916TIP3    H148163   4.322   3.460  12.119 -1.9892  1.1253  0.2108
 8916TIP3    H248164   4.412   3.573  12.167 -1.4924  1.4400 -1.4008
 8917TIP3   OH248165   6.104   0.808  13.196  0.2045  0.5415  0.2686
 8917TIP3    H148166   6.075   0.899  13.193  0.9421  0.7571 -1.8607
 8917TIP3    H248167   6.023   0.757  13.200 -0.2133  1.2585  1.2976
 8918TIP3   OH248168   4.864   5.324  16.916 -0.3825 -0.2768  0.3680
 8918TIP3    H148169   4.862   5.240  16.963  2.1168 -0.8149 -0.3184
 8918TIP3    H248170   4.868   5.390  16.985  0.2651 -0.8868  0.9306
 8919TIP3   OH248171   0.602   2.692  13.995 -0.3410 -0.2637  0.6718
 8919TIP3    H148172   0.516   2.682  14.035 -0.5522 -1.5489 -0.0349
 8919TIP3    H248173   0.611   2.615  13.937  0.7321  0.5259 -0.2641
 8920TIP3   OH248174   1.247   0.203   3.200 -0.4695  0.8909  0.2667
 8920TIP3    H148175   1.330   0.222   3.244 -0.5520  0.4589  0.6129
 8920TIP3    H248176   1.273   0.171   3.114 -0.2257 -0.2394  0.7349
 8921TIP3   OH248177   3.049   2.704   2.130  0.1624 -0.6616 -0.1460
 8921TIP3    H148178   3.139   2.691   2.157 -0.0141 -0.5335  0.5067
 8921TIP3    H248179   2.999   2.638   2.178  0.0380 -1.4675 -1.3236
 8922TIP3   OH248180   1.917   2.207   3.603  0.5795 -0.7445 -0.5292
 8922TIP3    H148181   1.999   2.175   3.641  0.8310  0.9956  0.5048
 8922TIP3    H248182   1.936   2.213   3.509  2.3092  1.2372 -0.1481
 8923TIP3   OH248183   3.659   0.331  13.374 -0.0488  0.4358 -0.2749
 8923TIP3    H148184   3.720   0.367  13.311 -0.2366  2.7037  0.7549
 8923TIP3    H248185   3.615   0.260  13.327  1.6267  0.3397 -1.8033
 8924TIP3   OH248186   3.111   2.118  16.443  0.2322  0.1161 -0.0500
 8924TIP3    H148187   3.098   2.121  16.538  0.3865 -1.4745  0.0502
 8924TIP3    H248188   3.037   2.067  16.411  1.1870 -0.9975 -0.5504
 8925TIP3   OH248189   1.276   5.544   2.200 -0.6905 -1.1842 -0.5793
 8925TIP3    H148190   1.206   5.512   2.143  0.2346 -4.1471 -0.2611
 8925TIP3    H248191   1.355   5.539   2.147 -0.5365  1.2893 -0.6656
 8926TIP3   OH248192   3.750   6.490  11.131 -0.6028 -0.1974  0.1487
 8926TIP3    H148193   3.665   6.449  11.147 -0.6149 -0.3462 -0.2671
 8926TIP3    H248194   3.764   6.479  11.037 -0.7498  1.0355 -0.0265
 8927TIP3   OH248195   1.030   1.837   3.900 -0.0166 -0.4178  0.0419
 8927TIP3    H148196   1.082   1.806   3.974  2.9454  1.9686 -0.8374
 8927TIP3    H248197   0.949   1.867   3.939  1.0653 -0.1144  2.2033
 8928TIP3   OH248198   6.366   3.408   1.222 -0.0006  0.1776  0.4312
 8928TIP3    H148199   6.391   3.434   1.133  4.3385  2.0160  1.9224
 8928TIP3    H248200   6.375   3.313   1.222 -1.0941  0.0235 -1.2835
 8929TIP3   OH248201   0.928   0.191  12.578 -0.0260  0.0350  0.2019
 8929TIP3    H148202   0.870   0.241  12.521  0.7135  0.6216 -0.0577
 8929TIP3    H248203   0.992   0.256  12.609  0.6902 -0.6605  0.2020
 8930TIP3   OH248204   2.651   3.421  11.951  0.5380 -0.5172  0.5937
 8930TIP3    H148205   2.691   3.335  11.940  1.7674  0.2826 -1.8751
 8930TIP3    H248206   2.574   3.420  11.894 -0.8637 -0.7133  2.3739
 8931TIP3   OH248207   0.824   0.107   5.901 -0.0134  0.6268  0.5400
 8931TIP3    H148208   0.868   0.192   5.897 -0.2844  0.8003  1.1272
 8931TIP3    H248209   0.889   0.047   5.936  0.2849  0.5172 -0.1914
 8932TIP3   OH248210   5.582   4.853  13.349 -0.5926  0.3290  0.1773
 8932TIP3    H148211   5.618   4.766  13.332 -0.0927  0.5330  0.1694
 8932TIP3    H248212   5.537   4.877  13.268  0.2862  0.5663 -0.2564
 8933TIP3   OH248213   0.001   6.629  15.576  0.0004  0.3467  0.4740
 8933TIP3    H148214  -0.091   6.655  15.571 -0.1714 -0.0714  1.2776
 8933TIP3    H248215   0.019   6.590  15.491  0.0948  2.4581 -0.5400
 8934TIP3   OH248216   1.726   6.240   2.453 -0.1122  0.0432  0.6358
 8934TIP3    H148217   1.781   6.210   2.381 -0.3704  0.7813  0.1253
 8934TIP3    H248218   1.644   6.190   2.443 -0.8697  1.4957 -0.7274
 8935TIP3   OH248219   3.853   6.713  15.258  0.3048 -0.2406 -0.1129
 8935TIP3    H148220   3.851   6.681  15.348 -0.2475  0.0998 -0.0053
 8935TIP3    H248221   3.766   6.747  15.242  0.2829 -0.6424 -0.9075
 8936TIP3   OH248222   4.419   5.331   6.429  0.4443 -0.3735  0.6695
 8936TIP3    H148223   4.485   5.396   6.406  1.2047 -1.8235 -1.6099
 8936TIP3    H248224   4.447   5.297   6.514  1.9290 -0.0467  0.3343
 8937TIP3   OH248225   5.786   3.980   1.207 -0.1153  0.0638  0.1366
 8937TIP3    H148226   5.785   3.957   1.300 -2.2597  1.7696  0.6287
 8937TIP3    H248227   5.848   3.918   1.168 -0.7894 -2.1690  2.3114
 8938TIP3   OH248228   2.334   0.477  14.114  0.0607 -0.2474  0.6145
 8938TIP3    H148229   2.291   0.403  14.156 -0.9914 -0.0875 -0.1336
 8938TIP3    H248230   2.403   0.504  14.175 -0.6482 -0.7647  1.6613
 8939TIP3   OH248231   1.884   1.050   4.897 -0.5975 -0.4131  0.6849
 8939TIP3    H148232   1.979   1.062   4.899 -0.6338 -0.2352  1.9666
 8939TIP3    H248233   1.872   0.957   4.918 -0.5778 -1.6203 -3.6127
 8940TIP3   OH248234   5.819   1.304   1.518  0.1148 -0.2217 -0.2784
 8940TIP3    H148235   5.796   1.357   1.441  2.7531  0.0563 -0.9784
 8940TIP3    H248236   5.777   1.219   1.501 -0.4186  0.2406 -1.3943
 8941TIP3   OH248237   2.232   3.552   3.784  0.3454  0.3610 -0.0896
 8941TIP3    H148238   2.265   3.630   3.740  0.7025 -0.7243 -1.8507
 8941TIP3    H248239   2.137   3.564   3.787  0.4481  1.1290  0.2109
 8942TIP3   OH248240   4.764   4.451   3.655 -0.1382  0.2131 -0.1329
 8942TIP3    H148241   4.778   4.543   3.632  1.0184  0.0237 -0.2219
 8942TIP3    H248242   4.842   4.406   3.624 -0.3075 -0.6651  0.6720
 8943TIP3   OH248243   0.693   3.674   0.918 -0.0917 -0.1620  0.4753
 8943TIP3    H148244   0.698   3.640   1.007 -0.0755 -1.0992  0.1267
 8943TIP3    H248245   0.655   3.602   0.867 -1.1937  0.7663 -0.0645
 8944TIP3   OH248246   2.023   6.164  15.003 -0.1299  0.0236  0.3648
 8944TIP3    H148247   2.041   6.254  15.031  1.8426  0.3561 -1.6431
 8944TIP3    H248248   1.990   6.173  14.914 -1.4451 -1.2007  0.6922
 8945TIP3   OH248249   3.899   5.685  17.150  0.3590 -0.1952 -0.7857
 8945TIP3    H148250   3.885   5.591  17.160 -1.0292 -0.0342 -1.0330
 8945TIP3    H248251   3.955   5.710  17.224 -1.1278 -0.8238  0.6047
 8946TIP3   OH248252   1.534   4.867  15.382 -0.0143 -0.0194  0.3993
 8946TIP3    H148253   1.544   4.788  15.435 -2.8868 -0.3451  0.6190
 8946TIP3    H248254   1.499   4.932  15.443  1.2011  1.0928 -0.0519
 8947TIP3   OH248255   6.681   3.809   0.052  0.0891  0.2227 -0.2125
 8947TIP3    H148256   6.754   3.844   0.103  1.1591 -1.0090 -0.8347
 8947TIP3    H248257   6.612   3.792   0.116  1.2644 -0.9173  0.7997
 8948TIP3   OH248258   1.708   6.189   3.489  0.5230 -0.0411  0.1429
 8948TIP3    H148259   1.678   6.111   3.442  1.2435 -0.9827  1.2088
 8948TIP3    H248260   1.799   6.201   3.462  0.1115  1.1336 -0.8773
 8949TIP3   OH248261   5.184   5.533   4.833  0.6143 -0.2144  0.9408
 8949TIP3    H148262   5.144   5.480   4.764 -0.2116  1.3279  0.1746
 8949TIP3    H248263   5.253   5.478   4.869 -0.3316 -1.8627  0.3246
 8950TIP3   OH248264   3.414   3.429   6.339 -0.0406  0.2232  0.2958
 8950TIP3    H148265   3.469   3.354   6.316 -0.8281 -0.5063  0.7383
 8950TIP3    H248266   3.472   3.487   6.388  1.0043  0.6593 -1.3736
 8951TIP3   OH248267   3.501   5.433  14.830  0.0173 -0.0257 -0.3929
 8951TIP3    H148268   3.441   5.507  14.820  0.7207  0.3216 -2.4951
 8951TIP3    H248269   3.578   5.471  14.873 -1.0365 -0.4039  2.0072
 8952TIP3   OH248270   5.514   2.601   2.213 -0.5501  0.2949  0.3900
 8952TIP3    H148271   5.509   2.618   2.307 -1.8317 -1.5047  0.6810
 8952TIP3    H248272   5.476   2.514   2.201  0.5577  0.0171 -1.6759
 8953TIP3   OH248273   6.558   3.242   4.875 -0.0578 -0.2851  0.1105
 8953TIP3    H148274   6.565   3.157   4.918 -0.1012 -0.6072 -0.5072
 8953TIP3    H248275   6.518   3.299   4.941  0.5734 -0.5735  0.7511
 8954TIP3   OH248276   5.151   5.340  16.854 -0.7905 -0.1894  0.5507
 8954TIP3    H148277   5.056   5.338  16.843 -0.8841 -1.5333  1.4124
 8954TIP3    H248278   5.182   5.256  16.821  0.2215  0.5935 -0.5796
 8955TIP3   OH248279   1.873   4.893   3.067 -0.2620  0.5824 -0.1110
 8955TIP3    H148280   1.819   4.962   3.028  0.3509  1.5872  0.7547
 8955TIP3    H248281   1.898   4.837   2.993  1.6608  2.9366 -1.4176
 8956TIP3   OH248282   6.193   4.414  16.390  0.6424 -0.4267 -0.2107
 8956TIP3    H148283   6.205   4.493  16.443 -0.9797 -0.5963  0.4620
 8956TIP3    H248284   6.188   4.445  16.300 -2.2524  0.5522  0.2046
 8957TIP3   OH248285   1.506   2.108  12.990 -0.1496 -0.2267  0.0232
 8957TIP3    H148286   1.516   2.036  13.052 -0.2229  0.3605  0.7235
 8957TIP3    H248287   1.516   2.187  13.043 -1.3980  0.3030 -0.4909
 8958TIP3   OH248288   2.488   2.155   0.751  0.2298  0.0003 -0.0915
 8958TIP3    H148289   2.403   2.118   0.726 -0.4050  0.5534  1.1938
 8958TIP3    H248290   2.542   2.147   0.672 -1.0448 -0.2601 -0.9550
 8959TIP3   OH248291   5.050   4.414  16.874 -0.1505 -0.5379 -0.4836
 8959TIP3    H148292   4.984   4.469  16.832 -0.0172 -0.5946 -0.7746
 8959TIP3    H248293   5.000   4.342  16.913 -0.4956  0.5931  1.2750
 8960TIP3   OH248294   5.958   1.914   3.931  0.3868 -0.4632 -0.3511
 8960TIP3    H148295   6.009   1.907   3.851 -0.7297 -0.7485 -1.0528
 8960TIP3    H248296   5.974   1.832   3.978  1.9568  0.1798  0.2984
 8961TIP3   OH248297   1.623   0.372   0.890 -0.3438  0.1876 -0.5777
 8961TIP3    H148298   1.708   0.408   0.915  0.2873 -0.4899 -1.6400
 8961TIP3    H248299   1.594   0.324   0.967  1.0860 -1.0359 -0.7499
 8962TIP3   OH248300   2.161   4.969  13.671  0.0939  0.0366 -0.4391
 8962TIP3    H148301   2.192   5.005  13.754 -1.7129  0.6354  0.0253
 8962TIP3    H248302   2.144   5.046  13.616 -2.2628 -0.0956 -0.0087
 8963TIP3   OH248303   2.788   6.333   0.562 -0.5092 -0.2512 -0.2106
 8963TIP3    H148304   2.738   6.387   0.623 -0.4416 -1.0614  0.5746
 8963TIP3    H248305   2.866   6.307   0.611 -0.5983 -1.1592 -0.5319
 8964TIP3   OH248306   4.366   6.608   2.578 -0.3409  0.0256  0.3261
 8964TIP3    H148307   4.449   6.571   2.547 -1.2438 -0.9250 -1.0770
 8964TIP3    H248308   4.353   6.569   2.664  0.7646  0.3651  0.6628
 8965TIP3   OH248309   0.655   0.167   2.390 -0.0444  0.1640  0.1099
 8965TIP3    H148310   0.664   0.078   2.357  1.2969 -0.3857  1.7891
 8965TIP3    H248311   0.607   0.157   2.473 -0.7936  1.1349 -0.1930
 8966TIP3   OH248312   0.574   1.590  11.151  0.2484 -0.2069  0.5369
 8966TIP3    H148313   0.648   1.568  11.209  0.3259  2.2823  1.4830
 8966TIP3    H248314   0.542   1.674  11.183 -0.8706  0.4161 -1.9735
 8967TIP3   OH248315   2.833   3.873   2.656 -0.3612  0.0404  0.6063
 8967TIP3    H148316   2.811   3.966   2.660 -0.5693 -0.0448  1.6598
 8967TIP3    H248317   2.823   3.850   2.563 -2.1820  0.6114  0.6261
 8968TIP3   OH248318   5.330   3.457   0.358 -0.1769 -0.6473  0.3464
 8968TIP3    H148319   5.273   3.430   0.286 -2.3853  2.4326  0.7571
 8968TIP3    H248320   5.273   3.503   0.419  2.4960  1.3829  1.5308
 8969TIP3   OH248321   1.368   5.866   1.679  0.0769 -0.0645 -0.0208
 8969TIP3    H148322   1.342   5.812   1.604  0.7850 -1.2345  0.5415
 8969TIP3    H248323   1.414   5.805   1.738  0.4069  1.0373  0.9068
 8970TIP3   OH248324   3.247   1.084   5.923  0.3238 -0.0073 -0.5106
 8970TIP3    H148325   3.171   1.041   5.963  0.4611  0.7023  0.5784
 8970TIP3    H248326   3.209   1.137   5.852 -0.6543  2.4034  1.6258
 8971TIP3   OH248327   5.984   2.530  15.286 -0.0371 -0.1265  0.0508
 8971TIP3    H148328   5.910   2.470  15.291  1.3938 -1.9157  1.0807
 8971TIP3    H248329   6.035   2.498  15.211  2.0848 -1.9788  2.1182
 8972TIP3   OH248330   1.459   4.871   5.030  0.0359 -0.2010  0.2071
 8972TIP3    H148331   1.513   4.876   5.109 -0.2513  1.2015  0.3478
 8972TIP3    H248332   1.369   4.881   5.061 -0.1882 -0.9924 -0.1707
 8973TIP3   OH248333   6.112   0.046  15.215 -0.2405  0.0064  0.4262
 8973TIP3    H148334   6.058  -0.029  15.240  0.2030  0.0096  1.4262
 8973TIP3    H248335   6.049   0.115  15.197 -0.7969 -1.1214 -2.5504
 8974TIP3   OH248336   2.719   5.226  12.082 -0.3165 -0.2425 -0.0075
 8974TIP3    H148337   2.628   5.209  12.059 -0.5817  0.8614  0.1641
 8974TIP3    H248338   2.766   5.227  11.999 -1.0527  2.4665 -0.4833
 8975TIP3   OH248339   0.051   6.124  11.978  0.6924  0.1054 -0.1438
 8975TIP3    H148340   0.138   6.097  11.947  0.3381 -1.8640  0.4361
 8975TIP3    H248341   0.004   6.042  11.993 -0.4269  1.0308  1.9153
 8976TIP3   OH248342   3.896   5.691  11.722 -0.1418 -0.2416 -0.9327
 8976TIP3    H148343   3.992   5.694  11.722 -0.0460 -1.8778  0.7400
 8976TIP3    H248344   3.874   5.622  11.658 -0.1226 -0.9166 -0.2234
 8977TIP3   OH248345   2.390   1.972  11.294 -0.4865 -0.4641  0.0976
 8977TIP3    H148346   2.398   1.878  11.305 -1.7231 -0.8044 -1.4680
 8977TIP3    H248347   2.452   1.994  11.224  0.0269 -0.0438  0.6703
 8978TIP3   OH248348   3.493   4.699  13.819  0.0983  0.1937 -0.0135
 8978TIP3    H148349   3.432   4.697  13.745  2.3111 -2.9160 -2.0002
 8978TIP3    H248350   3.464   4.627  13.875 -0.0232  0.8779  0.8189
 8979TIP3   OH248351   3.673   1.677  11.707 -0.3975  0.0607 -0.1132
 8979TIP3    H148352   3.638   1.675  11.618  0.5849 -0.8845 -0.5023
 8979TIP3    H248353   3.768   1.681  11.695 -0.1709 -1.5099  0.8589
 8980TIP3   OH248354   1.239   0.293   2.248 -0.0164 -0.9102  0.5221
 8980TIP3    H148355   1.179   0.223   2.223  0.5568 -1.3316  0.2864
 8980TIP3    H248356   1.312   0.248   2.292  0.7124 -0.5503 -0.2745
 8981TIP3   OH248357   2.053   1.253  16.239 -0.1280 -0.8332 -0.3039
 8981TIP3    H148358   1.994   1.285  16.172  1.0663  0.1263 -0.9382
 8981TIP3    H248359   2.069   1.161  16.216 -0.3801 -0.7444 -0.8375
 8982TIP3   OH248360   5.489   4.660   0.455  0.3710 -0.5333 -0.8789
 8982TIP3    H148361   5.537   4.742   0.451 -2.3424  1.2099 -0.2419
 8982TIP3    H248362   5.429   4.663   0.381 -1.3992 -0.7705  0.4795
 8983TIP3   OH248363   2.774   1.703   0.501 -0.9432 -0.0442  0.3029
 8983TIP3    H148364   2.717   1.721   0.576  2.0529  2.1376  2.2454
 8983TIP3    H248365   2.776   1.785   0.451  0.8618  0.1520  0.6205
 8984TIP3   OH248366   4.614   2.670  14.249  0.0782 -0.9281  0.3123
 8984TIP3    H148367   4.575   2.721  14.320 -0.6404  0.4401 -1.0095
 8984TIP3    H248368   4.552   2.598  14.235 -1.8999  0.9553 -1.4421
 8985TIP3   OH248369   0.554   1.352   3.377 -0.0266 -0.0639  0.2655
 8985TIP3    H148370   0.476   1.367   3.323 -1.0970  1.3870  2.0749
 8985TIP3    H248371   0.542   1.410   3.453  2.0468 -1.0006  1.3960
 8986TIP3   OH248372   5.264   5.175  13.512 -0.1373 -0.0785 -0.0199
 8986TIP3    H148373   5.335   5.214  13.461  0.2541 -1.1062 -0.2811
 8986TIP3    H248374   5.304   5.101  13.556 -0.8944 -0.2512  0.3884
 8987TIP3   OH248375   1.211   0.992   4.032 -0.2713 -0.0996 -0.3674
 8987TIP3    H148376   1.301   0.962   4.015  0.1349  0.4895  0.6783
 8987TIP3    H248377   1.160   0.911   4.038  0.2937 -0.4688 -0.4015
 8988TIP3   OH248378   4.623   5.113  15.419  0.1701 -0.3432 -0.2041
 8988TIP3    H148379   4.598   5.194  15.463  0.3435  0.0946 -0.9030
 8988TIP3    H248380   4.714   5.098  15.447  0.7057  0.6069 -1.3755
 8989TIP3   OH248381   4.863   3.802   3.944  0.4471 -0.6938  0.4986
 8989TIP3    H148382   4.896   3.716   3.917 -1.3157 -1.1036 -0.4458
 8989TIP3    H248383   4.887   3.808   4.037  2.2465 -1.3687  0.1330
 8990TIP3   OH248384   4.453   6.438  13.475 -0.5942  0.0304 -0.5242
 8990TIP3    H148385   4.412   6.473  13.554  0.5002  0.1550  0.0006
 8990TIP3    H248386   4.448   6.343  13.485  1.6726 -0.0157  0.8947
 8991TIP3   OH248387   6.651   0.294  11.854 -0.5882  0.1644 -0.3497
 8991TIP3    H148388   6.623   0.245  11.932 -2.4707 -0.7226 -1.5161
 8991TIP3    H248389   6.637   0.233  11.782  0.6659  1.1422 -1.4487
 8992TIP3   OH248390   1.362   6.348   3.149 -0.0458  0.1636 -0.1582
 8992TIP3    H148391   1.402   6.397   3.077  3.2784 -1.0990  0.6539
 8992TIP3    H248392   1.390   6.394   3.228  0.4653 -1.2204  0.4888
 8993TIP3   OH248393   4.045   2.893  11.074  0.5550  0.2645 -0.0949
 8993TIP3    H148394   4.007   2.811  11.106  2.1080 -0.5589 -0.2168
 8993TIP3    H248395   4.095   2.867  10.996  0.7219  1.4062 -0.3894
 8994TIP3   OH248396   5.202   4.842  16.966  0.5408 -0.0287 -0.6494
 8994TIP3    H148397   5.126   4.870  17.017  0.1248 -3.2540  0.7374
 8994TIP3    H248398   5.165   4.801  16.888  0.7664 -1.7346  0.0945
 8995TIP3   OH248399   6.067   4.660   0.609  0.8163  0.2542  0.4607
 8995TIP3    H148400   6.098   4.591   0.550  1.5402  0.2069  0.8868
 8995TIP3    H248401   6.067   4.619   0.695  0.9712  0.6963  0.6716
 8996TIP3   OH248402   1.673   6.429  11.853  0.1252 -0.4330 -0.0791
 8996TIP3    H148403   1.718   6.346  11.837 -0.5086 -1.0032  0.9677
 8996TIP3    H248404   1.651   6.462  11.766  0.3995 -1.3596 -0.5079
 8997TIP3   OH248405   3.628   3.495  14.625  0.0108 -0.6730  0.1646
 8997TIP3    H148406   3.552   3.554  14.619  0.0868 -0.4805  0.9153
 8997TIP3    H248407   3.596   3.411  14.593 -0.7604 -0.7957  1.2199
 8998TIP3   OH248408   5.182   1.615   5.370 -0.1836 -0.1312 -0.8070
 8998TIP3    H148409   5.190   1.598   5.276  1.9409 -0.4832 -0.6031
 8998TIP3    H248410   5.194   1.709   5.378 -0.3162 -0.1075 -0.8743
 8999TIP3   OH248411   0.856   3.327   4.894 -0.1483  0.0737  0.2548
 8999TIP3    H148412   0.932   3.381   4.872 -0.0904 -0.6638 -1.5270
 8999TIP3    H248413   0.781   3.380   4.871 -0.1175 -0.1298 -0.3182
 9000TIP3   OH248414   2.575   0.143   0.004 -0.4482 -0.8608 -0.3448
 9000TIP3    H148415   2.621   0.086   0.066  1.6027  0.5377 -0.4868
 9000TIP3    H248416   2.615   0.124  -0.081 -1.6205 -1.0760 -0.8829
 9001TIP3   OH248417   6.289   2.796  16.222 -0.6327 -0.3504  0.4106
 9001TIP3    H148418   6.365   2.741  16.203 -1.0267 -0.3892 -1.2297
 9001TIP3    H248419   6.240   2.798  16.139 -1.9040  0.4678  1.1540
 9002TIP3   OH248420   1.996   1.687  15.549  0.1881 -0.1539 -0.1857
 9002TIP3    H148421   1.949   1.636  15.615 -0.8612  1.1111  0.0923
 9002TIP3    H248422   2.078   1.711  15.591 -0.1091 -0.0634  0.3528
 9003TIP3   OH248423   5.652   3.009   6.037  0.2656  0.2347  0.4118
 9003TIP3    H148424   5.746   2.996   6.050  0.2799  0.1348  0.2232
 9003TIP3    H248425   5.627   2.940   5.975  0.1471  0.5120  0.1499
 9004TIP3   OH248426   2.110   2.970   0.629  0.5624 -0.0138  0.0569
 9004TIP3    H148427   2.153   2.891   0.661 -0.5909 -0.0171  1.7475
 9004TIP3    H248428   2.076   3.013   0.708 -2.2259  0.1328 -1.1182
 9005TIP3   OH248429   4.023   2.210   2.614 -0.4240 -0.4583 -0.2085
 9005TIP3    H148430   3.973   2.161   2.679 -0.6025 -0.4686 -0.3535
 9005TIP3    H248431   3.964   2.280   2.587 -0.5791 -0.8225 -0.8170
 9006TIP3   OH248432   2.898   2.922  11.785  0.0361  0.0666 -0.0398
 9006TIP3    H148433   2.868   3.008  11.817 -0.7849  0.0788 -0.8222
 9006TIP3    H248434   2.846   2.905  11.707  0.2759 -1.1015  0.0339
 9007TIP3   OH248435   4.597   2.128   1.557 -0.7834  0.4255  0.5939
 9007TIP3    H148436   4.650   2.204   1.582 -0.7939  1.1374 -1.3734
 9007TIP3    H248437   4.511   2.146   1.593 -0.4134  0.6086  1.4197
 9008TIP3   OH248438   5.810   3.145   0.558 -0.1659  0.3600 -0.4549
 9008TIP3    H148439   5.732   3.175   0.604  0.0653  0.1131  0.1045
 9008TIP3    H248440   5.880   3.150   0.623  0.6633  2.2345 -1.4100
 9009TIP3   OH248441   0.528   4.937   4.476  0.7047  0.0879  0.1304
 9009TIP3    H148442   0.525   5.025   4.439 -1.4536  0.6373  1.3895
 9009TIP3    H248443   0.471   4.885   4.419 -0.4801  0.2861  1.1047
 9010TIP3   OH248444   3.307   5.064  13.280 -0.0012 -0.2506 -0.1905
 9010TIP3    H148445   3.242   5.002  13.245 -0.1007 -0.6635  0.6921
 9010TIP3    H248446   3.375   5.009  13.319  0.1880  0.1898  0.1167
 9011TIP3   OH248447   1.167   5.178   2.101 -0.0697  0.0005  0.0890
 9011TIP3    H148448   1.155   5.241   2.030  0.2377 -0.5739 -0.4867
 9011TIP3    H248449   1.080   5.163   2.136 -0.4750 -0.9463 -1.2548
 9012TIP3   OH248450   3.174   6.331  13.494 -0.6073 -0.1799 -0.0593
 9012TIP3    H148451   3.159   6.241  13.464 -0.7421  0.1483 -1.0024
 9012TIP3    H248452   3.265   6.349  13.472 -0.5675 -0.0961  0.1698
 9013TIP3   OH248453   5.246   4.011   4.528  0.3156  0.4927  0.0572
 9013TIP3    H148454   5.316   4.034   4.468  0.0635  0.9566 -0.0678
 9013TIP3    H248455   5.281   4.032   4.615  0.7198 -0.2836  0.0818
 9014TIP3   OH248456   6.027   3.232   6.813 -0.0921 -0.2584  0.8175
 9014TIP3    H148457   6.107   3.261   6.858 -0.4311  0.2659  1.0972
 9014TIP3    H248458   5.963   3.220   6.884 -1.5221  3.3672  0.3707
 9015TIP3   OH248459   3.011   6.660  11.876 -0.5080 -0.0350  0.0923
 9015TIP3    H148460   3.089   6.661  11.932 -0.7483  0.1899  0.4294
 9015TIP3    H248461   2.946   6.610  11.925 -0.6962  0.0985 -0.0185
 9016TIP3   OH248462   3.905   6.585   3.153 -0.5372 -0.4337  0.7625
 9016TIP3    H148463   3.967   6.524   3.192 -0.1893 -0.4018  0.2630
 9016TIP3    H248464   3.819   6.555   3.183 -0.2471 -0.0461  2.0647
 9017TIP3   OH248465   0.425   1.810  17.181  0.0925 -0.3878 -0.3586
 9017TIP3    H148466   0.391   1.887  17.226  2.0977  2.2946 -3.0233
 9017TIP3    H248467   0.476   1.763  17.248 -0.0030  1.3956  1.0284
 9018TIP3   OH248468   6.737   1.751  15.057 -0.1307 -0.0818 -0.5099
 9018TIP3    H148469   6.643   1.763  15.043 -0.0569  0.3427 -0.6433
 9018TIP3    H248470   6.778   1.825  15.013  0.1703  0.6674  0.9848
 9019TIP3   OH248471   1.921   4.438  15.084 -0.5651 -0.1564  0.4549
 9019TIP3    H148472   1.892   4.441  14.993 -1.2878  0.5019  0.6891
 9019TIP3    H248473   1.893   4.522  15.121  0.1697 -0.2042  1.1547
 9020TIP3   OH248474   3.534   1.366  11.962  0.7927 -0.2204  0.1059
 9020TIP3    H148475   3.580   1.410  12.033 -1.7023  0.6221  1.3226
 9020TIP3    H248476   3.493   1.437  11.912 -1.2126 -0.9469  0.5964
 9021TIP3   OH248477   2.664   6.203   4.359 -0.2994  0.1304  0.0806
 9021TIP3    H148478   2.571   6.220   4.344  0.0159  0.4819 -1.6276
 9021TIP3    H248479   2.703   6.290   4.362  0.6171  0.0350 -3.9495
 9022TIP3   OH248480   0.350   5.694  17.079 -0.1756  0.2766  0.2578
 9022TIP3    H148481   0.301   5.691  16.996  1.0146  0.3862 -0.4788
 9022TIP3    H248482   0.439   5.716  17.052  0.5821 -1.2563  1.4318
 9023TIP3   OH248483   0.119   2.186  16.729 -0.4539  0.0344 -0.8135
 9023TIP3    H148484   0.171   2.166  16.651  0.7068 -1.1977  0.2184
 9023TIP3    H248485   0.045   2.125  16.725  0.7264 -1.5363  0.0660
 9024TIP3   OH248486   6.413   2.043   5.683  0.6846 -0.0550  0.4807
 9024TIP3    H148487   6.435   2.084   5.599 -0.2703 -0.9999 -0.2703
 9024TIP3    H248488   6.446   1.953   5.675 -0.7102 -0.6089  0.4889
 9025TIP3   OH248489   6.652   1.700   4.235 -0.8497 -0.0426 -0.2730
 9025TIP3    H148490   6.688   1.773   4.287 -0.0769 -0.1074 -0.7113
 9025TIP3    H248491   6.567   1.683   4.276  0.0120 -0.5466  1.4315
 9026TIP3   OH248492   5.875   0.998  12.599  0.4527 -0.6217  0.1156
 9026TIP3    H148493   5.902   1.081  12.560  0.7946  0.7808  3.0801
 9026TIP3    H248494   5.803   0.967  12.543 -0.3421  2.1710 -0.5341
 9027TIP3   OH248495   5.779   2.999   1.605 -0.1743 -0.6349 -0.2963
 9027TIP3    H148496   5.828   2.999   1.523 -1.4050  0.2798 -1.0639
 9027TIP3    H248497   5.689   2.977   1.580 -0.6822  0.1887  0.7179
 9028TIP3   OH248498   0.940   4.699   6.220 -1.1421 -0.1443  0.6878
 9028TIP3    H148499   1.034   4.693   6.235 -0.6483  0.6828 -1.6450
 9028TIP3    H248500   0.905   4.736   6.301  0.5334 -0.4954  1.6070
 9029TIP3   OH248501   5.394   1.997   3.363 -0.1179 -0.0288 -0.2115
 9029TIP3    H148502   5.471   2.049   3.340  0.8744 -1.4311 -0.2313
 9029TIP3    H248503   5.403   1.917   3.310 -1.3681 -0.3988  0.1086
 9030TIP3   OH248504   4.345   5.845   5.330  0.6602 -0.4155 -0.0591
 9030TIP3    H148505   4.389   5.860   5.246  1.6294 -0.7764  0.3723
 9030TIP3    H248506   4.383   5.764   5.363 -0.7933 -1.0933  0.0472
 9031TIP3   OH248507   0.903   2.996   0.016 -0.4403 -0.2193  0.3252
 9031TIP3    H148508   0.949   3.017  -0.065 -1.1540 -1.1712 -0.3554
 9031TIP3    H248509   0.964   3.019   0.086  0.2550  0.4475 -0.4858
 9032TIP3   OH248510   2.799   1.029  13.291  0.3586 -0.4226 -0.8011
 9032TIP3    H148511   2.811   1.112  13.336  1.0220 -1.2235  0.5561
 9032TIP3    H248512   2.873   1.023  13.231  1.7011 -1.0889  0.8407
 9033TIP3   OH248513   5.450   5.020   0.663 -0.0944 -0.1512  0.0720
 9033TIP3    H148514   5.412   4.932   0.653 -0.1807 -0.1726  0.5557
 9033TIP3    H248515   5.381   5.070   0.707  0.2793 -0.0748  0.5717
 9034TIP3   OH248516   1.824   4.283   2.630  0.2176  0.3775  0.0034
 9034TIP3    H148517   1.843   4.255   2.720 -0.8573  2.7874  1.0744
 9034TIP3    H248518   1.728   4.287   2.626  0.2427  0.0969 -1.3480
 9035TIP3   OH248519   4.669   2.780   3.753 -0.1117  0.4407  0.1639
 9035TIP3    H148520   4.747   2.794   3.699  0.8453 -2.8508  0.5032
 9035TIP3    H248521   4.682   2.836   3.829  2.3342 -0.6151  0.5798
 9036TIP3   OH248522   3.965   4.626  14.047 -0.3445  0.4938 -0.2262
 9036TIP3    H148523   4.060   4.636  14.057 -0.2974  0.9333 -1.0686
 9036TIP3    H248524   3.930   4.714  14.060 -0.6928  0.2385  0.6112
 9037TIP3   OH248525   4.736   3.944   5.468  0.3461  0.7303  0.2583
 9037TIP3    H148526   4.668   3.916   5.530 -0.7561  0.0197 -1.2103
 9037TIP3    H248527   4.807   3.882   5.481 -0.3701 -0.1624 -0.0229
 9038TIP3   OH248528   6.639   2.350   4.074  0.3333 -0.0318  0.8556
 9038TIP3    H148529   6.721   2.331   4.030  0.0769 -1.6132  1.0305
 9038TIP3    H248530   6.611   2.434   4.036  1.5278  0.0437  0.0966
 9039TIP3   OH248531   6.472   1.297   2.501 -0.2256 -0.2885  0.5209
 9039TIP3    H148532   6.415   1.301   2.578 -0.7887  1.9740  0.0620
 9039TIP3    H248533   6.412   1.280   2.428 -0.0901  0.3609  0.2508
 9040TIP3   OH248534   3.913   5.512  16.454  0.6767 -0.1783 -0.1022
 9040TIP3    H148535   3.965   5.540  16.379  0.4181 -2.2578 -1.1325
 9040TIP3    H248536   3.899   5.419  16.441 -2.1748  0.0003  0.8147
 9041TIP3   OH248537   2.429   3.983   5.120 -0.1428 -0.0572  0.6023
 9041TIP3    H148538   2.422   3.968   5.214  0.8522 -0.0934  0.6754
 9041TIP3    H248539   2.369   4.056   5.103 -1.5004 -1.0315  1.0034
 9042TIP3   OH248540   3.812   1.125  13.223  0.0235 -0.1654 -0.3409
 9042TIP3    H148541   3.747   1.067  13.263  0.0595 -0.0479 -0.1103
 9042TIP3    H248542   3.887   1.121  13.282 -1.2541  2.9322  1.7670
 9043TIP3   OH248543   1.399   0.812  17.113 -0.2339  0.2224 -0.0849
 9043TIP3    H148544   1.453   0.887  17.138 -0.2105  0.1572  0.0598
 9043TIP3    H248545   1.313   0.848  17.093  0.3372  0.5918 -2.1035
 9044TIP3   OH248546   3.662   1.411   4.982  0.0216 -0.4068  0.1333
 9044TIP3    H148547   3.614   1.337   5.017 -0.6167 -0.3498 -0.6039
 9044TIP3    H248548   3.619   1.431   4.899 -0.2871  1.2575  0.6684
 9045TIP3   OH248549   2.366   4.419  16.024 -0.0502 -0.1653  0.1276
 9045TIP3    H148550   2.286   4.383  16.062 -0.1553 -1.3908 -1.1480
 9045TIP3    H248551   2.348   4.512  16.012 -1.4314 -0.4814 -0.4510
 9046TIP3   OH248552   2.254   3.328  13.305  0.1047  0.0549  0.4383
 9046TIP3    H148553   2.256   3.306  13.399 -0.6718  1.5385  0.8267
 9046TIP3    H248554   2.284   3.419  13.302 -2.1027  0.7980 -0.4887
 9047TIP3   OH248555   5.917   6.085  13.729 -0.2703 -0.1382 -0.7267
 9047TIP3    H148556   5.864   6.046  13.660  0.1062 -2.2475  0.0920
 9047TIP3    H248557   5.855   6.104  13.799 -0.2407 -0.8835 -0.4844
 9048TIP3   OH248558   3.247   2.078   1.238 -0.4424 -0.7706  0.0789
 9048TIP3    H148559   3.257   2.162   1.193  0.1926 -0.9615 -0.1657
 9048TIP3    H248560   3.301   2.086   1.316  1.2103 -1.5956 -0.9159
 9049TIP3   OH248561   4.315   6.460  11.333  0.3395  0.6097 -0.5559
 9049TIP3    H148562   4.323   6.555  11.331 -0.3485  0.6744 -0.4357
 9049TIP3    H248563   4.235   6.441  11.284 -0.6884  0.2626  1.1325
 9050TIP3   OH248564   3.461   2.578   2.782 -0.7282 -0.0908  0.6904
 9050TIP3    H148565   3.513   2.639   2.834 -1.3943  0.2038  1.0117
 9050TIP3    H248566   3.435   2.510   2.844 -1.5716  0.2903  0.7569
 9051TIP3   OH248567   4.082   2.764   3.961 -0.2811 -0.3327  0.3088
 9051TIP3    H148568   4.047   2.685   3.919 -1.8224 -0.4885  1.8004
 9051TIP3    H248569   4.165   2.735   4.000  0.4358 -0.5507 -1.2909
 9052TIP3   OH248570   6.698   4.277   4.593 -0.1166 -0.6866 -0.5293
 9052TIP3    H148571   6.747   4.357   4.577 -1.3939  0.5176  1.1201
 9052TIP3    H248572   6.648   4.262   4.513 -0.3176  0.5408 -0.6495
 9053TIP3   OH248573   5.398   1.714  13.031  0.6591 -0.2980  0.4130
 9053TIP3    H148574   5.390   1.809  13.042  2.4432 -0.1628  0.7372
 9053TIP3    H248575   5.399   1.701  12.936 -1.3594 -0.2040  0.3295
 9054TIP3   OH248576   2.877   4.959   2.048 -0.5626 -0.6268 -0.1860
 9054TIP3    H148577   2.863   4.871   2.084 -0.4765 -1.4566 -2.0484
 9054TIP3    H248578   2.791   5.001   2.055 -1.0918 -1.5319 -0.9130
 9055TIP3   OH248579   2.525   5.089   2.753  0.1328  0.0016 -0.5881
 9055TIP3    H148580   2.529   5.059   2.843  0.1177 -0.0365 -0.5998
 9055TIP3    H248581   2.449   5.147   2.750 -0.6679 -1.0321 -0.8803
 9056TIP3   OH248582   2.022   6.284   1.131 -0.3264  0.0162  0.4458
 9056TIP3    H148583   1.998   6.194   1.107 -0.5481 -0.2552  1.6344
 9056TIP3    H248584   1.953   6.338   1.093  0.3283 -0.1865 -1.1361
 9057TIP3   OH248585   1.929   1.765  13.514 -0.2150  0.5686  0.9236
 9057TIP3    H148586   1.990   1.705  13.471 -2.2883 -1.5924  0.7790
 9057TIP3    H248587   1.957   1.852  13.487  2.2002 -0.3660  0.1522
 9058TIP3   OH248588   3.590   2.125  15.648  0.1358 -0.1768  0.2305
 9058TIP3    H148589   3.544   2.208  15.653 -0.1009 -0.2732 -0.2863
 9058TIP3    H248590   3.545   2.069  15.712 -1.2815 -0.6512 -1.1242
 9059TIP3   OH248591   3.600   0.822   1.896 -0.0868 -0.5953  0.3338
 9059TIP3    H148592   3.660   0.836   1.969 -0.5662  1.5040  0.3826
 9059TIP3    H248593   3.528   0.884   1.911 -0.5992 -0.6845 -1.4790
 9060TIP3   OH248594   0.743   6.243   4.856 -0.3199 -0.0122 -0.2667
 9060TIP3    H148595   0.730   6.273   4.946 -0.9017  0.5466 -0.5303
 9060TIP3    H248596   0.744   6.324   4.804 -1.8914 -0.4188 -0.9966
 9061TIP3   OH248597   5.761   6.367  12.781 -0.7466 -0.0886 -0.2573
 9061TIP3    H148598   5.842   6.417  12.773 -0.4509 -0.6742 -1.0018
 9061TIP3    H248599   5.788   6.276  12.773 -1.5687 -0.2577 -1.2952
 9062TIP3   OH248600   6.515   4.069   3.945  0.4266 -0.3702 -0.4440
 9062TIP3    H148601   6.524   4.102   3.855  1.5791 -1.7903 -0.8880
 9062TIP3    H248602   6.554   3.982   3.942  1.1089 -0.1763  1.5980
 9063TIP3   OH248603   0.208   1.176   4.779 -0.3794 -0.3136 -0.1519
 9063TIP3    H148604   0.192   1.146   4.689  0.4082 -2.7656  0.4577
 9063TIP3    H248605   0.150   1.252   4.790 -0.3720  0.1641 -2.7607
 9064TIP3   OH248606   6.688   0.301  13.762 -0.3892  0.5828 -0.5436
 9064TIP3    H148607   6.593   0.300  13.748 -0.2639  0.4574 -1.3780
 9064TIP3    H248608   6.726   0.293  13.675  0.3971  0.8985 -0.2394
 9065TIP3   OH248609   0.346   4.824   4.325  0.0757  0.1456  0.0242
 9065TIP3    H148610   0.301   4.900   4.288  0.4178  1.0393  1.3573
 9065TIP3    H248611   0.276   4.766   4.355 -0.2385  1.2830  1.6083
 9066TIP3   OH248612   5.779   3.677  15.328  0.0493  0.1897  0.4330
 9066TIP3    H148613   5.844   3.634  15.273 -1.2259 -1.7189  0.3348
 9066TIP3    H248614   5.788   3.635  15.414 -1.7383 -0.9216  0.1291
 9067TIP3   OH248615   3.888   5.664  16.669  0.3850  0.5391  0.3731
 9067TIP3    H148616   3.919   5.605  16.600  0.6790  0.2880  0.7155
 9067TIP3    H248617   3.816   5.712  16.629 -0.1790 -0.4054  0.2469
 9068TIP3   OH248618   3.340   6.726  11.911  0.3792  0.3135 -0.4874
 9068TIP3    H148619   3.416   6.682  11.949  0.3788  0.5567 -0.2018
 9068TIP3    H248620   3.320   6.676  11.833  0.6966  0.1121 -0.4418
 9069TIP3   OH248621   4.901   3.197  12.032 -0.5877 -0.0998  0.5953
 9069TIP3    H148622   4.984   3.234  12.002 -0.4647 -1.3593 -0.7069
 9069TIP3    H248623   4.835   3.244  11.982 -0.5312 -0.4554  0.1798
 9070TIP3   OH248624   3.768   4.448   5.450 -0.0958  0.0531  0.2886
 9070TIP3    H148625   3.829   4.378   5.428  0.9982  1.4526 -1.4734
 9070TIP3    H248626   3.756   4.496   5.367 -1.7207  1.2413  1.1484
 9071TIP3   OH248627   6.093   5.063  14.429  0.4129  0.3564 -0.0002
 9071TIP3    H148628   6.187   5.051  14.421  0.4690  1.8905 -2.9171
 9071TIP3    H248629   6.069   5.121  14.356 -2.9644 -0.9921 -0.1837
 9072TIP3   OH248630   4.480   2.847  12.867  0.1909 -0.4346 -0.0476
 9072TIP3    H148631   4.453   2.775  12.925 -1.6256  0.2678  0.0469
 9072TIP3    H248632   4.511   2.915  12.926 -0.6577 -0.1268  0.0611
 9073TIP3   OH248633   1.319   0.811  16.766  0.1778  0.1462 -0.1180
 9073TIP3    H148634   1.399   0.789  16.813 -0.1528 -1.5935 -0.3106
 9073TIP3    H248635   1.348   0.839  16.679  0.5500 -1.2672 -0.4625
 9074TIP3   OH248636   0.432   2.399  16.110  0.2967  0.1672  0.0077
 9074TIP3    H148637   0.486   2.478  16.112 -0.5411  0.7642 -0.3833
 9074TIP3    H248638   0.464   2.350  16.035 -1.0938  1.5539 -1.5599
 9075TIP3   OH248639   5.652   2.940   5.390  0.2911  0.4343  0.3059
 9075TIP3    H148640   5.565   2.922   5.354 -0.3829 -2.4797  2.9218
 9075TIP3    H248641   5.651   3.033   5.410 -1.3941  0.9112 -1.6474
 9076TIP3   OH248642   2.894   3.504  16.977  0.0808  0.1106  0.1176
 9076TIP3    H148643   2.888   3.421  16.929 -0.6486 -0.0205  0.4219
 9076TIP3    H248644   2.807   3.517  17.013 -0.1882  1.6971 -1.0206
 9077TIP3   OH248645   2.127   1.881  16.643  0.0796 -0.0384  0.4585
 9077TIP3    H148646   2.101   1.946  16.578  2.4766 -1.0434 -1.6812
 9077TIP3    H248647   2.108   1.797  16.602 -0.2212 -0.7222  1.9300
 9078TIP3   OH248648   1.295   0.837  15.662  0.1441 -0.1145  0.4136
 9078TIP3    H148649   1.307   0.742  15.660  1.7077  0.0237  1.3290
 9078TIP3    H248650   1.372   0.869  15.709  0.6628  1.7745 -1.5625
 9079TIP3   OH248651   2.471   2.311  13.865  0.8408 -0.6957  0.4824
 9079TIP3    H148652   2.545   2.309  13.805  1.4977 -0.0770  1.2546
 9079TIP3    H248653   2.510   2.304  13.952 -0.0455 -0.8977  0.8768
 9080TIP3   OH248654   0.015   1.856  13.602  0.0161 -0.4025  0.2942
 9080TIP3    H148655  -0.068   1.825  13.640  0.2649 -0.8010  0.5155
 9080TIP3    H248656   0.081   1.796  13.636  0.0639 -1.7794 -2.0182
 9081TIP3   OH248657   1.857   5.749   2.279 -0.0061 -0.1300 -0.2240
 9081TIP3    H148658   1.876   5.695   2.203 -1.6214 -0.5748 -0.3579
 9081TIP3    H248659   1.895   5.834   2.258  1.4327 -0.8285 -0.5702
 9082TIP3   OH248660   3.346   5.724  10.748  0.5627  0.6116 -0.3606
 9082TIP3    H148661   3.304   5.762  10.671  1.9208  0.8516 -0.9971
 9082TIP3    H248662   3.403   5.656  10.714 -1.0599 -1.3643  0.6961
 9083TIP3   OH248663   6.706   3.477  13.868 -0.1362 -0.4493 -0.3145
 9083TIP3    H148664   6.752   3.397  13.841  0.4613 -0.4564  0.6678
 9083TIP3    H248665   6.680   3.460  13.959 -2.3180 -0.5349 -0.9095
 9084TIP3   OH248666   1.416   2.482   3.169  0.0741  0.6309 -0.1879
 9084TIP3    H148667   1.389   2.435   3.247 -1.1169 -1.2274 -1.6252
 9084TIP3    H248668   1.373   2.567   3.175 -0.7696  0.1456  0.7082
 9085TIP3   OH248669   4.218   1.484  13.670  0.2431  0.0422 -0.3071
 9085TIP3    H148670   4.206   1.578  13.663 -0.7086  0.2154  2.4143
 9085TIP3    H248671   4.226   1.468  13.764  2.8914 -2.3333 -0.7904
 9086TIP3   OH248672   5.418   4.697  11.587 -0.4856 -0.2652 -0.2186
 9086TIP3    H148673   5.358   4.731  11.653 -0.3905  1.0953 -0.8044
 9086TIP3    H248674   5.383   4.611  11.564 -0.4554 -0.8236  1.6664
 9087TIP3   OH248675   2.557   4.545  15.639  0.1195  0.3320  0.1526
 9087TIP3    H148676   2.521   4.540  15.551  0.2373 -1.1401  0.1673
 9087TIP3    H248677   2.514   4.474  15.687  2.9905 -1.5496  0.1740
 9088TIP3   OH248678   1.154   0.951  12.238 -0.5816  0.2856  0.1700
 9088TIP3    H148679   1.137   0.981  12.327  3.1060 -0.2085  1.2110
 9088TIP3    H248680   1.177   0.859  12.247 -0.2430  0.1893 -1.3200
 9089TIP3   OH248681   4.424   1.537  17.035  0.2843 -0.5073 -0.1674
 9089TIP3    H148682   4.489   1.468  17.022  0.7103  0.0877 -1.3546
 9089TIP3    H248683   4.474   1.618  17.029 -0.1557 -0.0815  1.5074
 9090TIP3   OH248684   6.247   2.842   0.270 -0.4165  0.4058  0.2592
 9090TIP3    H148685   6.206   2.858   0.185  0.0904  0.0595 -0.0587
 9090TIP3    H248686   6.252   2.747   0.276 -2.0223  0.3508  1.4505
 9091TIP3   OH248687   4.254   4.917  14.021  0.0007  0.1381 -0.0525
 9091TIP3    H148688   4.234   4.910  13.928 -0.2883 -1.1317  0.0881
 9091TIP3    H248689   4.334   4.865  14.032 -1.0969 -1.4684  0.7325
 9092TIP3   OH248690   1.824   1.183   2.072 -0.2512 -0.3144 -0.7221
 9092TIP3    H148691   1.781   1.240   2.007  1.1875 -0.5249 -1.9177
 9092TIP3    H248692   1.766   1.186   2.148 -0.9105  1.6863 -1.2257
 9093TIP3   OH248693   1.645   3.710  11.809  0.2297  0.0484  0.1352
 9093TIP3    H148694   1.698   3.708  11.889  1.7403 -0.6922 -0.8220
 9093TIP3    H248695   1.678   3.636  11.757  1.0920  1.9605 -2.2571
 9094TIP3   OH248696   4.131   2.138  12.999  0.5833  0.0154  0.7469
 9094TIP3    H148697   4.190   2.153  12.925  0.3131 -2.6819 -0.1636
 9094TIP3    H248698   4.050   2.107  12.958 -0.3910  0.6781  2.1097
 9095TIP3   OH248699   0.495   3.496  12.911  0.9158 -0.3015  0.1895
 9095TIP3    H148700   0.488   3.484  12.817  2.5172 -1.9154  0.2269
 9095TIP3    H248701   0.569   3.556  12.922  0.3008  0.4253  0.4053
 9096TIP3   OH248702   2.892   5.346   5.534  0.1471  0.8663  0.3783
 9096TIP3    H148703   2.814   5.362   5.586 -0.1201 -0.3171  0.3781
 9096TIP3    H248704   2.927   5.433   5.514 -2.1072  1.5280 -1.0563
 9097TIP3   OH248705   4.314   5.542   0.282 -0.3433 -0.0645  0.1703
 9097TIP3    H148706   4.382   5.477   0.264 -0.7791 -0.5060  0.0821
 9097TIP3    H248707   4.233   5.491   0.288 -0.7581  0.5113 -0.3152
 9098TIP3   OH248708   5.058   2.181   2.475 -0.1024  0.0241  0.0225
 9098TIP3    H148709   5.138   2.130   2.459  0.6438  0.8993  0.8846
 9098TIP3    H248710   5.020   2.192   2.388  0.4856 -0.7656 -0.3501
 9099TIP3   OH248711   0.597   4.965   1.705  0.5635  0.4612 -0.3687
 9099TIP3    H148712   0.663   5.016   1.658  0.3532  1.3570  0.2883
 9099TIP3    H248713   0.523   4.960   1.645  0.2272  1.7585 -0.1041
 9100TIP3   OH248714   5.382   0.282   3.292 -0.4434 -0.0245 -0.2551
 9100TIP3    H148715   5.400   0.372   3.317 -2.2713  1.0304 -2.3711
 9100TIP3    H248716   5.396   0.281   3.197 -2.5050 -1.4001 -0.5987
 9101TIP3   OH248717   4.010   0.545  12.302  0.9047  0.5538 -0.2472
 9101TIP3    H148718   3.971   0.575  12.384  0.0323 -0.2667 -0.3458
 9101TIP3    H248719   3.959   0.587  12.233 -0.9225 -1.7052 -0.4090
 9102TIP3   OH248720   1.838   0.791   4.972 -0.6578 -0.1157  0.8591
 9102TIP3    H148721   1.803   0.721   4.916 -2.1477  1.6580 -0.5636
 9102TIP3    H248722   1.906   0.748   5.025  0.5084 -2.0442 -1.9404
 9103TIP3   OH248723   3.346   3.866  17.071 -0.7269  0.1752 -0.4085
 9103TIP3    H148724   3.300   3.936  17.117 -4.5699 -2.3921  0.0951
 9103TIP3    H248725   3.393   3.818  17.140  1.4671  1.7501 -0.6867
 9104TIP3   OH248726   2.461   2.437   0.230 -0.3813  0.2566  0.3957
 9104TIP3    H148727   2.378   2.485   0.235  0.2748  2.3593 -4.3805
 9104TIP3    H248728   2.523   2.492   0.278 -0.7589  1.3647 -0.3519
 9105TIP3   OH248729   2.778   2.624  14.895  0.5051 -0.7536  0.1303
 9105TIP3    H148730   2.688   2.597  14.876 -0.2783  0.4305  1.8764
 9105TIP3    H248731   2.823   2.542  14.915 -0.9417 -1.1777  1.9912
 9106TIP3   OH248732   2.169   2.133   0.501  0.2234  0.2407  0.3285
 9106TIP3    H148733   2.152   2.080   0.423 -0.0457  0.1168  0.4724
 9106TIP3    H248734   2.102   2.202   0.498  0.5340  0.5407  0.1731
 9107TIP3   OH248735   2.253   1.760  16.861 -0.3159 -0.1338 -0.8141
 9107TIP3    H148736   2.208   1.800  16.787  0.0904  0.2088 -0.8806
 9107TIP3    H248737   2.269   1.670  16.832  2.7318  0.7903 -2.5492
 9108TIP3   OH248738   3.710   5.478  13.774  0.2460  0.4738 -0.0161
 9108TIP3    H148739   3.641   5.439  13.828  2.7145 -1.8738  1.6943
 9108TIP3    H248740   3.696   5.440  13.687  0.2004 -1.1544  0.6689
 9109TIP3   OH248741   5.843   0.180  11.871  0.4585 -0.0708  0.2318
 9109TIP3    H148742   5.893   0.209  11.948  1.0574  0.0594 -0.2025
 9109TIP3    H248743   5.901   0.197  11.797  0.4430 -1.5112 -0.1311
 9110TIP3   OH248744   2.683   6.302  16.299  0.2084 -0.2998 -0.3438
 9110TIP3    H148745   2.615   6.330  16.360  0.8858 -2.0884  1.3544
 9110TIP3    H248746   2.760   6.354  16.323  0.1120 -0.0251 -0.6194
 9111TIP3   OH248747   2.359   2.059  14.216 -0.0723  0.0653  0.4290
 9111TIP3    H148748   2.289   2.006  14.256 -0.4405  0.5770  0.4681
 9111TIP3    H248749   2.314   2.134  14.179  0.1920 -0.6495 -1.4314
 9112TIP3   OH248750   0.886   4.597   3.787 -0.2859  0.2531  0.0167
 9112TIP3    H148751   0.936   4.650   3.849 -0.3297 -0.9993  1.1936
 9112TIP3    H248752   0.934   4.603   3.705 -1.2990  3.5747 -0.4528
 9113TIP3   OH248753   0.777   4.193  14.026  0.0318  0.4267 -0.3223
 9113TIP3    H148754   0.787   4.288  14.027  0.2604  0.4039  0.1443
 9113TIP3    H248755   0.864   4.160  14.003 -0.0045  0.3276 -0.3174
 9114TIP3   OH248756   1.996   6.377  16.757  0.9026  0.0275  0.5807
 9114TIP3    H148757   2.064   6.441  16.740  1.9227 -1.3654 -0.8502
 9114TIP3    H248758   1.927   6.426  16.802  1.9916  1.9050  0.2784
 9115TIP3   OH248759   1.994   3.588  13.923  0.1692  0.1550 -0.6397
 9115TIP3    H148760   1.979   3.584  14.018 -0.9482  0.8628 -0.7833
 9115TIP3    H248761   2.029   3.501  13.902 -1.7660 -0.8647  0.0612
 9116TIP3   OH248762   5.750   4.218  15.981 -0.2090 -0.1827  0.4095
 9116TIP3    H148763   5.745   4.242  15.888  1.8732  1.3533  0.6379
 9116TIP3    H248764   5.736   4.123  15.981  1.7406 -0.5640 -1.7191
 9117TIP3   OH248765   5.045   5.107  15.194  0.1891 -0.4399  0.4694
 9117TIP3    H148766   4.969   5.114  15.252  1.1592 -0.9254  1.8471
 9117TIP3    H248767   5.026   5.166  15.122 -1.6327 -0.7815  0.6272
 9118TIP3   OH248768   5.630   1.702   0.604  0.1007  0.4498  0.1642
 9118TIP3    H148769   5.601   1.617   0.637 -0.2285  1.0020  1.3591
 9118TIP3    H248770   5.687   1.681   0.530 -0.0586 -0.7998  0.3696
 9119TIP3   OH248771   5.704   6.230   1.794  0.7390  0.5104 -0.0042
 9119TIP3    H148772   5.734   6.220   1.885  0.0874 -1.2733  0.0656
 9119TIP3    H248773   5.726   6.320   1.771  2.2577  0.5632  1.4346
 9120TIP3   OH248774   1.183   5.834   2.880  0.5273  0.0490  0.2691
 9120TIP3    H148775   1.097   5.846   2.919  0.7060  2.0408  0.1783
 9120TIP3    H248776   1.240   5.894   2.930  1.5681 -0.2469 -0.5319
 9121TIP3   OH248777   5.195   2.140   5.075 -0.1270  0.0662 -0.2903
 9121TIP3    H148778   5.278   2.145   5.123 -0.5388  0.5930  0.3913
 9121TIP3    H248779   5.219   2.108   4.988  0.7200 -0.2963  0.0649
 9122TIP3   OH248780   4.849   5.607  13.976 -0.0340  0.4034 -0.2422
 9122TIP3    H148781   4.925   5.612  13.918  1.5241  0.0529  1.6699
 9122TIP3    H248782   4.806   5.525  13.952  1.4537 -0.5049  0.0472
 9123TIP3   OH248783   3.532   5.739  13.733 -0.1223  0.1475  0.3687
 9123TIP3    H148784   3.604   5.678  13.746  0.4584  1.0101  1.2804
 9123TIP3    H248785   3.561   5.795  13.660 -0.2638 -0.0770  0.1389
 9124TIP3   OH248786   1.491   4.066   5.243  0.2055  0.0330  0.3195
 9124TIP3    H148787   1.551   4.106   5.181  1.3632  1.3741  2.1705
 9124TIP3    H248788   1.505   3.972   5.235  0.9371  0.2263 -0.8321
 9125TIP3   OH248789   6.663   1.288   4.357 -0.3647  0.2094 -0.8394
 9125TIP3    H148790   6.602   1.215   4.352 -0.3580  0.2062 -0.8810
 9125TIP3    H248791   6.629   1.344   4.427  0.6684 -0.7929  0.5181
 9126TIP3   OH248792   3.062   5.115   0.258  0.0197  0.3673  0.4756
 9126TIP3    H148793   3.049   5.024   0.231  0.2241  0.7884 -1.1466
 9126TIP3    H248794   2.975   5.145   0.285 -0.4777  0.2738 -0.9442
 9127TIP3   OH248795   3.467   4.466   2.520 -0.5302 -0.1336 -0.1751
 9127TIP3    H148796   3.400   4.508   2.573  0.2633 -2.3254  2.7817
 9127TIP3    H248797   3.535   4.440   2.582  0.6966 -2.4839 -2.3028
 9128TIP3   OH248798   5.885   0.702  11.777 -0.2812  0.1158  0.4989
 9128TIP3    H148799   5.934   0.784  11.768  0.3956 -0.3007  0.3496
 9128TIP3    H248800   5.909   0.669  11.863  2.3842 -1.7776 -0.8197
 9129TIP3   OH248801   1.347   2.248  16.460  0.5853 -0.0441 -0.0091
 9129TIP3    H148802   1.260   2.281  16.441  0.6371 -0.4910 -1.1738
 9129TIP3    H248803   1.335   2.185  16.531 -0.3752 -1.4564 -1.3356
 9130TIP3   OH248804   1.875   0.527   0.635 -0.2996  0.4151 -0.2023
 9130TIP3    H148805   1.914   0.518   0.548  1.3564  1.3720  0.3923
 9130TIP3    H248806   1.874   0.438   0.671  2.0260  0.3955 -0.0079
 9131TIP3   OH248807   5.011   2.919  15.973  0.0353  0.6963  0.3857
 9131TIP3    H148808   4.920   2.892  15.988  0.1167  0.5378  0.6069
 9131TIP3    H248809   5.004   2.995  15.916 -0.1835 -0.0070 -0.5458
 9132TIP3   OH248810   2.971   2.751   0.135  0.4221 -0.1195 -0.1690
 9132TIP3    H148811   2.945   2.803   0.059  0.3617 -1.6868 -1.2879
 9132TIP3    H248812   3.052   2.707   0.107  0.3819 -0.7472  0.6638
 9133TIP3   OH248813   0.927   6.240  16.148 -0.3490  0.2679  0.0159
 9133TIP3    H148814   0.950   6.147  16.141  0.3561  0.4197  0.2085
 9133TIP3    H248815   0.944   6.275  16.061 -1.3907  0.0602 -0.2852
 9134TIP3   OH248816   0.837   1.751   1.966 -0.6881  0.0655 -0.1156
 9134TIP3    H148817   0.923   1.766   2.003 -0.0173 -0.9497 -1.1968
 9134TIP3    H248818   0.778   1.750   2.042  0.3840 -0.2516  0.7352
 9135TIP3   OH248819   5.507   1.821  11.444 -0.3021  0.3436 -0.0145
 9135TIP3    H148820   5.481   1.775  11.524 -1.1566  0.4191 -0.2322
 9135TIP3    H248821   5.470   1.768  11.373 -1.5905  1.5036 -0.2559
 9136TIP3   OH248822   1.788   0.657   5.354 -0.3992 -0.2286 -0.7282
 9136TIP3    H148823   1.835   0.722   5.407 -1.5214 -0.0168  0.0382
 9136TIP3    H248824   1.749   0.598   5.418 -0.7832 -0.6789 -1.3712
 9137TIP3   OH248825   3.221   2.369   1.139 -0.4146  0.3842  0.0858
 9137TIP3    H148826   3.168   2.423   1.197 -2.0966 -0.7800 -0.2863
 9137TIP3    H248827   3.169   2.361   1.059  1.0539  0.4881 -0.9304
 9138TIP3   OH248828   3.689   4.916   4.548 -0.5833 -0.6067  0.7139
 9138TIP3    H148829   3.696   4.854   4.475 -0.4654 -3.0075  2.6047
 9138TIP3    H248830   3.595   4.933   4.556 -0.6338 -0.6699  0.2755
 9139TIP3   OH248831   5.267   0.359  14.833 -0.2246  0.3752 -0.0151
 9139TIP3    H148832   5.325   0.355  14.909 -0.7890 -0.0891  0.4103
 9139TIP3    H248833   5.234   0.449  14.833 -1.4374 -0.0341  1.2534
 9140TIP3   OH248834   5.771   3.947   1.763  0.0622 -0.2349  0.7274
 9140TIP3    H148835   5.701   4.012   1.763 -0.6224 -0.9608  1.5341
 9140TIP3    H248836   5.771   3.910   1.851  1.1495 -0.5907  0.6027
 9141TIP3   OH248837   3.378   5.529   4.245  0.0805 -0.0960 -0.3633
 9141TIP3    H148838   3.401   5.465   4.178  0.8958 -0.0274 -0.1609
 9141TIP3    H248839   3.347   5.477   4.319 -2.6262 -0.1129 -1.4118
 9142TIP3   OH248840   2.813   3.199   5.372 -0.3722  0.2704  0.0147
 9142TIP3    H148841   2.842   3.278   5.326  0.3515  0.7699  1.2727
 9142TIP3    H248842   2.882   3.135   5.355  0.3875  0.7513  1.1321
 9143TIP3   OH248843   0.512   0.261  12.371 -0.0671  0.6064 -0.4864
 9143TIP3    H148844   0.485   0.334  12.316  0.2647  0.6272 -0.6219
 9143TIP3    H248845   0.590   0.294  12.417 -1.0166  1.0113  0.8810
 9144TIP3   OH248846   1.956   0.187   0.868 -0.0085 -0.1092 -0.0987
 9144TIP3    H148847   1.901   0.124   0.915  0.0133 -0.0798 -0.0337
 9144TIP3    H248848   2.001   0.235   0.937 -0.7221  0.6080 -0.1285
 9145TIP3   OH248849   2.361   0.139   1.231 -0.7756  0.0799  0.0800
 9145TIP3    H148850   2.417   0.180   1.297  0.0453 -2.7297  1.2507
 9145TIP3    H248851   2.410   0.063   1.201 -2.0709  0.0608 -2.2446
 9146TIP3   OH248852   5.263   1.290   2.890 -0.1560  0.2197  0.9347
 9146TIP3    H148853   5.325   1.221   2.869 -0.7347 -0.9115  2.7508
 9146TIP3    H248854   5.225   1.315   2.805  1.4963 -0.2601  0.0208
 9147TIP3   OH248855   2.282   5.620  14.179  0.1587 -0.1498 -0.4325
 9147TIP3    H148856   2.335   5.565  14.237  0.6216 -0.5509 -1.2146
 9147TIP3    H248857   2.328   5.704  14.178  0.1669 -0.1514 -0.2492
 9148TIP3   OH248858   6.132   6.297  16.879 -0.2025  0.2097 -0.2961
 9148TIP3    H148859   6.174   6.376  16.845  2.5068 -0.5343  1.0786
 9148TIP3    H248860   6.181   6.225  16.840 -1.6909 -0.8139 -0.3638
 9149TIP3   OH248861   6.310   4.099   0.080  0.1487 -0.7732  0.1232
 9149TIP3    H148862   6.230   4.076   0.128 -0.7128  1.6863 -0.0103
 9149TIP3    H248863   6.301   4.054  -0.004 -0.9869 -0.7318  0.2084
 9150TIP3   OH248864   4.663   1.980  13.324  0.4854  0.7156  0.1265
 9150TIP3    H148865   4.590   1.990  13.386  0.4652 -1.1590  0.4619
 9150TIP3    H248866   4.624   2.001  13.238  0.1340  1.8604  0.5413
 9151TIP3   OH248867   1.028   1.545   0.783 -0.1392  0.2092  0.5906
 9151TIP3    H148868   0.989   1.457   0.788 -0.4282  0.2975 -0.0641
 9151TIP3    H248869   1.006   1.586   0.867  0.5294 -0.5594  1.1601
 9152TIP3   OH248870   4.088   3.997   0.410  0.7658  0.3988 -0.6805
 9152TIP3    H148871   4.165   4.013   0.464  1.4365 -1.9792 -0.8060
 9152TIP3    H248872   4.108   4.038   0.326  1.4850  0.6062 -0.4116
 9153TIP3   OH248873   3.619   6.405   0.391 -0.2605 -0.1120 -0.1577
 9153TIP3    H148874   3.674   6.331   0.364 -0.2474  0.5551 -2.1376
 9153TIP3    H248875   3.545   6.365   0.436  0.9532 -1.1387  1.0533
 9154TIP3   OH248876   6.459   4.392   5.778 -0.0030  0.0210  0.0934
 9154TIP3    H148877   6.480   4.474   5.824  0.9092 -1.2306  2.0393
 9154TIP3    H248878   6.442   4.419   5.688  0.2707  2.3480  0.6693
 9155TIP3   OH248879   4.824   6.611   5.035  0.3201 -0.2178 -0.0011
 9155TIP3    H148880   4.819   6.538   4.974 -0.3919  0.2194 -0.4668
 9155TIP3    H248881   4.918   6.626   5.046  0.4632 -0.8299 -0.3435
 9156TIP3   OH248882   2.051   2.270   5.807 -0.1069 -0.0175  0.1079
 9156TIP3    H148883   2.141   2.237   5.805  0.3139  1.0826  0.1092
 9156TIP3    H248884   2.037   2.306   5.720 -0.4464  0.0821  0.2022
 9157TIP3   OH248885   4.489   3.196  16.823  0.1950 -0.4450  0.6701
 9157TIP3    H148886   4.559   3.191  16.758  1.3001 -0.3949  1.8095
 9157TIP3    H248887   4.420   3.139  16.790  0.5263 -0.0537 -0.7540
 9158TIP3   OH248888   3.577   4.798   5.063 -0.1837  0.1773  0.3447
 9158TIP3    H148889   3.545   4.888   5.065 -0.5881  0.0685 -0.6097
 9158TIP3    H248890   3.672   4.806   5.052 -0.4844  0.5481 -3.1578
 9159TIP3   OH248891   4.688   0.824  14.293  0.1719  0.1365  0.3395
 9159TIP3    H148892   4.742   0.869  14.358 -2.5355  2.6769  1.0523
 9159TIP3    H248893   4.738   0.829  14.212  1.2667  1.8474  1.0774
 9160TIP3   OH248894   1.860   2.852  13.211 -0.2989 -0.0679  0.2401
 9160TIP3    H148895   1.868   2.757  13.212 -0.3121 -0.0630  0.8065
 9160TIP3    H248896   1.857   2.874  13.118 -0.4721 -0.6325  0.1088
 9161TIP3   OH248897   2.156   6.668  15.157 -0.0903 -0.4166  0.2734
 9161TIP3    H148898   2.232   6.688  15.103  0.4025 -0.7873  0.8262
 9161TIP3    H248899   2.139   6.749  15.206  0.0629 -0.3988  0.2945
 9162TIP3   OH248900   2.778   0.682  14.318 -0.0795  0.1941  0.3638
 9162TIP3    H148901   2.763   0.734  14.397 -0.0453 -0.4580  0.8056
 9162TIP3    H248902   2.805   0.746  14.252  2.0375  0.5264  1.4470
 9163TIP3   OH248903   6.415   5.850  16.353 -0.1411 -0.2964 -0.3667
 9163TIP3    H148904   6.484   5.846  16.420 -1.2289 -1.2022  0.7510
 9163TIP3    H248905   6.462   5.859  16.271  1.2840 -0.2754  0.4136
 9164TIP3   OH248906   2.402   4.846  14.874  0.3464 -0.1647 -0.4879
 9164TIP3    H148907   2.401   4.808  14.961  1.7468  0.8268 -0.0029
 9164TIP3    H248908   2.339   4.919  14.880  2.1696  1.4305  0.4872
 9165TIP3   OH248909   5.014   4.684  12.328 -0.4183 -0.3057 -0.7079
 9165TIP3    H148910   5.008   4.702  12.422 -1.1711  0.2035 -0.8437
 9165TIP3    H248911   5.074   4.751  12.296 -1.2877  0.4438 -0.8115
 9166TIP3   OH248912   1.335   6.788  12.379  0.4893 -0.3939 -0.0878
 9166TIP3    H148913   1.373   6.749  12.300  0.1777 -0.0279 -0.4210
 9166TIP3    H248914   1.245   6.808  12.355  0.8906  1.3563 -0.2182
 9167TIP3   OH248915   0.611   1.148  14.996 -0.1651 -0.1796  0.1187
 9167TIP3    H148916   0.678   1.143  14.929 -0.9266 -1.1207 -0.5998
 9167TIP3    H248917   0.622   1.235  15.035 -0.5000  0.9075 -2.0628
 9168TIP3   OH248918   1.508   1.241   1.456  0.1361  0.2161  0.6562
 9168TIP3    H148919   1.465   1.194   1.384 -0.1053 -2.0015  2.1557
 9168TIP3    H248920   1.510   1.333   1.427 -0.2233 -0.5340 -2.0116
 9169TIP3   OH248921   1.503   0.758   1.207  0.2180  0.0099  0.4011
 9169TIP3    H148922   1.491   0.810   1.287  1.1319  1.0058 -0.0879
 9169TIP3    H248923   1.414   0.734   1.181 -0.2395  1.3382  0.6528
 9170TIP3   OH248924   3.942   4.346   0.218  0.4057 -0.3413  0.1167
 9170TIP3    H148925   3.934   4.336   0.123  1.3479 -0.1910  0.0133
 9170TIP3    H248926   3.879   4.415   0.240  0.4986 -0.0608 -0.4641
 9171TIP3   OH248927   0.046   0.069   5.689  0.1445  0.2812  0.5504
 9171TIP3    H148928   0.081   0.132   5.752  0.2762 -0.0782  0.8413
 9171TIP3    H248929  -0.043   0.099   5.671  1.1353  2.2859 -1.6059
 9172TIP3   OH248930   6.046   5.060   4.125 -0.7817 -0.3540 -0.4122
 9172TIP3    H148931   6.031   5.152   4.105  2.1990  0.4155  0.3193
 9172TIP3    H248932   5.985   5.041   4.196 -1.4808  1.0383 -0.5985
 9173TIP3   OH248933   0.487   1.921   3.930  0.2044  0.2152 -0.0030
 9173TIP3    H148934   0.457   2.012   3.929  1.2310  0.5578 -0.4066
 9173TIP3    H248935   0.504   1.900   3.838  4.7927  1.2992  0.3450
 9174TIP3   OH248936   5.213   5.645   5.866 -0.4993  0.3539  0.7056
 9174TIP3    H148937   5.202   5.560   5.909 -1.7457  0.9432  1.5906
 9174TIP3    H248938   5.132   5.658   5.817 -0.7917  1.5095  1.4562
 9175TIP3   OH248939   3.271   4.502   1.806 -0.7007  0.8820  0.6090
 9175TIP3    H148940   3.220   4.421   1.812 -0.6045  0.7860  0.1662
 9175TIP3    H248941   3.311   4.511   1.892 -1.0221  0.6653  0.7867
 9176TIP3   OH248942   2.308   6.462   5.268  0.5935 -0.2116 -0.2988
 9176TIP3    H148943   2.364   6.411   5.327 -0.4739 -2.2192 -0.9046
 9176TIP3    H248944   2.306   6.411   5.187 -0.2133  1.0325 -1.1040
 9177TIP3   OH248945   1.928   0.839   2.687  0.6985 -0.3843 -0.1216
 9177TIP3    H148946   1.974   0.757   2.668  0.3033 -0.7286  0.3589
 9177TIP3    H248947   1.936   0.850   2.782 -1.1907 -1.0863  0.1639
 9178TIP3   OH248948   0.565   0.989   0.063  0.1091 -0.0159 -0.4086
 9178TIP3    H148949   0.619   0.961   0.137 -0.4102  2.5785  1.0844
 9178TIP3    H248950   0.625   1.040   0.008  0.1362 -0.7044 -1.0381
 9179TIP3   OH248951   6.335   2.244  13.308 -0.0776 -0.2414  0.5369
 9179TIP3    H148952   6.412   2.293  13.337 -0.6753  1.0727 -0.0105
 9179TIP3    H248953   6.293   2.215  13.389 -0.5407  1.5137  0.9737
 9180TIP3   OH248954   5.135   3.327   0.537  0.0384 -0.1908 -0.2964
 9180TIP3    H148955   5.092   3.324   0.622  0.6606 -0.3247  0.0152
 9180TIP3    H248956   5.063   3.338   0.474 -0.4428 -0.3559  0.2213
 9181TIP3   OH248957   4.424   3.603   3.587 -0.4260 -0.0264 -0.6010
 9181TIP3    H148958   4.518   3.602   3.604 -0.4027 -0.2622 -0.7403
 9181TIP3    H248959   4.407   3.521   3.541 -0.8565 -0.3926  0.1999
 9182TIP3   OH248960   0.219   0.841   3.501 -0.6751 -0.1096  0.2516
 9182TIP3    H148961   0.291   0.810   3.556 -1.5351 -3.0674 -0.1010
 9182TIP3    H248962   0.142   0.840   3.558 -0.9884 -0.0059 -0.1582
 9183TIP3   OH248963   1.965   1.350  12.139  0.3106 -0.1782 -0.5672
 9183TIP3    H148964   2.011   1.277  12.180  0.9472  0.6004  0.1622
 9183TIP3    H248965   2.012   1.428  12.170  1.5138  0.4524 -3.6248
 9184TIP3   OH248966   1.117   2.404   2.382  0.2044  0.1554 -0.3796
 9184TIP3    H148967   1.090   2.494   2.402  0.5794  0.0816  0.5107
 9184TIP3    H248968   1.213   2.408   2.377  0.3425 -0.4637  1.1817
 9185TIP3   OH248969   3.388   5.608  15.758  0.3122 -0.0875 -0.1141
 9185TIP3    H148970   3.466   5.575  15.713  0.6289 -1.0400  1.0902
 9185TIP3    H248971   3.421   5.679  15.814  0.0592  0.5078 -0.7071
 9186TIP3   OH248972   2.335   0.637  16.567 -0.1076 -0.3724  0.0549
 9186TIP3    H148973   2.278   0.619  16.641  0.1052  0.7952  0.5176
 9186TIP3    H248974   2.288   0.703  16.515  0.9465  0.8923  0.6410
 9187TIP3   OH248975   6.645   4.765  16.133 -0.9726  0.0522  0.6757
 9187TIP3    H148976   6.572   4.800  16.083 -1.6150  1.6624  2.6013
 9187TIP3    H248977   6.710   4.741  16.068 -2.6158 -0.0321 -1.0150
 9188TIP3   OH248978   3.259   2.064  15.808  0.2501  0.0008 -0.5449
 9188TIP3    H148979   3.335   2.039  15.861  0.9729  0.2465 -1.4376
 9188TIP3    H248980   3.284   2.042  15.719  0.0096  1.7957 -1.0818
 9189TIP3   OH248981   2.358   4.634   4.101  0.1446  0.3505 -0.1492
 9189TIP3    H148982   2.356   4.690   4.023 -2.5893 -0.6929 -0.9521
 9189TIP3    H248983   2.269   4.638   4.136  0.7470 -0.9361  1.6729
 9190TIP3   OH248984   3.848   3.414   4.557  0.2084  0.4215  0.0246
 9190TIP3    H148985   3.909   3.474   4.513  0.5834 -0.4684 -0.7002
 9190TIP3    H248986   3.900   3.377   4.629  0.8018 -0.9244 -1.0639
 9191TIP3   OH248987   4.861   6.136   4.174  0.0404  0.2599 -0.2830
 9191TIP3    H148988   4.933   6.153   4.114  1.5628  0.4557  1.4785
 9191TIP3    H248989   4.782   6.138   4.120  1.2816  0.8099 -2.1543
 9192TIP3   OH248990   0.810   2.184   0.824  0.1983  0.3650  0.3716
 9192TIP3    H148991   0.824   2.120   0.894 -1.5012  2.2362  2.6085
 9192TIP3    H248992   0.896   2.225   0.812  0.6436 -0.3527  1.0043
 9193TIP3   OH248993   0.792   1.390  13.587 -0.2834  0.1376 -0.1577
 9193TIP3    H148994   0.851   1.416  13.516 -0.4280  1.9457  0.3171
 9193TIP3    H248995   0.714   1.356  13.543 -0.1608  0.7483 -0.8614
 9194TIP3   OH248996   0.095   1.540   6.349  0.3002 -0.5986  0.2872
 9194TIP3    H148997   0.179   1.518   6.389  0.7128  1.3517  0.5795
 9194TIP3    H248998   0.037   1.468   6.373  1.2487 -0.7991  2.1037
 9195TIP3   OH248999   4.932   3.921  13.383  0.5400 -0.2051  0.2847
 9195TIP3    H149000   4.949   3.934  13.477  0.8234  0.1052  0.1899
 9195TIP3    H249001   4.898   3.831  13.378 -1.3912  0.4437  0.9297
 9196TIP3   OH249002   2.502   0.395  10.940  0.2874  0.2419  0.2683
 9196TIP3    H149003   2.558   0.356  11.007  0.2456 -0.5971 -0.1694
 9196TIP3    H249004   2.424   0.340  10.938 -0.5241  1.3424  0.7967
 9197TIP3   OH249005   1.655   6.040   0.659  0.4035  0.2163 -0.2349
 9197TIP3    H149006   1.692   5.954   0.675  1.1728  0.3869 -1.0413
 9197TIP3    H249007   1.641   6.044   0.565 -1.1364  0.3887 -0.0330
 9198TIP3   OH249008   0.844   4.270  11.459 -0.3657  0.1845  0.3011
 9198TIP3    H149009   0.900   4.284  11.383 -0.9184 -0.1750 -0.1833
 9198TIP3    H249010   0.806   4.184  11.444 -1.6961  0.7737  0.1996
 9199TIP3   OH249011   1.792   1.517   2.819  0.2346  0.8891  0.5356
 9199TIP3    H149012   1.845   1.559   2.887  1.8348  0.1283 -0.1774
 9199TIP3    H249013   1.757   1.438   2.860  1.8976 -0.0233  0.2882
 9200TIP3   OH249014   0.372   4.404   1.639  0.0340 -0.9383 -0.2509
 9200TIP3    H149015   0.359   4.499   1.628 -0.5200 -1.0692 -0.7347
 9200TIP3    H249016   0.459   4.388   1.604  0.2594 -0.5586  0.1179
 9201TIP3   OH249017   4.945   0.226   2.829 -0.3830 -0.0885 -0.3254
 9201TIP3    H149018   4.856   0.199   2.808 -0.7974  1.1060 -0.2097
 9201TIP3    H249019   4.968   0.287   2.759  1.2368 -2.0892 -1.6673
 9202TIP3   OH249020   6.600   0.745   0.339 -0.5835  0.1478  0.6421
 9202TIP3    H149021   6.555   0.775   0.418  1.5186  1.7504  1.3487
 9202TIP3    H249022   6.693   0.743   0.364 -0.1106 -1.9488 -1.0189
 9203TIP3   OH249023   2.683   4.051   3.091  0.3685 -0.2307 -0.8761
 9203TIP3    H149024   2.629   4.085   3.163  2.3243  1.0436  0.0692
 9203TIP3    H249025   2.679   4.119   3.024  1.4798  0.2825 -0.4362
 9204TIP3   OH249026   1.356   0.231   4.875  0.5257  0.0240 -0.6170
 9204TIP3    H149027   1.431   0.239   4.934  0.5458  0.6375 -0.7262
 9204TIP3    H249028   1.395   0.227   4.788  0.3917  1.5311 -0.7698
 9205TIP3   OH249029   1.821   3.095  11.405 -0.2680  0.0270 -0.0236
 9205TIP3    H149030   1.813   3.190  11.414  0.9072  0.2960 -1.5496
 9205TIP3    H249031   1.913   3.080  11.384 -0.4745 -1.4431 -0.0026
 9206TIP3   OH249032   2.481   2.293   2.483 -0.2009 -0.0452 -0.3957
 9206TIP3    H149033   2.565   2.321   2.446 -0.7528 -0.4071 -2.0473
 9206TIP3    H249034   2.499   2.278   2.575  1.3227  0.7759 -0.5203
 9207TIP3   OH249035   1.387   2.520  16.978 -0.0850 -0.1145  0.0423
 9207TIP3    H149036   1.422   2.591  17.033 -1.2157  0.4683  0.0396
 9207TIP3    H249037   1.447   2.447  16.992  0.0011  0.2199  1.5752
 9208TIP3   OH249038   5.942   5.822  11.925 -0.1022  0.2521  0.4371
 9208TIP3    H149039   6.034   5.839  11.949  0.6590  0.3811 -2.3012
 9208TIP3    H249040   5.942   5.732  11.892 -0.5097  0.9084 -1.4480
 9209TIP3   OH249041   3.240   6.396   2.396 -0.0434 -0.1688  0.2941
 9209TIP3    H149042   3.286   6.468   2.439  0.4722  0.5594 -1.3882
 9209TIP3    H249043   3.183   6.438   2.332  1.0201 -1.2403 -1.4347
 9210TIP3   OH249044   1.601   1.053   0.964 -0.4121  0.4226 -0.0726
 9210TIP3    H149045   1.645   1.128   0.923  0.7880  0.4452  1.1871
 9210TIP3    H249046   1.508   1.068   0.947 -0.1699  1.9725 -0.2239
 9211TIP3   OH249047   2.377   2.464  15.486 -0.2169 -0.2425  0.3693
 9211TIP3    H149048   2.340   2.524  15.421 -1.8575 -0.6361  0.8726
 9211TIP3    H249049   2.452   2.425  15.443 -0.3064  0.7088 -0.6895
 9212TIP3   OH249050   5.185   5.241   3.266  0.1499 -0.2042 -0.5120
 9212TIP3    H149051   5.188   5.309   3.198  1.6457 -0.0997 -0.3700
 9212TIP3    H249052   5.134   5.281   3.337  2.5203  1.5437  0.3252
 9213TIP3   OH249053   4.589   4.078   1.341  0.3041 -0.2004  0.4101
 9213TIP3    H149054   4.616   4.077   1.249 -0.7809 -1.5979  0.0663
 9213TIP3    H249055   4.567   4.169   1.359 -1.6118 -0.2143 -1.4234
 9214TIP3   OH249056   3.217   5.949   2.071  1.0206 -0.2525 -0.1547
 9214TIP3    H149057   3.159   5.917   2.140  1.4497  0.2380  0.4389
 9214TIP3    H249058   3.158   5.964   1.997  0.1389  1.5147  0.8393
 9215TIP3   OH249059   0.290   4.901   1.062 -0.1991  0.4220 -0.3147
 9215TIP3    H149060   0.328   4.878   0.978  1.1596  1.7883 -0.1200
 9215TIP3    H249061   0.231   4.975   1.043 -0.2146  0.4573 -0.1381
 9216TIP3   OH249062   5.733   0.423  12.666 -0.0192 -0.4456 -0.1796
 9216TIP3    H149063   5.812   0.369  12.671  0.5963  0.3579 -0.9614
 9216TIP3    H249064   5.661   0.361  12.674  0.6871 -1.1376  1.0558
 9217TIP3   OH249065   2.419   0.387  13.199 -0.2608 -0.2025  0.2913
 9217TIP3    H149066   2.364   0.327  13.250  1.7369 -1.9929  0.4696
 9217TIP3    H249067   2.357   0.435  13.145 -1.9649 -3.1093 -0.5912
 9218TIP3   OH249068   0.917   2.209  15.439  0.0972 -0.3373  0.0601
 9218TIP3    H149069   0.878   2.279  15.492  0.2670 -0.2214  0.0311
 9218TIP3    H249070   0.988   2.175  15.494 -0.7121 -1.2647  0.5694
 9219TIP3   OH249071   4.808   0.672   0.022 -0.0835  0.7566 -0.4419
 9219TIP3    H149072   4.762   0.733  -0.035 -0.7241 -1.1842 -2.0769
 9219TIP3    H249073   4.898   0.670  -0.012  0.3442  1.8435  0.5390
 9220TIP3   OH249074   0.200   5.080  16.396 -0.2357  0.1459  0.0649
 9220TIP3    H149075   0.251   5.012  16.440  1.0252  0.8188 -0.3273
 9220TIP3    H249076   0.115   5.039  16.379  0.5952 -1.4461 -0.4367
 9221TIP3   OH249077   3.748   3.192  11.548 -0.0810  0.0431 -0.0972
 9221TIP3    H149078   3.777   3.117  11.496 -1.3454 -0.2681 -0.3911
 9221TIP3    H249079   3.680   3.156  11.605 -0.0014  0.7671  0.4563
 9222TIP3   OH249080   3.624   5.455   4.767  0.2575 -0.0202  0.1302
 9222TIP3    H149081   3.665   5.444   4.681  2.1890  0.8593  0.8718
 9222TIP3    H249082   3.660   5.538   4.800 -0.1834 -0.4889  1.8987
 9223TIP3   OH249083   6.708   2.506  11.217  0.1493  0.0730  0.6822
 9223TIP3    H149084   6.738   2.583  11.169 -1.9743  0.4245 -0.2027
 9223TIP3    H249085   6.701   2.438  11.150 -2.6274  0.5035  0.4224
 9224TIP3   OH249086   4.770   0.696  16.728 -0.0844  1.1099  0.8066
 9224TIP3    H149087   4.839   0.649  16.681 -0.0350  0.6566  1.3231
 9224TIP3    H249088   4.757   0.776  16.678  0.7325  1.1367  0.6258
 9225TIP3   OH249089   4.182   0.432  15.777 -0.5012  0.0310  0.0244
 9225TIP3    H149090   4.109   0.371  15.784 -0.5357  0.0809  0.0953
 9225TIP3    H249091   4.187   0.453  15.684 -0.2955 -0.3186 -0.0482
 9226TIP3   OH249092   4.738   0.249  14.711 -0.0071  0.2296  0.9124
 9226TIP3    H149093   4.832   0.256  14.696 -0.1947 -0.2062 -0.5811
 9226TIP3    H249094   4.699   0.245  14.624 -1.4496  0.7353  1.4987
 9227TIP3   OH249095   3.679   5.741   2.581 -0.3224 -0.0166 -0.0122
 9227TIP3    H149096   3.697   5.725   2.673  2.2526 -0.0577 -0.4443
 9227TIP3    H249097   3.585   5.729   2.572 -0.4517 -1.2890  2.3486
 9228TIP3   OH249098   1.975   3.037   3.232 -0.3967 -0.1723 -0.2270
 9228TIP3    H149099   1.903   2.976   3.248 -0.4548  0.1169  0.6813
 9228TIP3    H249100   1.933   3.123   3.227 -0.4504 -0.2641 -2.5382
 9229TIP3   OH249101   5.372   4.059  11.887 -0.0258  0.2659  0.9108
 9229TIP3    H149102   5.283   4.059  11.924  0.0052 -0.9477  1.0123
 9229TIP3    H249103   5.419   4.124  11.939 -0.3511 -0.4298  2.1230
 9230TIP3   OH249104   1.501   5.138  13.854  0.4002  0.0695  0.2439
 9230TIP3    H149105   1.488   5.044  13.851 -1.0778  0.2367  0.5782
 9230TIP3    H249106   1.590   5.152  13.822  0.6532 -1.4328  0.2581
 9231TIP3   OH249107   1.409   0.380   5.772 -0.2218  0.1583  0.0698
 9231TIP3    H149108   1.385   0.357   5.682 -1.2341  0.5642  0.2105
 9231TIP3    H249109   1.498   0.413   5.765 -0.9718  2.1477 -1.1686
 9232TIP3   OH249110   2.502   0.638   4.750 -0.3495  0.0023  0.3138
 9232TIP3    H149111   2.484   0.729   4.773 -1.6456 -0.6096  1.9385
 9232TIP3    H249112   2.453   0.624   4.668 -0.5375  0.6400  0.3150
 9233TIP3   OH249113   5.954   4.793  12.153  0.3765 -0.8411 -0.2320
 9233TIP3    H149114   5.992   4.775  12.239  0.1730 -0.9534 -0.1636
 9233TIP3    H249115   5.912   4.711  12.128  1.1128 -1.0565 -0.7992
 9234TIP3   OH249116   5.613   4.762  11.776  0.2448  0.2591 -0.2816
 9234TIP3    H149117   5.558   4.744  11.700  0.0354 -0.7321  0.0928
 9234TIP3    H249118   5.701   4.773  11.740  0.1624 -0.2886 -0.6554
 9235TIP3   OH249119   4.545   3.669  15.597  0.0376  0.6010 -0.0878
 9235TIP3    H149120   4.508   3.588  15.631 -3.3419  1.5657 -1.1272
 9235TIP3    H249121   4.519   3.736  15.660  0.4698  1.2862 -0.6152
 9236TIP3   OH249122   3.596   4.230   1.644 -0.7428  0.7977 -0.5812
 9236TIP3    H149123   3.526   4.295   1.637 -0.4611  1.0230 -1.3891
 9236TIP3    H249124   3.580   4.169   1.573 -1.2260 -0.2582  0.4075
 9237TIP3   OH249125   0.658   0.008   2.706 -0.0008  0.6443  0.3556
 9237TIP3    H149126   0.713   0.076   2.745  1.7414 -0.5645  0.1523
 9237TIP3    H249127   0.719  -0.064   2.687 -1.5824 -0.5658 -0.4015
 9238TIP3   OH249128   0.849   2.951   4.917 -0.5737  0.2467  0.1765
 9238TIP3    H149129   0.757   2.937   4.941 -0.9205  0.4526 -0.9676
 9238TIP3    H249130   0.845   3.013   4.844  0.5514  1.1491  0.8544
 9239TIP3   OH249131   6.060   3.639  13.756  0.4845 -0.8036  0.1808
 9239TIP3    H149132   6.113   3.686  13.820  0.3393  2.0585 -1.6267
 9239TIP3    H249133   6.119   3.623  13.683 -0.1479 -1.1343 -0.2702
 9240TIP3   OH249134   2.150   1.404  12.863  0.0273  0.3007  0.3129
 9240TIP3    H149135   2.214   1.468  12.893  1.6259 -1.4113  0.7757
 9240TIP3    H249136   2.166   1.396  12.769 -1.7403  2.1714 -0.2219
 9241TIP3   OH249137   1.174   2.322   0.209  0.2759 -0.8078  0.3039
 9241TIP3    H149138   1.137   2.316   0.121  1.6282  1.2958 -0.4954
 9241TIP3    H249139   1.209   2.235   0.227  0.0201 -1.2690 -1.2740
 9242TIP3   OH249140   2.870   3.812  13.013 -0.3007 -0.3216 -0.9277
 9242TIP3    H149141   2.815   3.876  13.058 -0.5354 -0.9221 -0.3402
 9242TIP3    H249142   2.878   3.846  12.924 -1.1345  0.0862 -0.8598
 9243TIP3   OH249143   6.627   5.348   4.326 -0.0196  1.5499 -0.1517
 9243TIP3    H149144   6.548   5.296   4.343  1.3482 -0.6573 -0.2124
 9243TIP3    H249145   6.609   5.433   4.368 -1.1724  0.0377  2.6757
 9244TIP3   OH249146   5.635   4.825   6.536 -1.0532 -0.1031  0.6213
 9244TIP3    H149147   5.668   4.812   6.447 -0.6544  1.6368  0.4813
 9244TIP3    H249148   5.560   4.765   6.543 -0.5282 -0.9254 -0.5512
 9245TIP3   OH249149   6.679   6.260   3.833 -0.0578  0.0659  0.4138
 9245TIP3    H149150   6.590   6.295   3.842 -0.5358 -1.1711  0.7875
 9245TIP3    H249151   6.736   6.337   3.835 -1.1692  0.9653 -0.8074
 9246TIP3   OH249152   1.048   6.584  10.419  0.2784  1.1186 -0.0888
 9246TIP3    H149153   1.023   6.613  10.331  1.2723  1.0338 -0.4017
 9246TIP3    H249154   1.143   6.594  10.422  0.3532  0.2830  0.6715
 9247TIP3   OH249155   5.562   3.226  14.181 -0.1657  0.0235  0.3310
 9247TIP3    H149156   5.590   3.304  14.230  0.3708 -0.0036  0.0835
 9247TIP3    H249157   5.467   3.230  14.182 -0.1569  0.1922  1.1015
 9248TIP3   OH249158   6.570   2.817   4.949 -0.2330  0.0757  0.4422
 9248TIP3    H149159   6.541   2.737   4.994 -1.4712  0.5797  0.5783
 9248TIP3    H249160   6.653   2.792   4.908 -0.4005 -1.1714  0.7989
 9249TIP3   OH249161   4.490   0.700  12.937  0.0747 -0.1272 -0.2053
 9249TIP3    H149162   4.407   0.749  12.938  0.4294  0.5057 -0.5209
 9249TIP3    H249163   4.478   0.630  13.001 -1.8488 -1.9958 -2.4312
 9250TIP3   OH249164   5.587   4.258  14.514 -0.3881 -0.3705 -0.1678
 9250TIP3    H149165   5.519   4.300  14.567 -1.5303 -1.5868 -0.5929
 9250TIP3    H249166   5.563   4.165  14.515  1.8919 -0.9952  0.5059
 9251TIP3   OH249167   3.814   4.826   1.298  0.3362  0.7801  0.3227
 9251TIP3    H149168   3.787   4.790   1.213  0.3476  2.3810 -0.3868
 9251TIP3    H249169   3.902   4.859   1.284  0.7842  0.0561  1.2879
 9252TIP3   OH249170   5.419   0.615   3.610 -0.2775 -0.3099  0.6394
 9252TIP3    H149171   5.354   0.568   3.661 -1.4658  0.2628 -0.3043
 9252TIP3    H249172   5.373   0.690   3.574  1.3247  1.0537  1.2718
 9253TIP3   OH249173   1.077   5.919   5.086 -0.1021 -0.2563 -0.4696
 9253TIP3    H149174   1.138   5.873   5.143 -1.1931 -1.5356 -0.2825
 9253TIP3    H249175   0.991   5.882   5.107 -0.5883 -0.6081 -2.7531
 9254TIP3   OH249176   5.167   6.063  14.042  0.1189 -0.4749  0.0018
 9254TIP3    H149177   5.108   6.122  14.089  0.0461 -0.1575 -0.4835
 9254TIP3    H249178   5.174   6.100  13.954 -0.6073 -1.6688 -0.5844
 9255TIP3   OH249179   1.491   1.983  15.995  0.5700  0.4877  0.6298
 9255TIP3    H149180   1.585   1.994  15.984  0.6886  0.2010  1.3191
 9255TIP3    H249181   1.471   2.025  16.079 -0.1004  1.5126 -0.0172
 9256TIP3   OH249182   5.304   4.219  14.841  0.3556 -0.4393  0.5810
 9256TIP3    H149183   5.214   4.228  14.873 -0.2047  3.1820 -1.4373
 9256TIP3    H249184   5.357   4.265  14.906  0.2625  0.2199  0.2030
 9257TIP3   OH249185   6.477   3.263  13.539 -0.4024 -0.3694 -0.1706
 9257TIP3    H149186   6.453   3.243  13.630 -0.5302 -1.3845 -0.4118
 9257TIP3    H249187   6.556   3.212  13.523 -1.6350 -2.0255 -1.3060
 9258TIP3   OH249188   1.697   0.097   0.289  0.5447  0.2025  0.2210
 9258TIP3    H149189   1.686   0.025   0.351 -1.3891  0.7437  0.5527
 9258TIP3    H249190   1.709   0.174   0.345  2.5412  0.2084 -0.1324
 9259TIP3   OH249191   3.673   2.247  11.871  1.0373  0.6235 -0.2344
 9259TIP3    H149192   3.736   2.283  11.933  0.7286 -0.1176  0.5312
 9259TIP3    H249193   3.684   2.152  11.877 -1.2081  0.3706  1.1295
 9260TIP3   OH249194   6.710   1.386  13.353  0.0074 -0.2419  0.6141
 9260TIP3    H149195   6.747   1.301  13.330 -2.5377 -1.1719 -0.3931
 9260TIP3    H249196   6.673   1.419  13.271 -0.6954  0.9472  1.3762
 9261TIP3   OH249197   3.103   3.125  11.702 -0.1086 -0.1864  0.4259
 9261TIP3    H149198   3.165   3.117  11.774  0.4155  0.3279  0.0399
 9261TIP3    H249199   3.088   3.035  11.673  2.3930 -0.2319 -1.0831
 9262TIP3   OH249200   5.803   5.079  14.126 -0.2598 -0.4626 -0.2878
 9262TIP3    H149201   5.754   5.011  14.174  0.2100 -1.2716 -0.9276
 9262TIP3    H249202   5.881   5.034  14.095  0.0943  0.4062 -0.6673
 9263TIP3   OH249203   5.211   3.977   2.210 -0.3776 -0.0154 -0.5023
 9263TIP3    H149204   5.166   4.008   2.131  1.4048  2.4521 -0.6710
 9263TIP3    H249205   5.304   3.987   2.189  0.1752 -1.1324  1.2580
 9264TIP3   OH249206   3.930   3.389  11.192 -0.0370 -0.0149  0.1699
 9264TIP3    H149207   3.944   3.470  11.143  1.0156  0.1333  0.6840
 9264TIP3    H249208   3.942   3.319  11.128  1.7055  0.1636  0.2558
 9265TIP3   OH249209   2.607   3.350   1.279  0.2012  0.4589  0.2380
 9265TIP3    H149210   2.603   3.271   1.333 -0.3733  1.0046  1.0221
 9265TIP3    H249211   2.675   3.332   1.215 -0.9487 -1.2956 -0.5940
 9266TIP3   OH249212   4.621   3.293  15.115  0.7150 -0.0295 -0.0908
 9266TIP3    H149213   4.595   3.294  15.023  0.4708 -1.9201 -0.0784
 9266TIP3    H249214   4.649   3.382  15.133 -0.5437  0.7211 -1.6191
 9267TIP3   OH249215   6.761   5.171   2.426 -0.2298 -0.0222  0.0747
 9267TIP3    H149216   6.687   5.172   2.486 -0.8581  0.0149 -0.6763
 9267TIP3    H249217   6.768   5.079   2.399  0.6233 -0.2043  0.8845
 9268TIP3   OH249218   0.152   3.684   3.973 -0.4457  0.5950  0.6047
 9268TIP3    H149219   0.072   3.635   3.993 -0.5548  0.6000  0.1735
 9268TIP3    H249220   0.123   3.756   3.918  0.0391 -0.1612 -0.6727
 9269TIP3   OH249221   6.310   4.318   3.159  0.0079 -0.5413  0.1067
 9269TIP3    H149222   6.331   4.229   3.131 -0.7345 -1.0010  0.9603
 9269TIP3    H249223   6.395   4.360   3.169  0.5345 -1.9694  2.2818
 9270TIP3   OH249224   0.262   5.717  11.601  0.2315  0.0888 -0.3747
 9270TIP3    H149225   0.348   5.736  11.638  0.5433  2.0989 -1.9751
 9270TIP3    H249226   0.243   5.792  11.545 -1.6267 -1.3135 -1.7276
 9271TIP3   OH249227   3.357   1.584  11.504  0.7945 -0.2299  0.2802
 9271TIP3    H149228   3.403   1.557  11.425 -0.0366 -1.3824  0.1631
 9271TIP3    H249229   3.328   1.673  11.486  1.3783 -0.1573 -0.3500
 9272TIP3   OH249230   1.729   6.225  15.207 -0.1857  0.2485 -0.1828
 9272TIP3    H149231   1.775   6.293  15.158  2.1899 -2.5898 -2.2106
 9272TIP3    H249232   1.647   6.212  15.160  0.0959  0.5884 -0.7707
 9273TIP3   OH249233   6.370   5.363  16.744  0.1126  1.0372 -0.2588
 9273TIP3    H149234   6.325   5.375  16.659 -1.0210 -0.6044  0.0640
 9273TIP3    H249235   6.338   5.435  16.797 -1.3858  0.5054 -0.3817
 9274TIP3   OH249236   4.502   1.082  14.778 -0.0970 -0.0762 -0.2518
 9274TIP3    H149237   4.454   1.093  14.696  0.2089 -0.4295 -0.4805
 9274TIP3    H249238   4.577   1.027  14.755  0.7766  0.9865 -0.0423
 9275TIP3   OH249239   4.370   0.138   3.718  0.0820 -0.2651  0.0651
 9275TIP3    H149240   4.403   0.212   3.768  2.3937 -0.2084 -1.4262
 9275TIP3    H249241   4.433   0.067   3.733 -0.3216 -0.9010 -1.0846
 9276TIP3   OH249242   2.780   4.382   3.020  0.4289 -0.4328 -0.0316
 9276TIP3    H149243   2.813   4.467   2.991 -0.4281 -0.9062 -2.7648
 9276TIP3    H249244   2.831   4.319   2.969 -0.2237 -1.4431  0.5539
 9277TIP3   OH249245   3.564   4.699   5.858  0.4705  0.2524 -0.4750
 9277TIP3    H149246   3.602   4.785   5.842 -0.6043  0.5697 -1.4964
 9277TIP3    H249247   3.502   4.713   5.930  0.7834  0.1784 -0.1884
 9278TIP3   OH249248   0.245   4.832   0.480 -0.5831  0.3673  0.4132
 9278TIP3    H149249   0.260   4.897   0.411 -1.2967  0.3377  0.2231
 9278TIP3    H249250   0.299   4.757   0.454  0.6532  1.0456  0.8998
 9279TIP3   OH249251   3.633   0.849  12.296  0.5443 -0.7647  0.3701
 9279TIP3    H149252   3.693   0.857  12.370  0.4270 -0.9636  0.4863
 9279TIP3    H249253   3.551   0.818  12.334  0.7313 -1.6975  0.0621
 9280TIP3   OH249254   0.850   6.393  10.483  0.0817 -0.5932  0.2855
 9280TIP3    H149255   0.787   6.357  10.421 -0.2828  1.4330 -0.6176
 9280TIP3    H249256   0.886   6.469  10.438  1.1722 -0.1246  1.8699
 9281TIP3   OH249257   0.327   0.065   0.954 -0.3388  0.1649 -0.1696
 9281TIP3    H149258   0.281  -0.014   0.925 -0.1400 -0.1026  0.2330
 9281TIP3    H249259   0.256   0.126   0.977 -0.4935  0.4145 -1.2908
 9282TIP3   OH249260   1.542   1.994   5.175  0.6041 -0.0711 -0.4744
 9282TIP3    H149261   1.571   1.907   5.149  1.8818  0.3450 -0.4862
 9282TIP3    H249262   1.487   1.979   5.252 -1.4449 -1.1146 -2.0506
 9283TIP3   OH249263   3.500   0.498   1.235 -0.6262  0.0209  0.4911
 9283TIP3    H149264   3.515   0.404   1.244  2.5314  0.1362 -1.7603
 9283TIP3    H249265   3.451   0.506   1.153 -1.1793  0.3416  0.8493
 9284TIP3   OH249266   2.536   3.465  14.882  0.2919  0.0245 -0.6662
 9284TIP3    H149267   2.498   3.520  14.950  1.3192  0.2658 -0.2735
 9284TIP3    H249268   2.625   3.446  14.913  0.5439 -0.4141 -1.6230
 9285TIP3   OH249269   1.625   3.635   5.447 -0.2875 -0.0238 -0.0460
 9285TIP3    H149270   1.719   3.643   5.432 -0.3248  2.0782  0.4183
 9285TIP3    H249271   1.613   3.663   5.538 -1.4471  0.7938 -0.4183
 9286TIP3   OH249272   0.548   4.112  15.265  0.5180 -0.4353 -0.0322
 9286TIP3    H149273   0.583   4.193  15.228 -1.0313 -0.4980 -1.8060
 9286TIP3    H249274   0.473   4.139  15.317 -0.0892 -0.6989 -0.7420
 9287TIP3   OH249275   2.615   1.903  12.109  0.1883 -0.0684  0.2822
 9287TIP3    H149276   2.538   1.960  12.102  0.1764 -0.1983 -0.7952
 9287TIP3    H249277   2.689   1.962  12.094  0.3061  0.0252  1.1565
 9288TIP3   OH249278   6.598   2.750  13.328 -0.0248  0.4490 -0.2089
 9288TIP3    H149279   6.655   2.734  13.252 -0.7416  0.6262 -0.7994
 9288TIP3    H249280   6.566   2.839  13.316 -1.1204  0.0498 -0.3657
 9289TIP3   OH249281   5.833   2.875   5.602  0.1375  0.5102 -0.7809
 9289TIP3    H149282   5.787   2.862   5.520 -0.1911  0.7247 -0.6321
 9289TIP3    H249283   5.909   2.929   5.579  0.6197 -0.2956 -1.1179
 9290TIP3   OH249284   1.626   5.795  15.871 -0.1154  0.1870 -0.0132
 9290TIP3    H149285   1.568   5.743  15.927  1.1086 -0.2460  0.8799
 9290TIP3    H249286   1.674   5.851  15.931  0.7111  0.2233 -0.7004
 9291TIP3   OH249287   2.611   0.519  15.611 -0.7843 -0.5449  0.1474
 9291TIP3    H149288   2.575   0.511  15.699 -0.3988  0.8017  0.4657
 9291TIP3    H249289   2.591   0.609  15.585 -1.1031 -0.9895 -1.2500
 9292TIP3   OH249290   1.439   4.215  11.972 -0.5183 -0.0066 -0.3961
 9292TIP3    H149291   1.456   4.178  11.886  0.1884 -1.0279  0.1603
 9292TIP3    H249292   1.496   4.166  12.031 -1.8862 -0.2000  0.8363
 9293TIP3   OH249293   2.221   5.997   3.248  0.0594  0.1508 -0.5055
 9293TIP3    H149294   2.279   5.936   3.293  1.5625  3.4629  2.6264
 9293TIP3    H249295   2.154   6.018   3.313 -0.8478  1.2030 -1.7315
 9294TIP3   OH249296   3.520   5.098   5.075  0.0365  0.2242  0.0550
 9294TIP3    H149297   3.559   5.118   4.990  0.9216  0.5841  0.5368
 9294TIP3    H249298   3.474   5.179   5.099 -0.2009  0.1275 -0.0687
 9295TIP3   OH249299   5.281   0.308  11.236  1.0084 -0.4079 -0.0507
 9295TIP3    H149300   5.243   0.222  11.255 -0.3949  0.6247  2.4019
 9295TIP3    H249301   5.373   0.290  11.220  0.4255 -2.5341 -1.4850
 9296TIP3   OH249302   6.450   3.883   0.830 -0.1105 -0.1776  0.3371
 9296TIP3    H149303   6.541   3.907   0.851 -0.2141  0.4468  0.0838
 9296TIP3    H249304   6.408   3.966   0.809 -0.4071 -0.6207 -0.8540
 9297TIP3   OH249305   5.780   3.826   3.467  0.6809 -0.3900  0.4299
 9297TIP3    H149306   5.708   3.788   3.417  1.5527  0.6680 -1.7539
 9297TIP3    H249307   5.773   3.920   3.450  1.3173 -0.0492  1.9342
 9298TIP3   OH249308   1.033   0.329  14.722  0.5175  0.2941  0.1059
 9298TIP3    H149309   1.128   0.339  14.727  0.4504  0.5327  1.3718
 9298TIP3    H249310   1.011   0.270  14.794 -0.2297 -0.3269 -0.6137
 9299TIP3   OH249311   6.059   0.347  17.170  0.2223 -0.7999 -0.1633
 9299TIP3    H149312   5.977   0.347  17.220  0.5497  2.0345  0.5448
 9299TIP3    H249313   6.123   0.311  17.231 -0.0553 -0.7910  0.1420
 9300TIP3   OH249314   1.887   3.520   4.191  0.1581  0.5003  0.0246
 9300TIP3    H149315   1.981   3.538   4.185  0.1358  0.2321 -1.6456
 9300TIP3    H249316   1.882   3.430   4.224  0.4452  0.7697  0.8440
 9301TIP3   OH249317   0.608   2.228  16.327  0.6289  0.2308  0.7336
 9301TIP3    H149318   0.535   2.238  16.266 -0.9382  1.8580  2.7039
 9301TIP3    H249319   0.686   2.228  16.272 -0.7610 -0.1335 -1.3582
 9302TIP3   OH249320   0.943   1.664   5.483 -0.1098  0.1402  0.3545
 9302TIP3    H149321   0.950   1.742   5.429  0.2524 -1.7242 -2.5425
 9302TIP3    H249322   1.027   1.659   5.528 -0.5174  1.8970  1.3815
 9303TIP3   OH249323   2.574   3.007  10.452 -0.1460 -0.0688 -0.3207
 9303TIP3    H149324   2.542   2.919  10.432  0.0383 -0.5708  1.3881
 9303TIP3    H249325   2.656   2.992  10.500  0.4360  1.0757 -0.9363
 9304TIP3   OH249326   3.957   2.574  12.076 -0.4407  0.2817 -0.4310
 9304TIP3    H149327   4.052   2.565  12.069 -0.3220 -1.1579  1.9576
 9304TIP3    H249328   3.943   2.628  12.154 -1.6160  1.0499 -1.1343
 9305TIP3   OH249329   3.670   2.105  11.481  0.2778  0.4320  0.8987
 9305TIP3    H149330   3.759   2.099  11.514 -0.1445 -1.1825  1.8509
 9305TIP3    H249331   3.646   2.015  11.459 -1.0389  0.8673  0.4508
 9306TIP3   OH249332   5.509   5.553   6.332 -0.3610  0.0019 -0.3788
 9306TIP3    H149333   5.510   5.458   6.340  1.8672  0.0120 -0.0487
 9306TIP3    H249334   5.505   5.569   6.238 -0.7341 -0.3992 -0.4357
 9307TIP3   OH249335   3.040   0.437   0.614 -0.1905  0.3813  0.0272
 9307TIP3    H149336   2.967   0.393   0.572  0.8336  2.8110 -5.0006
 9307TIP3    H249337   3.118   0.391   0.583  0.6371  1.2717  0.6961
 9308TIP3   OH249338   3.254   0.876   3.217 -0.0896  0.1162 -0.2516
 9308TIP3    H149339   3.224   0.955   3.263 -0.5300  0.4207 -1.0399
 9308TIP3    H249340   3.326   0.907   3.161  1.4618 -0.5237  1.2857
 9309TIP3   OH249341   6.655   0.417   1.958  0.3220  0.5649  0.5594
 9309TIP3    H149342   6.675   0.468   2.037  0.9937  0.1263  0.6800
 9309TIP3    H249343   6.625   0.332   1.991 -3.0593  1.5674  0.4286
 9310TIP3   OH249344   3.098   5.570  11.735 -0.2493 -0.1595 -0.0952
 9310TIP3    H149345   3.095   5.558  11.640  1.6609 -2.0834  0.0017
 9310TIP3    H249346   3.098   5.665  11.747  1.4031  0.1999 -2.1832
 9311TIP3   OH249347   1.108   5.481  14.973 -0.0377 -0.1609  0.3320
 9311TIP3    H149348   1.195   5.520  14.962  0.2275 -1.0942 -1.1336
 9311TIP3    H249349   1.125   5.400  15.021  0.0819 -0.8995 -0.9100
 9312TIP3   OH249350   4.104   3.572   1.836 -0.1479  0.5950 -0.1873
 9312TIP3    H149351   4.144   3.487   1.855 -1.0311  0.0642 -0.6269
 9312TIP3    H249352   4.119   3.623   1.915  0.1980 -0.0390  0.1734
 9313TIP3   OH249353   4.283   0.269  12.453 -0.0275 -0.1867  0.0170
 9313TIP3    H149354   4.330   0.190  12.482  0.1969 -0.2260 -0.4384
 9313TIP3    H249355   4.351   0.324  12.414 -0.4397 -0.4997 -1.1861
 9314TIP3   OH249356   3.561   4.755   3.803 -0.1938 -0.5267 -0.0776
 9314TIP3    H149357   3.630   4.743   3.737 -0.1950  1.9308 -0.6368
 9314TIP3    H249358   3.607   4.745   3.887  0.1335 -2.0965 -0.4042
 9315TIP3   OH249359   3.860   5.010   5.960 -0.1859 -0.1945 -0.0122
 9315TIP3    H149360   3.843   5.091   6.009 -1.7755 -0.2654 -0.3723
 9315TIP3    H249361   3.920   4.960   6.015 -1.7916 -0.2161  1.8304
 9316TIP3   OH249362   0.477   0.501  11.150 -0.3062  0.4816  0.0151
 9316TIP3    H149363   0.547   0.528  11.090  0.2336  0.2514  0.5303
 9316TIP3    H249364   0.479   0.406  11.148  1.8039  0.3466  2.6919
 9317TIP3   OH249365   5.875   2.350  13.827 -0.1226 -0.2785  0.1115
 9317TIP3    H149366   5.948   2.302  13.867  0.7994 -0.6851 -1.9440
 9317TIP3    H249367   5.836   2.288  13.766 -0.4011  0.8493 -0.8794
 9318TIP3   OH249368   2.917   1.445   0.263 -0.2515  0.1016  0.0814
 9318TIP3    H149369   2.936   1.480   0.350 -0.2301 -0.2795  0.2302
 9318TIP3    H249370   2.862   1.368   0.279  0.6937 -0.6383 -0.1750
 9319TIP3   OH249371   3.099   1.396   4.814 -0.1403 -0.4735 -0.2195
 9319TIP3    H149372   3.139   1.371   4.897 -0.0050 -0.7272 -0.3590
 9319TIP3    H249373   3.139   1.481   4.793 -1.8350  0.7176  1.0852
 9320TIP3   OH249374   3.405   0.235  13.778  0.4480  0.2550  0.2352
 9320TIP3    H149375   3.479   0.286  13.744  0.4735 -0.0670 -0.2075
 9320TIP3    H249376   3.358   0.207  13.699 -0.3014  0.6863  0.5177
 9321TIP3   OH249377   2.814   4.260   6.040  0.1718 -0.1225 -0.2356
 9321TIP3    H149378   2.720   4.279   6.044  0.2334 -0.0161  1.2343
 9321TIP3    H249379   2.843   4.299   5.957 -0.7407  1.4400  0.1411
 9322TIP3   OH249380   5.109   1.183  16.128  0.1103  0.4840 -0.2521
 9322TIP3    H149381   5.160   1.110  16.163 -0.0196  0.0517 -0.9334
 9322TIP3    H249382   5.145   1.260  16.170  1.1037  0.1496 -0.4548
 9323TIP3   OH249383   4.277   4.130  15.351 -0.5442 -0.2733 -0.7134
 9323TIP3    H149384   4.358   4.097  15.389 -0.9128 -1.2760 -0.7722
 9323TIP3    H249385   4.296   4.137  15.257 -0.4753 -0.3334 -0.7043
 9324TIP3   OH249386   0.932   0.024  12.346 -0.4241 -0.1158  0.1189
 9324TIP3    H149387   0.892   0.024  12.259 -0.3672  0.9317  0.0733
 9324TIP3    H249388   0.933   0.117  12.371  1.1228 -0.2206  0.5129
 9325TIP3   OH249389   1.773   5.727   6.025  0.3473 -0.4691 -0.0180
 9325TIP3    H149390   1.715   5.766   6.090 -0.4381 -0.2350 -0.8398
 9325TIP3    H249391   1.836   5.796   6.004  0.0520 -0.2409 -0.1616
 9326TIP3   OH249392   4.241   3.904   5.238 -0.4267  0.2907  0.0297
 9326TIP3    H149393   4.308   3.924   5.172 -0.8385  1.0531 -0.1613
 9326TIP3    H249394   4.218   3.988   5.276 -2.1928  0.2056 -0.7750
 9327TIP3   OH249395   2.301   6.426  16.646  0.0185  0.9648  0.0161
 9327TIP3    H149396   2.259   6.492  16.591 -0.0993  1.2714  0.4677
 9327TIP3    H249397   2.315   6.470  16.730 -0.9563  0.1210  0.6456
 9328TIP3   OH249398   0.301   4.985  14.266  0.7366  0.0544  0.7239
 9328TIP3    H149399   0.245   4.938  14.328  1.7121 -0.2748  1.3741
 9328TIP3    H249400   0.382   5.002  14.314  0.7062  1.7481  0.2643
 9329TIP3   OH249401   4.291   2.008  11.688 -0.4636  0.2458  0.0852
 9329TIP3    H149402   4.242   2.069  11.633 -0.5906  0.2271  0.1755
 9329TIP3    H249403   4.344   2.064  11.744 -1.9676  0.3574  1.4707
 9330TIP3   OH249404   3.086   5.950   4.949 -0.0504  0.0194  0.1623
 9330TIP3    H149405   3.073   5.883   4.882 -1.8283  0.7765 -0.2999
 9330TIP3    H249406   3.171   5.988   4.929  0.4745 -1.3204 -0.2408
 9331TIP3   OH249407   1.395   6.154   2.691 -0.2583  0.2040  0.0908
 9331TIP3    H149408   1.326   6.123   2.632  0.8605 -0.0218 -1.1515
 9331TIP3    H249409   1.376   6.110   2.774 -0.3595 -1.6177 -0.8327
 9332TIP3   OH249410   5.423   5.219  13.184 -0.4902 -0.2818 -0.6730
 9332TIP3    H149411   5.397   5.239  13.094  0.1497  1.8559 -0.4373
 9332TIP3    H249412   5.497   5.277  13.201 -1.6125  0.5728  1.7586
 9333TIP3   OH249413   3.445   2.054   1.772  0.0119  0.1441  0.4300
 9333TIP3    H149414   3.510   2.119   1.746  1.1605 -1.0511  0.2251
 9333TIP3    H249415   3.486   2.005   1.843  0.0211 -1.6350 -0.7120
 9334TIP3   OH249416   2.409   3.445   1.000 -0.3341  0.2602  0.0864
 9334TIP3    H149417   2.325   3.413   0.966 -0.4333 -2.1209  2.2942
 9334TIP3    H249418   2.464   3.367   1.008  1.7905  1.6253 -0.3757
 9335TIP3   OH249419   0.867   3.527   4.330 -0.3832 -0.0587 -0.1525
 9335TIP3    H149420   0.944   3.578   4.307 -0.9647  1.9545  2.0239
 9335TIP3    H249421   0.824   3.510   4.246  0.2515  2.4106 -1.0695
 9336TIP3   OH249422   4.233   2.168  13.287  0.1202  0.5875  0.3050
 9336TIP3    H149423   4.198   2.255  13.306 -2.6045 -0.4564  0.5531
 9336TIP3    H249424   4.213   2.154  13.195  0.7604  0.3149  0.2092
 9337TIP3   OH249425   3.172   5.258  15.731 -0.1084 -0.3306 -0.2547
 9337TIP3    H149426   3.187   5.165  15.743 -0.3917 -0.3276  0.1652
 9337TIP3    H249427   3.214   5.299  15.807 -0.8292 -0.1972  0.0780
 9338TIP3   OH249428   4.018   2.482   4.166 -0.4539  0.3056 -0.3228
 9338TIP3    H149429   3.954   2.416   4.194  1.4726 -1.3283  0.4542
 9338TIP3    H249430   4.031   2.464   4.073  0.4510 -0.8247 -0.0053
 9339TIP3   OH249431   5.899   2.851  13.912 -0.2394  0.2984  0.7097
 9339TIP3    H149432   5.985   2.858  13.871 -0.7138  0.5542 -0.2710
 9339TIP3    H249433   5.860   2.773  13.872  0.4371 -1.2682  2.9143
 9340TIP3   OH249434   1.248   1.447   2.520  0.1055  0.0344  0.2091
 9340TIP3    H149435   1.322   1.393   2.549  0.5535  1.1584  1.2684
 9340TIP3    H249436   1.279   1.489   2.440  0.0170 -0.6877 -0.2180
 9341TIP3   OH249437   0.481   0.632   1.913  0.1616  0.3543 -0.1928
 9341TIP3    H149438   0.386   0.630   1.900  0.0996  0.3814  0.2634
 9341TIP3    H249439   0.517   0.607   1.827 -0.2829 -1.3196  0.0752
 9342TIP3   OH249440   4.367   1.113   4.031 -0.4604  0.0243  0.3365
 9342TIP3    H149441   4.317   1.169   3.971  0.1351 -1.6207 -1.8268
 9342TIP3    H249442   4.301   1.068   4.083 -1.0113  1.2160  0.7005
 9343TIP3   OH249443   1.066   0.298  11.849 -0.2593  0.4272  0.9057
 9343TIP3    H149444   1.156   0.278  11.824 -0.1060 -1.0345  2.4155
 9343TIP3    H249445   1.014   0.282  11.770  0.7268  0.6098  0.2109
 9344TIP3   OH249446   0.131   0.347   0.113 -0.2256 -0.5075 -0.0799
 9344TIP3    H149447   0.115   0.253   0.108 -1.0773 -0.3035 -3.0892
 9344TIP3    H249448   0.221   0.358   0.080 -0.7547 -0.1529 -1.4407
 9345TIP3   OH249449   0.465   1.988  14.274 -0.2988 -0.0407 -0.2448
 9345TIP3    H149450   0.431   2.046  14.206 -0.7392  0.2268  0.2007
 9345TIP3    H249451   0.456   1.900  14.237 -1.3955  0.0285 -0.1805
 9346TIP3   OH249452   5.689   0.750  13.596 -0.2014 -1.3396 -0.6683
 9346TIP3    H149453   5.718   0.733  13.685  0.0151 -0.9886 -0.6702
 9346TIP3    H249454   5.600   0.714  13.592 -0.6865 -0.2706  0.0514
 9347TIP3   OH249455   5.845   1.668   0.426 -0.2242 -0.0010 -0.5579
 9347TIP3    H149456   5.916   1.712   0.474 -0.2474 -1.3511  0.7848
 9347TIP3    H249457   5.881   1.653   0.338  0.9786 -0.1877 -0.0581
 9348TIP3   OH249458   5.443   5.498   5.625  1.1148 -0.4264  0.0333
 9348TIP3    H149459   5.513   5.432   5.622  0.7366 -0.9704  1.9457
 9348TIP3    H249460   5.404   5.487   5.712 -0.2601  1.0012 -0.3717
 9349TIP3   OH249461   1.166   1.296   6.571 -0.3315  0.2242 -0.1845
 9349TIP3    H149462   1.143   1.346   6.493 -0.3553 -1.4129 -1.2707
 9349TIP3    H249463   1.251   1.256   6.550 -0.6513 -0.7787  0.3640
 9350TIP3   OH249464   5.748   4.739  15.581 -0.2249 -1.0541  0.6747
 9350TIP3    H149465   5.733   4.830  15.606  1.0873 -0.7330  0.3855
 9350TIP3    H249466   5.825   4.742  15.524 -1.4499 -2.0901 -1.1626
 9351TIP3   OH249467   0.486   3.998   2.728 -0.0099  0.2121  0.4917
 9351TIP3    H149468   0.547   4.049   2.675  1.0816 -0.8725  0.6517
 9351TIP3    H249469   0.474   3.917   2.679 -1.5695  0.5139  0.3303
 9352TIP3   OH249470   5.475   5.951  13.548  0.5060 -0.2435  0.2479
 9352TIP3    H149471   5.495   5.999  13.629  0.8041 -2.5717  1.6283
 9352TIP3    H249472   5.380   5.962  13.537  0.5030  0.3018  0.7614
 9353TIP3   OH249473   2.647   3.989  13.117 -0.0010 -0.1219  0.2164
 9353TIP3    H149474   2.609   3.919  13.170  1.6130 -0.7572  0.6064
 9353TIP3    H249475   2.618   3.971  13.028 -0.4465 -0.6805  0.4702
 9354TIP3   OH249476   1.865   5.798   3.101  0.2264 -0.7810  0.4443
 9354TIP3    H149477   1.933   5.754   3.050  1.4834  0.1379  1.2852
 9354TIP3    H249478   1.908   5.873   3.140 -0.4464 -1.8190  3.4834
 9355TIP3   OH249479   5.477   5.158   0.326 -0.0003 -0.4093  0.2761
 9355TIP3    H149480   5.393   5.115   0.309 -0.4194  0.5965 -0.2789
 9355TIP3    H249481   5.466   5.197   0.413 -0.3936  0.3528 -0.1044
 9356TIP3   OH249482   1.534   5.109   5.991 -0.3944  0.1279 -0.6904
 9356TIP3    H149483   1.548   5.054   5.915 -0.2437 -1.6761  0.5772
 9356TIP3    H249484   1.620   5.120   6.030 -0.6797 -0.3746  0.1181
 9357TIP3   OH249485   2.531   3.025  16.640  0.9361 -0.6508 -0.5761
 9357TIP3    H149486   2.478   2.951  16.610  0.2174  0.4748 -2.2889
 9357TIP3    H249487   2.567   3.062  16.559  1.1526  0.9525  0.2135
 9358TIP3   OH249488   1.243   2.507   5.859  0.3903 -0.2018  0.6698
 9358TIP3    H149489   1.189   2.585   5.857  0.5169 -0.0524  2.0513
 9358TIP3    H249490   1.190   2.442   5.906  0.5338 -0.7428  0.0902
 9359TIP3   OH249491   4.624   6.042  14.837 -0.0553  0.8754 -0.0653
 9359TIP3    H149492   4.658   5.957  14.810  0.6488  1.2936 -0.5328
 9359TIP3    H249493   4.678   6.105  14.789 -1.0548  1.5700 -0.3049
 9360TIP3   OH249494   3.860   3.249  16.332 -0.5078  0.4026  0.1259
 9360TIP3    H149495   3.902   3.172  16.371  2.3418  1.5938 -0.3561
 9360TIP3    H249496   3.866   3.234  16.237  0.6153  1.4307  0.0123
 9361TIP3   OH249497   2.396   5.359  14.117 -0.2824  0.0331  0.2824
 9361TIP3    H149498   2.444   5.289  14.072 -0.3355  0.0101  0.2610
 9361TIP3    H249499   2.316   5.369  14.066 -0.4207 -0.1100  0.4698
 9362TIP3   OH249500   4.939   4.236  11.691 -0.4964  0.4996 -0.2968
 9362TIP3    H149501   4.985   4.312  11.656  0.5625 -0.0256 -0.0903
 9362TIP3    H249502   4.932   4.253  11.785  2.1297 -0.7884  0.2289
 9363TIP3   OH249503   0.100   3.934   3.836  0.1652  0.3135 -0.4537
 9363TIP3    H149504   0.027   3.953   3.895 -0.1883 -0.8256 -0.5113
 9363TIP3    H249505   0.059   3.904   3.755  0.6803 -1.6703 -0.0343
 9364TIP3   OH249506   3.713   1.375  15.979 -0.1554  0.5062 -0.0144
 9364TIP3    H149507   3.698   1.373  16.074 -0.7323  0.5355 -0.0969
 9364TIP3    H249508   3.781   1.310  15.963  1.1139  1.6222  0.6091
 9365TIP3   OH249509   3.587   2.375  14.222 -0.0245  0.1978  0.8346
 9365TIP3    H149510   3.507   2.331  14.251 -0.1488  0.1967  0.4948
 9365TIP3    H249511   3.556   2.439  14.157  0.2201  0.3899  0.9050
 9366TIP3   OH249512   1.521   3.871  15.250 -0.0564 -0.0465 -0.6358
 9366TIP3    H149513   1.461   3.943  15.270  0.8491  0.3763  0.6061
 9366TIP3    H249514   1.549   3.888  15.160  0.1021  1.1186 -0.3760
 9367TIP3   OH249515   2.649   3.990   1.408  0.2243 -0.4924  0.8111
 9367TIP3    H149516   2.697   4.030   1.481 -0.2082 -0.4594  1.0828
 9367TIP3    H249517   2.714   3.936   1.364  0.3529 -0.9824  1.5792
 9368TIP3   OH249518   1.984   1.981   4.114  0.7764 -0.4807  1.2272
 9368TIP3    H149519   2.059   1.927   4.139  0.4398 -1.2935  0.5659
 9368TIP3    H249520   1.954   1.943   4.031  0.9590  1.1781  0.3546
 9369TIP3   OH249521   1.588   4.415   3.292 -0.8976 -0.0310 -0.2264
 9369TIP3    H149522   1.615   4.501   3.324 -0.5531 -0.1755 -0.1330
 9369TIP3    H249523   1.530   4.381   3.360  0.5864 -0.7541  0.7226
 9370TIP3   OH249524   3.100   3.468  14.347  0.1232 -0.4020 -0.0045
 9370TIP3    H149525   3.129   3.505  14.430 -0.9247  1.0031 -0.2233
 9370TIP3    H249526   3.004   3.468  14.352  0.0128  0.2639 -1.4065
 9371TIP3   OH249527   4.648   3.263  12.762 -0.3187 -0.5644  0.0320
 9371TIP3    H149528   4.586   3.313  12.709 -0.6507 -0.0987  0.8429
 9371TIP3    H249529   4.673   3.189  12.707 -1.5088 -0.6972 -0.3443
 9372TIP3   OH249530   5.990   2.490   5.108 -0.5379 -0.4034 -0.2136
 9372TIP3    H149531   5.954   2.501   5.196 -2.2306 -0.4037 -0.8715
 9372TIP3    H249532   6.034   2.573   5.090 -0.7425 -0.1553  0.3967
 9373TIP3   OH249533   0.908   2.944   5.578 -0.3094 -0.6452  0.9327
 9373TIP3    H149534   0.945   3.012   5.635  0.3338 -0.8735  0.7892
 9373TIP3    H249535   0.829   2.984   5.542  0.0256  0.0066  0.9054
 9374TIP3   OH249536   1.174   3.168   3.596 -1.0541  0.3349 -0.5022
 9374TIP3    H149537   1.171   3.122   3.680 -3.5097 -1.2939 -1.3392
 9374TIP3    H249538   1.230   3.244   3.612 -0.4071 -0.5844  2.2283
 9375TIP3   OH249539   3.160   5.835  11.810  0.0158 -0.5803  0.3755
 9375TIP3    H149540   3.162   5.873  11.898 -0.3026  1.1070 -0.3082
 9375TIP3    H249541   3.252   5.820  11.788  0.1715  0.0631  0.5622
 9376TIP3   OH249542   1.866   1.041  12.764 -0.2828  0.3799 -0.0995
 9376TIP3    H149543   1.871   1.136  12.759 -1.3339  0.4027 -1.1150
 9376TIP3    H249544   1.957   1.013  12.771  0.0059  1.4750  0.8860
 9377TIP3   OH249545   0.440   5.362  17.128  0.3681 -0.0807  0.0891
 9377TIP3    H149546   0.347   5.348  17.142  0.4392 -1.4775 -0.5936
 9377TIP3    H249547   0.445   5.447  17.084 -0.4958  0.3961  0.8826
 9378TIP3   OH249548   5.588   6.472  16.034 -0.1933  0.7995 -0.7066
 9378TIP3    H149549   5.670   6.508  15.999  0.1538  0.9766  0.2578
 9378TIP3    H249550   5.548   6.546  16.080 -0.2482  0.3656 -0.0496
 9379TIP3   OH249551   5.337   2.924  15.984  0.3765 -0.6351  0.1238
 9379TIP3    H149552   5.256   2.903  15.938  0.1467 -0.6291  0.5215
 9379TIP3    H249553   5.319   2.901  16.075  0.6646 -0.1838  0.2940
 9380TIP3   OH249554   1.816   2.264  14.514  0.0629 -0.7154  0.0797
 9380TIP3    H149555   1.820   2.194  14.578 -1.6393 -0.1091  0.9167
 9380TIP3    H249556   1.742   2.242  14.458  0.6493 -0.5031 -0.8122
 9381TIP3   OH249557   4.288   3.844  11.224  0.4186  0.4620 -0.3916
 9381TIP3    H149558   4.330   3.916  11.176 -0.9979  0.0885 -2.2907
 9381TIP3    H249559   4.195   3.863  11.220  0.2017  0.3338  2.1998
 9382TIP3   OH249560   2.534   5.022   4.107  0.2024  0.4656 -0.0461
 9382TIP3    H149561   2.522   5.109   4.144 -1.1248 -0.2042  1.1782
 9382TIP3    H249562   2.606   5.033   4.044  1.8487  1.8656  1.9373
 9383TIP3   OH249563   6.694   5.866  14.895 -0.6085 -0.0665  0.4503
 9383TIP3    H149564   6.693   5.771  14.905 -0.6445 -0.1551 -0.3797
 9383TIP3    H249565   6.771   5.884  14.841  0.2163  0.5057  1.7527
 9384TIP3   OH249566   6.561   1.394  11.535 -0.3966  0.3211 -0.0877
 9384TIP3    H149567   6.576   1.327  11.469  0.4745 -0.3758  0.7884
 9384TIP3    H249568   6.539   1.345  11.614 -0.0835  1.0781  0.4824
 9385TIP3   OH249569   1.073   5.525   4.507  0.2008  0.5079  0.0827
 9385TIP3    H149570   1.136   5.586   4.467  0.6531 -1.3450 -2.3095
 9385TIP3    H249571   0.988   5.555   4.476 -0.5497  3.8474  4.4117
 9386TIP3   OH249572   3.361   5.527  13.206  0.5564  0.0964  0.5810
 9386TIP3    H149573   3.401   5.531  13.292  0.7687  1.5658  0.4390
 9386TIP3    H249574   3.396   5.448  13.166  2.2885  0.6224  0.9720
 9387TIP3   OH249575   3.251   5.662  17.135 -0.3510 -0.5039  0.2501
 9387TIP3    H149576   3.276   5.591  17.194 -0.3100  0.2032  1.1008
 9387TIP3    H249577   3.171   5.631  17.092  0.6289 -1.7993 -0.7273
 9388TIP3   OH249578   0.959   1.872  14.041 -0.0763 -0.0700 -0.4261
 9388TIP3    H149579   0.909   1.923  13.978 -0.1718 -0.1904 -0.4491
 9388TIP3    H249580   1.026   1.828  13.989  1.0423  1.2894 -0.1902
 9389TIP3   OH249581   0.389   3.624   5.789 -0.1787  0.1763  0.1981
 9389TIP3    H149582   0.414   3.674   5.711  0.0092  0.1172  0.2204
 9389TIP3    H249583   0.461   3.562   5.802 -0.4366 -0.1438  0.1351
 9390TIP3   OH249584   2.902   3.573  10.940 -0.3060  0.2710  0.7876
 9390TIP3    H149585   2.816   3.583  10.899  1.0077  0.0754 -2.3017
 9390TIP3    H249586   2.911   3.478  10.953 -1.1676  0.4104  2.7452
 9391TIP3   OH249587   6.456   3.295  15.046 -0.5078  0.0939 -0.2883
 9391TIP3    H149588   6.538   3.337  15.023 -0.9872  0.4859 -1.3543
 9391TIP3    H249589   6.389   3.349  15.004 -1.3424  0.0234  0.9054
 9392TIP3   OH249590   2.810   2.906   6.493 -0.2308 -0.0577  0.0397
 9392TIP3    H149591   2.749   2.877   6.561 -2.7726  0.6281 -1.7742
 9392TIP3    H249592   2.836   2.994   6.521 -0.6214 -0.0881  0.5232
 9393TIP3   OH249593   4.476   3.784  13.529 -0.0577 -0.0526  0.8003
 9393TIP3    H149594   4.540   3.776  13.459 -0.2049  0.1804  0.6379
 9393TIP3    H249595   4.503   3.863  13.577 -1.3895  1.2400 -0.4858
 9394TIP3   OH249596   0.681   0.606  16.031  0.1301  0.6619 -0.2836
 9394TIP3    H149597   0.614   0.540  16.050 -0.4294  0.8237 -1.5647
 9394TIP3    H249598   0.631   0.683  16.005  0.7605  1.7397  1.5217
 9395TIP3   OH249599   3.111   3.600   3.944  0.5105  0.3710  0.7302
 9395TIP3    H149600   3.079   3.687   3.966  0.5450  0.3526  0.8536
 9395TIP3    H249601   3.060   3.574   3.867 -2.4598 -1.2088  3.0236
 9396TIP3   OH249602   4.207   0.720  16.854  0.1148 -0.0602  0.1345
 9396TIP3    H149603   4.287   0.729  16.906  0.1832  0.2005 -0.0122
 9396TIP3    H249604   4.180   0.810  16.835 -0.8928 -0.1089  1.2072
 9397TIP3   OH249605   6.494   2.739   4.168 -0.5256  0.3149 -0.0548
 9397TIP3    H149606   6.405   2.716   4.197 -0.8726  4.2375  2.7499
 9397TIP3    H249607   6.501   2.832   4.186  4.1451  0.2331 -0.4353
 9398TIP3   OH249608   1.290   4.572   5.815 -0.2541 -0.6071 -0.4412
 9398TIP3    H149609   1.280   4.487   5.857  1.7439 -0.5642  0.2101
 9398TIP3    H249610   1.309   4.552   5.723 -0.3388 -0.8308 -0.4102
 9399TIP3   OH249611   5.144   3.503   0.927 -0.1204  0.2362  0.4695
 9399TIP3    H149612   5.060   3.514   0.973 -0.7993 -2.4846  0.0559
 9399TIP3    H249613   5.134   3.556   0.848 -1.6093 -0.2892  0.2686
 9400TIP3   OH249614   3.545   6.344   2.000 -0.0907 -0.3532  0.6628
 9400TIP3    H149615   3.550   6.275   2.066  0.5990 -0.0393  0.9462
 9400TIP3    H249616   3.467   6.394   2.024 -1.2707 -1.7002 -0.2191
 9401TIP3   OH249617   4.175   2.384  13.987  0.2429 -0.0710 -0.6098
 9401TIP3    H149618   4.161   2.442  14.062  3.1061  0.7022 -0.5528
 9401TIP3    H249619   4.242   2.323  14.017  0.8431 -0.2659 -2.2720
 9402TIP3   OH249620   6.369   0.436   6.065  0.1895  0.1517  0.2908
 9402TIP3    H149621   6.336   0.523   6.089 -0.0185  0.3131 -0.5464
 9402TIP3    H249622   6.306   0.375   6.103 -1.4146  0.4666 -1.6974
 9403TIP3   OH249623   4.772   5.519  15.375 -0.3244  0.1324  0.3409
 9403TIP3    H149624   4.723   5.600  15.385 -1.4352 -0.5571  0.5979
 9403TIP3    H249625   4.751   5.468  15.453 -0.0656 -0.6241 -0.0700
 9404TIP3   OH249626   2.198   4.893  12.289 -0.1462 -0.0337 -0.1476
 9404TIP3    H149627   2.125   4.869  12.232  0.6849  0.3985 -1.4370
 9404TIP3    H249628   2.276   4.878  12.236  0.6054  1.6006  0.4141
 9405TIP3   OH249629   4.654   6.763   1.176  0.4225  0.1707 -0.4111
 9405TIP3    H149630   4.601   6.691   1.142 -0.8694  0.7514  0.3036
 9405TIP3    H249631   4.724   6.774   1.112  0.4226 -1.4559 -0.7375
 9406TIP3   OH249632   0.615   2.003  15.739  0.2406 -0.0063  0.3954
 9406TIP3    H149633   0.583   2.091  15.758 -0.2950 -0.4264  1.5167
 9406TIP3    H249634   0.584   1.985  15.650  1.8782  1.5920 -0.5896
 9407TIP3   OH249635   2.673   4.888  11.961 -0.1758 -0.1883 -0.0991
 9407TIP3    H149636   2.676   4.823  11.890  1.1030  2.4025 -2.6482
 9407TIP3    H249637   2.736   4.956  11.934  0.4871  0.9335  3.6496
 9408TIP3   OH249638   4.236   5.735   4.073 -0.3107 -0.9005  0.0382
 9408TIP3    H149639   4.232   5.731   3.977  0.2242 -2.0372  0.0508
 9408TIP3    H249640   4.237   5.644   4.101 -0.7027 -0.5818  1.1541
 9409TIP3   OH249641   3.623   3.627   2.099  0.0236  0.0288  0.2506
 9409TIP3    H149642   3.618   3.723   2.107  0.4123 -0.0410  1.5665
 9409TIP3    H249643   3.534   3.600   2.079 -0.2066  0.6164  0.4524
 9410TIP3   OH249644   0.794   1.690  16.894  0.3663 -0.4494  0.0299
 9410TIP3    H149645   0.817   1.633  16.820  1.3024  0.3369 -0.3091
 9410TIP3    H249646   0.867   1.682  16.955  0.1685 -0.1644  0.3077
 9411TIP3   OH249647   2.815   6.662  10.460 -0.7292  0.0540 -0.0359
 9411TIP3    H149648   2.801   6.755  10.478  1.5681  0.4672 -0.0890
 9411TIP3    H249649   2.845   6.625  10.543 -1.0936 -0.5310 -0.1550
 9412TIP3   OH249650   6.353   0.269   5.421  0.2849 -0.2577 -0.5046
 9412TIP3    H149651   6.382   0.359   5.406  1.5039 -0.4724  0.4292
 9412TIP3    H249652   6.264   0.278   5.454  0.4902  0.6234 -0.1526
 9413TIP3   OH249653   3.669   3.848   0.825 -0.1174 -0.3216  0.1430
 9413TIP3    H149654   3.730   3.775   0.811  1.6123  1.0584  0.2200
 9413TIP3    H249655   3.657   3.886   0.738 -1.2107 -0.8030  0.0631
 9414TIP3   OH249656   2.458   2.210   4.398 -0.9277 -0.2565 -0.6745
 9414TIP3    H149657   2.399   2.285   4.403 -0.4720  0.3067 -2.6964
 9414TIP3    H249658   2.401   2.134   4.408 -1.3573  0.2815  1.7385
 9415TIP3   OH249659   6.555   1.487   5.267  0.9235  0.1987  0.2675
 9415TIP3    H149660   6.495   1.559   5.250 -1.3419 -1.5915  0.2502
 9415TIP3    H249661   6.546   1.470   5.361  2.8738  1.0681  0.6668
 9416TIP3   OH249662   0.431   1.361   6.134 -0.5068 -0.1518 -0.0961
 9416TIP3    H149663   0.470   1.349   6.221  0.1398 -1.1598 -0.5055
 9416TIP3    H249664   0.411   1.455   6.129 -0.2371 -0.0280  1.0059
 9417TIP3   OH249665   1.304   2.639   5.114  0.1400  0.1473  0.4781
 9417TIP3    H149666   1.273   2.679   5.033 -2.3188 -0.9731  0.7762
 9417TIP3    H249667   1.363   2.569   5.086 -1.0442 -0.5224 -0.3889
 9418TIP3   OH249668   6.402   2.870   0.754 -0.7401 -0.1812 -0.2874
 9418TIP3    H149669   6.479   2.923   0.775 -0.8712  0.3223 -1.0553
 9418TIP3    H249670   6.334   2.934   0.730 -1.2205 -0.6486 -0.1971
 9419TIP3   OH249671   5.515   0.049  12.131 -0.5048 -0.4951  0.5063
 9419TIP3    H149672   5.545  -0.029  12.177  0.5703 -0.5832 -0.3083
 9419TIP3    H249673   5.520   0.119  12.196  1.8442 -0.4467  0.3427
 9420TIP3   OH249674   2.231   0.890   1.111  0.0354  0.2818 -0.0364
 9420TIP3    H149675   2.162   0.826   1.092  0.9939 -0.5103 -0.9969
 9420TIP3    H249676   2.231   0.897   1.207 -1.0976 -0.0039  0.0010
 9421TIP3   OH249677   0.987   4.986   4.906 -0.2296  0.0230  0.4435
 9421TIP3    H149678   0.967   5.062   4.852  1.1260 -0.3656 -0.6816
 9421TIP3    H249679   1.006   5.022   4.992 -0.0635  0.9176  0.0448
 9422TIP3   OH249680   5.877   3.545  14.446 -0.1720 -0.2324  0.1121
 9422TIP3    H149681   5.966   3.579  14.446 -0.3019  0.3667 -2.4770
 9422TIP3    H249682   5.886   3.453  14.421 -0.2045 -0.5971  1.3904
 9423TIP3   OH249683   5.128   6.591  11.572  0.9510  0.1574 -0.2345
 9423TIP3    H149684   5.133   6.676  11.615  0.3413  0.0305  0.1031
 9423TIP3    H249685   5.218   6.572  11.545  1.0483  1.0149 -0.5299
 9424TIP3   OH249686   2.548   2.297  15.029  0.1239 -0.9673 -0.1425
 9424TIP3    H149687   2.576   2.358  14.961 -1.0268  0.2642  0.4464
 9424TIP3    H249688   2.629   2.270  15.073  0.6138  0.5436 -0.0898
 9425TIP3   OH249689   4.727   3.359   5.193  0.1599  0.6688 -0.0425
 9425TIP3    H149690   4.765   3.428   5.247  0.1607  0.4535  0.2331
 9425TIP3    H249691   4.633   3.365   5.209  0.1818  0.4495  0.1661
 9426TIP3   OH249692   0.433   3.871  16.200  0.1955  0.5270  0.0277
 9426TIP3    H149693   0.481   3.954  16.205  1.1140 -0.0660  2.0372
 9426TIP3    H249694   0.353   3.887  16.250  1.0076 -0.1546  1.6099
 9427TIP3   OH249695   2.326   2.226  16.266 -0.5658 -0.0909 -0.0501
 9427TIP3    H149696   2.421   2.236  16.258 -0.7105 -0.1430 -5.8892
 9427TIP3    H249697   2.292   2.315  16.259 -0.9587 -0.2397 -0.0359
 9428TIP3   OH249698   2.312   0.211  14.684  0.2153 -0.4174 -0.7490
 9428TIP3    H149699   2.379   0.274  14.659 -1.4904  2.4874  1.3993
 9428TIP3    H249700   2.348   0.164  14.759  0.2702  0.3645 -0.2839
 9429TIP3   OH249701   4.089   0.508  12.874 -0.6764 -0.6530  0.2373
 9429TIP3    H149702   4.085   0.427  12.925  2.4763 -0.2652  1.3228
 9429TIP3    H249703   4.147   0.488  12.801 -1.6762  0.0458 -0.7864
 9430TIP3   OH249704   2.130   0.410  13.139  0.0125  0.0286 -0.2146
 9430TIP3    H149705   2.117   0.499  13.106 -2.5624  1.2278  3.3400
 9430TIP3    H249706   2.063   0.358  13.094 -0.4674  0.6043 -0.1872
 9431TIP3   OH249707   3.560   2.430   0.218 -0.1966  0.0099 -0.8992
 9431TIP3    H149708   3.649   2.456   0.194 -0.4610  1.0943 -0.7602
 9431TIP3    H249709   3.571   2.366   0.289  0.4558  0.4725 -0.5794
 9432TIP3   OH249710   2.593   2.103  12.595  0.2298 -0.2112  0.4610
 9432TIP3    H149711   2.667   2.067  12.644 -0.6059 -1.6663  0.7061
 9432TIP3    H249712   2.580   2.190  12.632  0.2659 -0.8864  2.1470
 9433TIP3   OH249713   2.589   1.070   0.277 -0.3535 -0.0963  0.4832
 9433TIP3    H149714   2.494   1.073   0.267 -0.2869 -0.1222 -0.2736
 9433TIP3    H249715   2.610   0.976   0.272 -0.2560 -0.0632  0.2510
 9434TIP3   OH249716   4.628   6.548  13.300 -0.4026 -0.6907  0.0626
 9434TIP3    H149717   4.599   6.512  13.216  0.4941 -1.3961  0.0412
 9434TIP3    H249718   4.554   6.534  13.358 -2.9336  3.8151 -1.5518
 9435TIP3   OH249719   6.221   0.820  12.048 -0.1060 -0.0173  0.1179
 9435TIP3    H149720   6.256   0.799  11.962  0.4548  0.3891  0.2435
 9435TIP3    H249721   6.158   0.750  12.066  0.4304 -0.6052 -0.2345
 9436TIP3   OH249722   4.848   4.247  13.017 -0.7252  0.9962  0.0291
 9436TIP3    H149723   4.770   4.257  13.070 -1.2550 -1.2283 -0.2117
 9436TIP3    H249724   4.885   4.163  13.044  0.6075  1.1765 -1.0847
 9437TIP3   OH249725   0.050   3.766  10.602 -0.2769 -0.2411 -0.2093
 9437TIP3    H149726   0.087   3.699  10.660  1.1624 -0.2624 -1.1230
 9437TIP3    H249727  -0.044   3.762  10.618 -0.0538 -1.3451  0.9520
 9438TIP3   OH249728   3.284   5.122  16.081 -0.0418 -0.4565  0.1242
 9438TIP3    H149729   3.365   5.110  16.130 -0.5809 -0.4901  1.0349
 9438TIP3    H249730   3.303   5.193  16.020  0.3782  0.2224  1.0138
 9439TIP3   OH249731   4.882   1.220   5.200 -0.2259  0.3272 -0.3246
 9439TIP3    H149732   4.954   1.219   5.263  0.1384  0.1351 -0.7368
 9439TIP3    H249733   4.913   1.167   5.127 -1.3788 -1.0426  0.1285
 9440TIP3   OH249734   4.103   4.468  11.344  0.3427  0.0296  0.1235
 9440TIP3    H149735   4.110   4.552  11.390 -0.8387  0.2634 -0.0836
 9440TIP3    H249736   4.051   4.488  11.266  0.6448 -0.7618 -0.2931
 9441TIP3   OH249737   1.276   3.596   0.845  0.2630  0.4593  0.9924
 9441TIP3    H149738   1.268   3.559   0.758 -0.9862 -1.9224  2.0170
 9441TIP3    H249739   1.350   3.551   0.885  0.9044  1.6123  1.1699
 9442TIP3   OH249740   2.109   0.665   5.389 -0.0083  0.2797 -0.1880
 9442TIP3    H149741   2.198   0.674   5.424 -0.2938 -1.2910  1.0206
 9442TIP3    H249742   2.084   0.575   5.408 -1.0483  0.0117 -2.5059
 9443TIP3   OH249743   6.306   6.217   1.417 -0.3717  0.0923 -0.4755
 9443TIP3    H149744   6.245   6.245   1.485 -0.2220 -1.9877  0.5988
 9443TIP3    H249745   6.253   6.216   1.337 -0.6902  2.0394 -0.3473
 9444TIP3   OH249746   0.680   6.012  16.267 -0.0059  0.2193 -0.1817
 9444TIP3    H149747   0.745   6.064  16.313  1.7765 -1.1233 -1.0538
 9444TIP3    H249748   0.603   6.013  16.324  1.4849  0.1217  1.9281
 9445TIP3   OH249749   6.712   0.329  16.339 -0.5467  0.7164 -0.4209
 9445TIP3    H149750   6.776   0.267  16.304 -0.7476 -0.0856  0.5610
 9445TIP3    H249751   6.757   0.369  16.414 -0.9758  0.5789 -0.0858
 9446TIP3   OH249752   0.511   5.952   0.953 -0.0655 -0.6907  0.2100
 9446TIP3    H149753   0.444   6.017   0.976  1.2629  0.3972  1.1692
 9446TIP3    H249754   0.546   5.983   0.870  0.8328  0.0648  0.8561
 9447TIP3   OH249755   5.798   0.457  11.659  0.3345  0.9592  0.1272
 9447TIP3    H149756   5.850   0.536  11.676 -0.7179  1.7197 -0.0868
 9447TIP3    H249757   5.739   0.482  11.588  0.8784 -0.4488 -0.8606
 9448TIP3   OH249758   2.976   4.769  15.459 -0.3150  0.3614  0.1912
 9448TIP3    H149759   3.061   4.747  15.497  0.0891  0.4336 -0.6422
 9448TIP3    H249760   2.990   4.852  15.414  0.1121 -1.1883 -2.7615
 9449TIP3   OH249761   3.525   5.013   0.683 -0.2726 -0.3410  0.0919
 9449TIP3    H149762   3.525   5.104   0.714 -0.1891 -0.3549  0.1321
 9449TIP3    H249763   3.474   4.965   0.748  0.8490 -0.5770  0.8112
 9450TIP3   OH249764   2.051   5.559   1.827 -0.1771 -0.7107 -0.0755
 9450TIP3    H149765   1.967   5.603   1.836  0.0170 -0.4896  0.7973
 9450TIP3    H249766   2.089   5.594   1.747 -0.8279 -0.6678 -0.3693
 9451TIP3   OH249767   5.181   1.030  14.970 -0.4620  0.0744  0.2700
 9451TIP3    H149768   5.128   0.981  15.032  0.5230 -0.1311  0.9826
 9451TIP3    H249769   5.150   1.003  14.884  1.7584 -3.9758  0.4807
 9452TIP3   OH249770   1.006   3.712   3.458  0.1321  0.3907 -0.1058
 9452TIP3    H149771   1.009   3.807   3.470  0.4218  0.5605 -1.3609
 9452TIP3    H249772   0.914   3.689   3.470  0.3057  0.5853  1.7901
 9453TIP3   OH249773   1.892   3.291  12.956  0.2670  0.2298 -0.0287
 9453TIP3    H149774   1.830   3.325  12.892  0.3304  1.2514  0.4332
 9453TIP3    H249775   1.848   3.215  12.994 -0.5494  0.7229  0.0259
 9454TIP3   OH249776   5.412   6.015  11.236  0.0166  0.2669 -0.3169
 9454TIP3    H149777   5.399   5.971  11.320 -0.7448 -0.9478 -1.0504
 9454TIP3    H249778   5.372   6.101  11.248  0.3805  0.3071  0.7208
 9455TIP3   OH249779   6.478   1.702   1.949  0.7030 -0.1642  0.4890
 9455TIP3    H149780   6.453   1.715   2.041 -2.9985  1.6362 -0.5884
 9455TIP3    H249781   6.425   1.628   1.920  0.5193  0.3849 -0.6129
 9456TIP3   OH249782   0.224   0.431   5.318 -0.3714  0.3060  0.1302
 9456TIP3    H149783   0.198   0.468   5.402  0.0568  3.2166 -0.9050
 9456TIP3    H249784   0.148   0.442   5.261 -0.7031 -1.7499  0.1065
 9457TIP3   OH249785   3.062   0.090  16.177  0.1135  0.1687  0.2918
 9457TIP3    H149786   3.008   0.131  16.110 -0.3014  1.5903  1.4419
 9457TIP3    H249787   3.067  -0.002  16.151 -0.7873  0.4961 -1.1706
 9458TIP3   OH249788   5.341   1.257  16.991 -0.2732 -0.2944  0.2217
 9458TIP3    H149789   5.320   1.212  17.073  0.1939 -0.7371  0.1047
 9458TIP3    H249790   5.259   1.255  16.941 -0.8120  0.7619  1.0214
 9459TIP3   OH249791   3.235   5.860   1.543  0.4797 -0.2556  0.0839
 9459TIP3    H149792   3.305   5.884   1.604  0.8583 -1.1813  0.0347
 9459TIP3    H249793   3.261   5.900   1.460  0.5901 -0.0164  0.2325
 9460TIP3   OH249794   3.117   1.088   2.894  0.1249 -0.1961  0.7025
 9460TIP3    H149795   3.181   1.018   2.895  0.0427 -0.3348 -0.9343
 9460TIP3    H249796   3.093   1.098   2.802  0.3318  2.1642  0.8417
 9461TIP3   OH249797   2.874   0.601   4.720  0.2759 -0.4643  0.4053
 9461TIP3    H149798   2.821   0.599   4.641 -0.0587 -1.3007  0.6445
 9461TIP3    H249799   2.913   0.689   4.720  1.0666 -0.7762 -1.1873
 9462TIP3   OH249800   6.396   2.692   2.212 -0.0271 -0.0280  0.0385
 9462TIP3    H149801   6.320   2.671   2.267 -0.3480  0.1162 -0.3442
 9462TIP3    H249802   6.459   2.732   2.272  0.1730 -1.0959  0.5727
 9463TIP3   OH249803   4.809   6.582  16.899 -0.2376 -0.2465  0.1983
 9463TIP3    H149804   4.780   6.662  16.855 -0.2860 -0.3630  0.0201
 9463TIP3    H249805   4.755   6.513  16.862  0.8305 -0.6048 -0.7461
 9464TIP3   OH249806   2.465   3.095  14.387  0.0568 -0.5818 -0.3305
 9464TIP3    H149807   2.384   3.128  14.427  0.4834  0.9320 -0.6310
 9464TIP3    H249808   2.444   3.086  14.294 -0.2200 -1.7633 -0.1726
 9465TIP3   OH249809   2.603   3.041   5.426  0.0644 -0.4218 -0.1488
 9465TIP3    H149810   2.546   3.015   5.353  0.1460  1.0122 -0.7579
 9465TIP3    H249811   2.656   3.113   5.390  2.2566 -1.6770  0.3949
 9466TIP3   OH249812   2.993   5.590  16.159  0.4794 -0.0467  0.0256
 9466TIP3    H149813   3.073   5.585  16.211  0.7641 -2.7600 -0.5404
 9466TIP3    H249814   2.957   5.501  16.161 -1.6003  0.6957 -1.1765
 9467TIP3   OH249815   2.684   0.163  12.863  0.2428  0.6724 -0.0608
 9467TIP3    H149816   2.624   0.121  12.924  2.1504  3.0438  3.8096
 9467TIP3    H249817   2.763   0.109  12.865  0.2882  0.7182 -0.4994
 9468TIP3   OH249818   5.356   4.821  14.083  0.6611 -0.5841 -0.5552
 9468TIP3    H149819   5.301   4.900  14.088  0.2631 -0.8550 -0.5848
 9468TIP3    H249820   5.364   4.804  13.990  2.0190  0.2887 -0.6219
 9469TIP3   OH249821   0.491   5.667   5.456  0.1551 -0.1015 -0.0837
 9469TIP3    H149822   0.557   5.689   5.521 -0.5342 -1.6467  1.2278
 9469TIP3    H249823   0.469   5.576   5.475 -1.8789  0.1705 -0.8706
 9470TIP3   OH249824   4.708   1.657   4.579  0.2307 -0.1057  0.7276
 9470TIP3    H149825   4.690   1.717   4.506 -0.7214  0.4928  1.4349
 9470TIP3    H249826   4.641   1.589   4.571  1.1496 -0.9588  0.0792
 9471TIP3   OH249827   4.197   4.401  16.851  0.1070 -0.3509  0.5274
 9471TIP3    H149828   4.215   4.442  16.936 -0.1804  1.1991 -0.1263
 9471TIP3    H249829   4.101   4.400  16.845  0.1297  0.2934 -0.1024
 9472TIP3   OH249830   6.224   4.678   6.511  0.3222 -0.2243 -0.2116
 9472TIP3    H149831   6.157   4.646   6.450  0.0862  0.0169 -0.0838
 9472TIP3    H249832   6.294   4.613   6.507 -0.7025 -1.4681  1.0174
 9473TIP3   OH249833   1.333   5.431  12.606 -0.2994 -0.1702  0.1976
 9473TIP3    H149834   1.300   5.352  12.562  0.4742  0.2116 -1.1160
 9473TIP3    H249835   1.422   5.409  12.631  0.1350  0.4756 -0.7314
 9474TIP3   OH249836   4.944   2.056  13.298 -0.4707  0.2858  0.1254
 9474TIP3    H149837   4.934   2.137  13.348  0.2688  0.1844  0.4416
 9474TIP3    H249838   4.857   2.016  13.302 -0.5700  0.5474  0.8734
 9475TIP3   OH249839   5.485   3.473   5.030 -0.0954 -0.4451 -0.1761
 9475TIP3    H149840   5.512   3.384   5.008 -0.8594 -0.9851  0.9896
 9475TIP3    H249841   5.400   3.463   5.072 -0.3113  0.8643 -0.2623
 9476TIP3   OH249842   5.232   3.060   0.509 -0.0686  0.4171  0.4206
 9476TIP3    H149843   5.211   3.153   0.511 -1.9207  0.0914 -1.1353
 9476TIP3    H249844   5.175   3.024   0.441  0.1577 -1.9564  1.4003
 9477TIP3   OH249845   2.809   1.642   4.975  0.5065  0.5334  0.0545
 9477TIP3    H149846   2.881   1.701   4.997 -0.3699  1.3743  0.7922
 9477TIP3    H249847   2.818   1.568   5.035  0.7888  0.6027  0.0955
 9478TIP3   OH249848   2.139   3.197  14.864 -0.0003  0.0362  0.3221
 9478TIP3    H149849   2.123   3.291  14.872 -1.4368 -0.3218  2.2895
 9478TIP3    H249850   2.229   3.191  14.832 -0.7669  2.0836 -2.7748
 9479TIP3   OH249851   1.590   4.407   2.278 -0.2463  0.0518  0.0082
 9479TIP3    H149852   1.640   4.483   2.249  0.1285 -0.7498 -1.5992
 9479TIP3    H249853   1.534   4.440   2.348 -0.2566  1.8609 -0.7824
 9480TIP3   OH249854   0.650   6.417  14.352  0.3055  0.0563 -0.3875
 9480TIP3    H149855   0.570   6.374  14.321  1.2995 -1.5235 -0.8743
 9480TIP3    H249856   0.640   6.508  14.326  0.1076 -0.7546 -3.4624
 9481TIP3   OH249857   6.761   0.658   0.769  0.1145 -0.1830 -0.7905
 9481TIP3    H149858   6.746   0.577   0.818  0.5135 -0.3210 -0.8903
 9481TIP3    H249859   6.705   0.723   0.812  1.6087  0.0897  0.8474
 9482TIP3   OH249860   1.845   6.422  15.073  0.1738 -0.3892 -0.9333
 9482TIP3    H149861   1.935   6.433  15.043  0.3015  2.4815  0.1916
 9482TIP3    H249862   1.792   6.468  15.008 -0.1045  0.8302  0.1135
 9483TIP3   OH249863   0.886   3.328  12.626  0.4369  0.7727  0.1140
 9483TIP3    H149864   0.822   3.291  12.686 -1.1659  2.4473 -0.4483
 9483TIP3    H249865   0.902   3.259  12.561  0.8258 -0.3977  1.4218
 9484TIP3   OH249866   1.563   4.848   2.880 -0.2028  0.3253 -0.3421
 9484TIP3    H149867   1.480   4.892   2.863 -0.6637 -0.2406  0.4206
 9484TIP3    H249868   1.543   4.781   2.945  0.8813  0.2851 -0.0190
 9485TIP3   OH249869   1.592   5.521   0.753 -0.3486 -0.1929 -0.1454
 9485TIP3    H149870   1.549   5.484   0.830  0.1143 -1.1058 -0.3181
 9485TIP3    H249871   1.521   5.536   0.691 -0.5090 -1.1316 -0.2049
 9486TIP3   OH249872   3.045   2.201   1.478  0.3854  0.4076 -0.0038
 9486TIP3    H149873   3.007   2.266   1.538 -0.6173  1.0964 -1.3237
 9486TIP3    H249874   3.124   2.243   1.444  2.3865 -0.9693  2.6348
 9487TIP3   OH249875   1.171   2.526   3.483 -0.4484 -0.5866 -0.5589
 9487TIP3    H149876   1.266   2.517   3.474 -0.4196 -0.4577 -0.3850
 9487TIP3    H249877   1.157   2.620   3.492 -0.3099 -0.7723  2.5873
 9488TIP3   OH249878   1.819   2.989  14.406 -0.5326  0.2027 -0.2574
 9488TIP3    H149879   1.817   2.915  14.345  2.1710  0.0849 -0.3431
 9488TIP3    H249880   1.775   2.957  14.484 -0.2904 -1.1676 -0.6511
 9489TIP3   OH249881   5.260   4.294  15.615 -0.2340  0.1851 -0.1038
 9489TIP3    H149882   5.329   4.253  15.562 -1.2395 -1.2024 -0.3959
 9489TIP3    H249883   5.294   4.293  15.704  0.5208  0.3999 -0.3831
 9490TIP3   OH249884   0.802   3.619   4.056  0.2918 -0.3458  0.0933
 9490TIP3    H149885   0.781   3.527   4.072 -1.1839 -0.4114 -1.8576
 9490TIP3    H249886   0.717   3.660   4.042  1.0868  0.5463 -2.7136
 9491TIP3   OH249887   4.086   4.559   0.858  0.2552 -0.0425 -0.5751
 9491TIP3    H149888   4.078   4.641   0.808  1.4274 -0.9133 -2.2671
 9491TIP3    H249889   4.066   4.490   0.794  1.0208 -1.1553  0.3556
 9492TIP3   OH249890   2.851   6.653   6.530 -0.4188  0.6347  0.2663
 9492TIP3    H149891   2.773   6.614   6.568 -1.0005  0.1033 -1.3973
 9492TIP3    H249892   2.922   6.593   6.554 -0.8609  0.0220  0.0718
 9493TIP3   OH249893   0.909   0.205   6.416 -0.2988 -0.1008 -0.1193
 9493TIP3    H149894   0.838   0.181   6.356 -0.1671 -2.4849  0.5940
 9493TIP3    H249895   0.989   0.186   6.367 -0.1719 -0.0949  0.0855
 9494TIP3   OH249896   5.758   5.358   2.967  0.0188 -0.1510  1.0189
 9494TIP3    H149897   5.826   5.331   2.905 -0.0522  2.1986 -0.1829
 9494TIP3    H249898   5.684   5.301   2.947  0.0623  0.4119 -0.9907
 9495TIP3   OH249899   4.693   3.596   4.936  0.1014  0.0325 -0.1795
 9495TIP3    H149900   4.603   3.567   4.947  0.0168  0.3656  0.0188
 9495TIP3    H249901   4.738   3.521   4.895  0.0868 -0.7134  1.1097
 9496TIP3   OH249902   4.730   5.210   2.904  0.1809 -0.0357 -0.3975
 9496TIP3    H149903   4.735   5.131   2.850 -1.6557 -0.7453  0.3586
 9496TIP3    H249904   4.645   5.203   2.947  1.1077  1.0424  1.7416
 9497TIP3   OH249905   3.670   4.938   0.026  0.8835  0.5011 -0.0834
 9497TIP3    H149906   3.680   5.014  -0.031 -0.4915  0.7478 -0.0291
 9497TIP3    H249907   3.727   4.871  -0.013  1.1996  1.1737 -0.8034
 9498TIP3   OH249908   4.285   3.988  14.255  0.3295  0.3541  0.4956
 9498TIP3    H149909   4.372   3.958  14.283 -0.3072 -0.9958  1.1505
 9498TIP3    H249910   4.296   4.081  14.238  2.7468 -0.3754 -2.8607
 9499TIP3   OH249911   0.131   4.449  16.433 -0.4792 -0.5613 -0.2989
 9499TIP3    H149912   0.095   4.392  16.502 -0.6569  0.3333  0.3662
 9499TIP3    H249913   0.054   4.481  16.386 -0.4896  0.3364  0.3102
 9500TIP3   OH249914   4.686   4.005  14.150  0.0180 -0.6326 -0.4898
 9500TIP3    H149915   4.779   3.999  14.128  0.0677 -0.2089 -0.4054
 9500TIP3    H249916   4.681   3.981  14.242 -0.0643 -1.4491 -0.6977
 9501TIP3   OH249917   3.661   0.311  15.294 -0.2777  0.0495 -0.6979
 9501TIP3    H149918   3.721   0.243  15.325  0.3073  1.1662  0.7248
 9501TIP3    H249919   3.574   0.275  15.311 -0.0423  0.7670  3.0014
 9502TIP3   OH249920   6.722   1.554   0.677  0.0733  0.3993  0.0395
 9502TIP3    H149921   6.799   1.607   0.695  1.5010 -1.8640  1.0855
 9502TIP3    H249922   6.718   1.548   0.582  1.1106  0.6914 -0.0313
 9503TIP3   OH249923   3.177   2.674  14.246  0.5024 -0.4750 -0.3078
 9503TIP3    H149924   3.143   2.676  14.336  0.2248 -0.3895 -0.4146
 9503TIP3    H249925   3.204   2.765  14.229  1.8737 -0.7736  0.1919
 9504TIP3   OH249926   3.265   2.537  16.205  0.1341 -0.4094 -0.0327
 9504TIP3    H149927   3.301   2.494  16.282 -1.4872  0.4999  1.3064
 9504TIP3    H249928   3.230   2.620  16.238 -1.4635 -0.4210 -1.5530
 9505TIP3   OH249929   2.528   2.767  16.174  0.5387  0.1070 -0.3247
 9505TIP3    H149930   2.587   2.711  16.124  0.1174 -0.3459 -0.3173
 9505TIP3    H249931   2.510   2.718  16.254 -1.0328 -0.4426 -0.9793
 9506TIP3   OH249932   0.577   1.456  15.753 -0.8925 -0.0324 -0.5960
 9506TIP3    H149933   0.553   1.501  15.671 -1.5996  0.5151 -0.1043
 9506TIP3    H249934   0.661   1.494  15.777 -0.0734 -1.0860 -1.7063
 9507TIP3   OH249935   5.472   0.052   6.293 -0.2863 -0.3284  0.1814
 9507TIP3    H149936   5.541   0.016   6.237 -0.4608  1.1375 -1.0452
 9507TIP3    H249937   5.506   0.043   6.382  0.9502 -0.7555 -0.3120
 9508TIP3   OH249938   6.469   6.379   1.091 -0.0257 -0.7746  0.2922
 9508TIP3    H149939   6.489   6.448   1.028  1.0081  0.4947  1.9710
 9508TIP3    H249940   6.508   6.407   1.173  0.4434 -3.3589  1.0598
 9509TIP3   OH249941   2.238   6.046   2.571 -0.3471 -0.4711  0.4074
 9509TIP3    H149942   2.221   5.963   2.525 -3.0702 -0.1038  0.5545
 9509TIP3    H249943   2.263   6.107   2.502 -2.3558 -0.4514 -0.3742
 9510TIP3   OH249944   2.417   6.073  14.060  0.4443  0.6925 -0.4477
 9510TIP3    H149945   2.372   6.089  14.143  0.2289 -0.6401 -0.3013
 9510TIP3    H249946   2.491   6.134  14.062  1.1031 -0.1108  1.2518
 9511TIP3   OH249947   3.417   6.036  14.394  0.2868  0.0279 -0.1690
 9511TIP3    H149948   3.464   6.052  14.475 -0.2955 -0.4178  0.2697
 9511TIP3    H249949   3.343   6.096  14.396  0.1549 -0.1296 -0.2707
 9512TIP3   OH249950   4.100   6.174   0.134 -0.2833 -0.0348  0.3101
 9512TIP3    H149951   4.097   6.113   0.208  2.5903 -0.0375  0.5119
 9512TIP3    H249952   4.146   6.250   0.168 -1.5237  1.2259 -0.6987
 9513TIP3   OH249953   1.477   3.050   2.337  0.4631 -0.2407 -0.2456
 9513TIP3    H149954   1.461   3.118   2.272 -0.7613  0.8172  1.0775
 9513TIP3    H249955   1.490   2.970   2.286  0.6985  0.7562 -1.8006
 9514TIP3   OH249956   2.377   5.787   2.193 -0.3826  0.5572 -0.0083
 9514TIP3    H149957   2.446   5.777   2.259 -0.8155 -0.6561  0.2914
 9514TIP3    H249958   2.424   5.798   2.110  0.1700  2.0681  0.4713
 9515TIP3   OH249959   3.886   4.065  10.805 -0.2785  0.1457 -0.3026
 9515TIP3    H149960   3.850   4.006  10.870 -0.9992  0.2844 -0.5723
 9515TIP3    H249961   3.948   4.011  10.755  0.5289  0.1220  0.6932
 9516TIP3   OH249962   1.152   0.578  11.140 -0.4078 -0.1957 -0.3022
 9516TIP3    H149963   1.098   0.635  11.194 -1.7487 -1.7225  0.0710
 9516TIP3    H249964   1.239   0.580  11.181 -0.6701  0.8176  0.2317
 9517TIP3   OH249965   0.039   5.617  14.519  0.4546 -0.5716  0.3314
 9517TIP3    H149966   0.070   5.553  14.455  1.0120 -0.1226  0.1484
 9517TIP3    H249967  -0.032   5.663  14.474  0.3340 -0.7768  0.3122
 9518TIP3   OH249968   0.950   0.355  14.248 -0.1267 -0.4598  0.1245
 9518TIP3    H149969   1.012   0.358  14.175 -2.4502 -0.6628 -1.9921
 9518TIP3    H249970   0.926   0.447  14.262  0.6238 -0.3801  0.9459
 9519TIP3   OH249971   1.835   1.304  13.242  0.2907  0.8900 -0.1595
 9519TIP3    H149972   1.894   1.239  13.280  0.4590  0.8094 -0.5572
 9519TIP3    H249973   1.891   1.361  13.190 -0.2075 -0.4909 -2.3658
 9520TIP3   OH249974   0.681   2.144   5.675  0.4505 -0.4667  0.1431
 9520TIP3    H149975   0.703   2.127   5.767  1.8815 -1.4813 -0.3535
 9520TIP3    H249976   0.644   2.062   5.644  0.0217 -0.1455 -0.2027
 9521TIP3   OH249977   4.215   1.739   2.350  0.1667 -0.0168  0.3224
 9521TIP3    H149978   4.200   1.651   2.386 -2.3542  0.5730  0.9071
 9521TIP3    H249979   4.200   1.798   2.423  1.6043  0.9381 -0.1283
 9522TIP3   OH249980   4.622   0.828  11.100 -0.1670  0.5276 -0.2722
 9522TIP3    H149981   4.568   0.884  11.045 -2.0882 -0.5830  0.3571
 9522TIP3    H249982   4.561   0.760  11.130  0.7151  1.1023  3.2450
 9523TIP3   OH249983   6.401   2.975  16.400  0.5446 -0.3863 -0.2040
 9523TIP3    H149984   6.345   2.911  16.355 -0.4434  1.0001 -1.0182
 9523TIP3    H249985   6.340   3.041  16.432  1.7343  1.9110 -2.3308
 9524TIP3   OH249986   5.068   4.530  17.133 -0.4413 -0.2753  0.4274
 9524TIP3    H149987   4.975   4.550  17.136 -0.2068  1.4796 -1.6920
 9524TIP3    H249988   5.081   4.485  17.050  0.7929  0.9159 -0.0731
 9525TIP3   OH249989   1.064   4.627  13.427  0.3850 -0.2517  0.1356
 9525TIP3    H149990   0.973   4.597  13.433  0.2835  0.3764  2.7971
 9525TIP3    H249991   1.112   4.571  13.487  1.4139  0.6294  0.1673
 9526TIP3   OH249992   2.177   0.545   2.982  0.2188  0.3008 -0.3147
 9526TIP3    H149993   2.154   0.468   2.929 -1.4491 -0.8255  1.8735
 9526TIP3    H249994   2.119   0.540   3.057  1.4594  2.6529  0.9032
 9527TIP3   OH249995   1.333   5.681   5.471 -0.1786 -0.3074 -0.3231
 9527TIP3    H149996   1.320   5.625   5.547 -0.5712  0.7469  0.4065
 9527TIP3    H249997   1.426   5.673   5.451  0.1608  0.2282  0.9443
 9528TIP3   OH249998   1.585   3.085  10.768  0.4686 -0.3563 -0.1688
 9528TIP3    H149999   1.620   3.166  10.804 -0.9540 -0.5040  1.7109
 9528TIP3    H250000   1.622   3.016  10.822 -1.5735 -0.6003  1.0346
 9529TIP3   OH250001   4.959   5.578   0.502 -0.1010 -0.0946 -0.3934
 9529TIP3    H150002   5.021   5.650   0.503  1.6357 -1.4076  3.2772
 9529TIP3    H250003   4.888   5.606   0.560 -0.2640 -0.6695 -0.3073
 9530TIP3   OH250004   3.921   1.800  10.971  0.1469 -0.0450 -0.2386
 9530TIP3    H150005   3.905   1.788  10.877  2.0943 -1.5717 -0.4427
 9530TIP3    H250006   3.992   1.863  10.975 -1.2933  1.6062  0.3457
 9531TIP3   OH250007   6.702   0.731  13.005 -0.0145  0.2406  0.4979
 9531TIP3    H150008   6.680   0.681  12.927  1.8335  1.8624 -1.1566
 9531TIP3    H250009   6.681   0.821  12.983  3.2398  1.1614  0.6812
 9532TIP3   OH250010   3.179   0.763   0.352  0.4056 -0.0879 -0.2463
 9532TIP3    H150011   3.220   0.706   0.288  2.6474  0.0753  0.9601
 9532TIP3    H250012   3.163   0.845   0.304  0.7479 -0.4321 -0.9619
 9533TIP3   OH250013   2.604   6.243   6.530  0.1538 -0.1063  0.4325
 9533TIP3    H150014   2.586   6.181   6.601  0.5382  0.2251  0.8266
 9533TIP3    H250015   2.667   6.197   6.474  0.3614 -0.1133  0.6708
 9534TIP3   OH250016   2.874   0.412  17.190 -0.4055  0.1509  0.2580
 9534TIP3    H150017   2.968   0.396  17.184 -0.3542 -0.2234  1.7237
 9534TIP3    H250018   2.844   0.413  17.099  1.0140  0.3372 -0.2357
 9535TIP3   OH250019   5.634   4.975   3.009 -0.0222  0.2575 -0.3903
 9535TIP3    H150020   5.708   4.991   3.068 -0.5895  1.7294 -0.0215
 9535TIP3    H250021   5.654   5.026   2.931  1.1434 -2.3653 -1.9357
 9536TIP3   OH250022   2.883   2.903   2.458  0.0876  0.0087 -0.1231
 9536TIP3    H150023   2.929   2.915   2.542  0.9900  1.0539 -0.7420
 9536TIP3    H250024   2.826   2.979   2.451 -1.1557 -0.8561  0.2377
 9537TIP3   OH250025   3.205   2.608   0.099  0.3252  0.0329 -0.5257
 9537TIP3    H150026   3.213   2.531   0.043  0.2745  1.0723 -2.0104
 9537TIP3    H250027   3.274   2.667   0.070  0.1393  0.7098  0.3368
 9538TIP3   OH250028   6.729   1.246   2.545 -0.1726  0.5415  0.0283
 9538TIP3    H150029   6.644   1.287   2.561  0.1784  0.3687  2.9868
 9538TIP3    H250030   6.789   1.319   2.530 -0.4608  0.7824  0.0524
 9539TIP3   OH250031   6.156   2.518   3.557  0.2704 -0.2828  0.0211
 9539TIP3    H150032   6.239   2.472   3.543  0.4819  0.4597 -1.3253
 9539TIP3    H250033   6.180   2.611   3.559 -0.4651 -0.0945  0.2231
 9540TIP3   OH250034   0.179   3.793  12.339 -0.0773  0.3652 -0.6432
 9540TIP3    H150035   0.184   3.859  12.408  0.7972 -0.3181 -0.0386
 9540TIP3    H250036   0.183   3.843  12.258  1.6011  0.9976 -0.1956
 9541TIP3   OH250037   3.499   4.128   3.790  0.3627 -0.0909 -0.1632
 9541TIP3    H150038   3.418   4.177   3.773  0.2077  0.0376  0.8675
 9541TIP3    H250039   3.500   4.059   3.724 -0.6006 -0.1040 -0.1786
 9542TIP3   OH250040   2.483   6.740   3.667 -0.0652 -0.1952  0.4669
 9542TIP3    H150041   2.578   6.731   3.673 -0.0973 -0.4791  0.6008
 9542TIP3    H250042   2.462   6.816   3.721 -0.1617 -1.6718  2.6637
 9543TIP3   OH250043   2.536   3.755  16.913 -0.0404 -0.4382  0.1060
 9543TIP3    H150044   2.458   3.809  16.906 -0.8980 -1.5842  0.4786
 9543TIP3    H250045   2.580   3.764  16.829  0.7630  2.1306  0.7069
 9544TIP3   OH250046   2.608   2.515  17.167  0.2653 -0.4244 -0.5181
 9544TIP3    H150047   2.632   2.503  17.259 -0.0345 -0.4480 -0.4431
 9544TIP3    H250048   2.516   2.541  17.169 -0.4456 -2.7410 -0.9285
 9545TIP3   OH250049   3.168   5.102   3.182  0.5104 -0.1547  0.3173
 9545TIP3    H150050   3.187   5.091   3.275 -1.2915  0.6983  0.8327
 9545TIP3    H250051   3.137   5.016   3.154  1.8529 -0.6473  0.2647
 9546TIP3   OH250052   5.132   1.233   1.824 -0.2110 -0.8512  0.3423
 9546TIP3    H150053   5.163   1.145   1.803 -0.4167 -0.9342  0.3789
 9546TIP3    H250054   5.116   1.274   1.739 -0.1768 -0.8712  0.3262
 9547TIP3   OH250055   6.340   1.585   2.833 -0.7649  0.6527  0.3234
 9547TIP3    H150056   6.338   1.665   2.885  1.0308  0.8861  0.0919
 9547TIP3    H250057   6.391   1.523   2.886  1.5681  1.0575 -1.2559
 9548TIP3   OH250058   0.932   2.843  15.943 -0.0743  0.4232  0.1375
 9548TIP3    H150059   0.894   2.929  15.924  1.5277  0.7315 -2.0554
 9548TIP3    H250060   0.929   2.796  15.860  1.2508 -0.7645  0.7030
 9549TIP3   OH250061   0.919   2.729  12.750 -0.0682  0.6851 -0.1218
 9549TIP3    H150062   1.005   2.695  12.771  0.0536  1.4391  0.6687
 9549TIP3    H250063   0.905   2.799  12.814 -0.9852  1.0090 -0.6622
 9550TIP3   OH250064   3.848   0.659  15.069 -0.0766  0.3493  0.1798
 9550TIP3    H150065   3.832   0.613  15.152  0.9542  0.9857  0.7393
 9550TIP3    H250066   3.913   0.605  15.023 -0.4760  0.1196 -0.1285
 9551TIP3   OH250067   6.388   3.471  13.974  0.1498  0.9750 -0.0622
 9551TIP3    H150068   6.395   3.474  13.879  0.4104  1.1152 -0.0391
 9551TIP3    H250069   6.426   3.554  14.004  0.9182  0.5327  0.2110
 9552TIP3   OH250070   6.657   2.177   4.813  0.1881  0.5947  0.7078
 9552TIP3    H150071   6.718   2.103   4.824 -1.0404 -0.1940  2.7240
 9552TIP3    H250072   6.607   2.155   4.735 -0.2635 -0.8395  1.3591
 9553TIP3   OH250073   5.562   4.723  13.019 -0.0553  0.2760  0.1420
 9553TIP3    H150074   5.585   4.815  13.031  0.9164  0.0411  0.1734
 9553TIP3    H250075   5.467   4.721  13.026 -0.0714  1.2465  0.3411
 9554TIP3   OH250076   5.323   0.168   3.553  0.4949  0.3517  0.3557
 9554TIP3    H150077   5.265   0.243   3.565  0.9656  0.5550  1.5199
 9554TIP3    H250078   5.350   0.172   3.462 -1.2437  0.2998 -0.1976
 9555TIP3   OH250079   6.141   6.033  11.529 -0.0943  0.2699  0.0657
 9555TIP3    H150080   6.161   5.941  11.547 -0.0715  0.4870  1.1847
 9555TIP3    H250081   6.120   6.070  11.614 -2.0215  0.8662 -0.6151
 9556TIP3   OH250082   2.967   6.619  17.109 -0.4023  0.0488  0.2536
 9556TIP3    H150083   3.022   6.546  17.137 -1.3939 -0.6072  0.5545
 9556TIP3    H250084   3.009   6.696  17.146  0.4068 -0.4144  0.3220
 9557TIP3   OH250085   2.389   6.240  11.028 -0.2418  0.3812  0.6382
 9557TIP3    H150086   2.375   6.333  11.013 -0.8807 -0.0535 -2.0085
 9557TIP3    H250087   2.477   6.224  10.992 -0.8330 -0.3159 -0.5373
 9558TIP3   OH250088   4.731   1.776   2.513 -0.7747 -0.1806 -0.2597
 9558TIP3    H150089   4.666   1.746   2.450 -1.7573  0.9346  0.1794
 9558TIP3    H250090   4.701   1.742   2.597 -0.2280 -0.4950 -0.1839
 9559TIP3   OH250091   4.139   4.574   4.616 -0.0252 -0.6488 -0.3615
 9559TIP3    H150092   4.057   4.527   4.633  0.4305 -1.1195  0.6461
 9559TIP3    H250093   4.204   4.504   4.609  0.2083 -0.3168 -1.7826
 9560TIP3   OH250094   2.729   0.876   1.861  0.1251 -0.0104  0.2207
 9560TIP3    H150095   2.791   0.844   1.796  0.4424  0.4871  0.2703
 9560TIP3    H250096   2.719   0.803   1.923 -0.6215 -0.7005 -0.6794
 9561TIP3   OH250097   4.542   6.105   4.512  0.3856 -0.3030  0.3946
 9561TIP3    H150098   4.541   6.186   4.564 -0.1423 -0.0687  0.0334
 9561TIP3    H250099   4.450   6.092   4.487  0.2183 -1.8214  1.6615
 9562TIP3   OH250100   5.262   4.029  15.301 -0.3172 -0.7255 -0.4039
 9562TIP3    H150101   5.190   4.014  15.240  0.2243  0.6400 -1.4163
 9562TIP3    H250102   5.259   4.122  15.320 -1.5824 -1.3585  3.1542
 9563TIP3   OH250103   4.610   2.556   5.879 -0.0604  0.1044  0.0077
 9563TIP3    H150104   4.615   2.543   5.785  2.9305  1.1028 -0.0762
 9563TIP3    H250105   4.605   2.468   5.916 -2.8546 -0.2626 -1.0517
 9564TIP3   OH250106   3.500   6.257   3.381  0.0689  0.1408 -0.1229
 9564TIP3    H150107   3.577   6.201   3.372  0.1667  0.0038  1.3417
 9564TIP3    H250108   3.461   6.231   3.464 -1.9170 -0.1951 -1.0902
 9565TIP3   OH250109   4.291   3.582  10.771 -0.2802 -0.5946 -0.1205
 9565TIP3    H150110   4.198   3.559  10.771 -0.4630 -0.0232  1.7827
 9565TIP3    H250111   4.309   3.610  10.860  1.3307  0.9475 -0.8631
 9566TIP3   OH250112   1.873   5.239  13.335  0.4636  0.0740 -0.7454
 9566TIP3    H150113   1.813   5.177  13.292 -1.4569  1.2668  0.0978
 9566TIP3    H250114   1.899   5.299  13.265  1.0131 -0.6871 -1.2054
 9567TIP3   OH250115   1.338   6.155   0.581 -0.0253 -0.3445  0.3422
 9567TIP3    H150116   1.407   6.138   0.517  0.4190  1.0647  0.4052
 9567TIP3    H250117   1.257   6.150   0.530  0.3691  1.7345 -0.6235
 9568TIP3   OH250118   3.877   3.601  11.012 -0.5303  0.1298 -0.3041
 9568TIP3    H150119   3.787   3.613  10.982 -0.5791  0.3844 -0.0638
 9568TIP3    H250120   3.926   3.576  10.934 -0.9444 -0.6888 -0.3072
 9569TIP3   OH250121   2.918   1.137  11.640 -0.2962 -0.4175  0.2526
 9569TIP3    H150122   2.928   1.203  11.570  1.0569  0.7262  1.4496
 9569TIP3    H250123   2.896   1.056  11.594  0.2489  0.3713 -1.4758
 9570TIP3   OH250124   3.826   5.808  12.111 -0.0678  0.6248 -0.1897
 9570TIP3    H150125   3.866   5.804  12.198  0.2003  3.0232 -0.1533
 9570TIP3    H250126   3.886   5.861  12.059 -1.1277  0.7523 -1.3424
 9571TIP3   OH250127   0.960   5.473   3.128  1.6333 -0.1748 -0.0911
 9571TIP3    H150128   0.885   5.531   3.116  0.8360 -0.7761  1.6794
 9571TIP3    H250129   0.933   5.390   3.089  0.6636 -0.8962  2.0008
 9572TIP3   OH250130   3.779   2.374  12.177 -0.7652  0.3127  0.0688
 9572TIP3    H150131   3.817   2.460  12.159 -2.4934  0.9268 -0.8063
 9572TIP3    H250132   3.853   2.313  12.169  0.0171  1.4335 -1.7693
 9573TIP3   OH250133   3.362   5.865  14.664 -0.0801  0.0569  0.2595
 9573TIP3    H150134   3.307   5.836  14.736 -1.4452 -0.7828 -1.0704
 9573TIP3    H250135   3.426   5.794  14.653 -0.3849 -0.2038  0.1352
 9574TIP3   OH250136   1.879   4.997   0.764 -0.1183  0.2921 -0.1672
 9574TIP3    H150137   1.815   4.926   0.764 -0.1460  0.3158  0.2307
 9574TIP3    H250138   1.879   5.030   0.674 -0.6939  0.3229 -0.1560
 9575TIP3   OH250139   2.476   3.677  16.319  0.1717  0.1740  0.1881
 9575TIP3    H150140   2.524   3.753  16.353 -0.1307  0.1826  0.6114
 9575TIP3    H250141   2.538   3.605  16.323  0.2682  0.2669  0.3764
 9576TIP3   OH250142   2.080   5.134   3.390  0.0718  0.2305 -0.4100
 9576TIP3    H150143   1.990   5.118   3.362 -0.2797 -0.8826  1.1942
 9576TIP3    H250144   2.073   5.147   3.485  1.4481  1.5792 -0.4543
 9577TIP3   OH250145   0.082   0.878  15.755  0.3375  0.2310  0.3680
 9577TIP3    H150146   0.020   0.948  15.738  0.3415  0.1964  0.2008
 9577TIP3    H250147   0.164   0.909  15.716  0.6284  0.6081  1.2566
 9578TIP3   OH250148   6.169   4.788   4.106  0.6265  0.5200  0.0635
 9578TIP3    H150149   6.124   4.872   4.102 -0.4644 -0.0614 -0.0658
 9578TIP3    H250150   6.160   4.752   4.018  0.0816 -0.2424  0.4192
 9579TIP3   OH250151   1.887   4.828   1.371 -0.2231 -0.3239 -0.2456
 9579TIP3    H150152   1.933   4.761   1.320 -1.0129  0.0005 -1.4384
 9579TIP3    H250153   1.938   4.908   1.356  1.4605 -0.8245  2.1989
 9580TIP3   OH250154   6.020   6.782  13.873  0.1749  0.6544  0.0328
 9580TIP3    H150155   6.047   6.873  13.880  0.1475  0.5840  1.2537
 9580TIP3    H250156   6.067   6.748  13.797  2.2464  0.9762  1.1214
 9581TIP3   OH250157   2.222   0.761   0.500  0.8378 -0.1404  0.2165
 9581TIP3    H150158   2.316   0.755   0.484  0.6892  1.2500 -1.6383
 9581TIP3    H250159   2.205   0.855   0.507 -0.9066  0.0474 -3.7697
 9582TIP3   OH250160   0.402   2.190  11.271  1.0023 -0.1392  0.2975
 9582TIP3    H150161   0.443   2.261  11.320 -0.2004  0.7006  0.1327
 9582TIP3    H250162   0.354   2.234  11.201  1.4135 -1.2224 -0.6993
 9583TIP3   OH250163   0.489   2.477  12.017 -0.8557 -0.2699  0.4437
 9583TIP3    H150164   0.440   2.411  11.969 -0.8115  1.2856 -1.8826
 9583TIP3    H250165   0.424   2.543  12.039 -0.7782 -0.7248  2.1923
 9584TIP3   OH250166   6.090   3.587  15.743 -0.2004 -0.3717 -0.3851
 9584TIP3    H150167   6.106   3.535  15.665  0.8466 -0.1876 -0.3045
 9584TIP3    H250168   6.081   3.677  15.711  1.6872 -0.0780 -0.1755
 9585TIP3   OH250169   4.456   3.082  15.212  0.1521  0.2475  0.1712
 9585TIP3    H150170   4.510   3.148  15.169  0.5684 -0.7177 -0.8411
 9585TIP3    H250171   4.517   3.034  15.269 -0.0987  0.5554  0.7118
 9586TIP3   OH250172   2.980   0.048  13.112  0.0757  0.0998 -0.1826
 9586TIP3    H150173   2.984   0.135  13.073 -1.1711  0.5271  0.5867
 9586TIP3    H250174   2.965  -0.011  13.038 -1.7474  0.8405 -0.4638
 9587TIP3   OH250175   3.672   5.867   1.469  0.1077  0.0660 -0.4238
 9587TIP3    H150176   3.617   5.818   1.531 -0.4636 -0.4766 -1.3408
 9587TIP3    H250177   3.629   5.953   1.463  1.2364  0.8102  1.3567
 9588TIP3   OH250178   3.077   5.190   5.727 -0.4203  0.0797  0.4112
 9588TIP3    H150179   3.096   5.284   5.719 -0.1115  0.2241  2.3661
 9588TIP3    H250180   3.006   5.186   5.792 -0.0481 -1.0648  0.7672
 9589TIP3   OH250181   4.694   4.028   4.115  0.0713  0.3811  0.1453
 9589TIP3    H150182   4.683   3.965   4.187  1.4847 -1.2809 -0.9842
 9589TIP3    H250183   4.759   4.090   4.148 -1.5145  1.4713  1.3677
 9590TIP3   OH250184   0.295   3.946  14.350 -0.3824  0.0749 -0.6721
 9590TIP3    H150185   0.228   3.885  14.381  0.8783 -1.4336 -0.7844
 9590TIP3    H250186   0.373   3.924  14.402 -0.0392  2.0112 -0.3049
 9591TIP3   OH250187   1.005   3.264   5.146 -0.3855 -0.2249 -0.2542
 9591TIP3    H150188   0.957   3.184   5.169 -1.2140  0.3019 -0.1426
 9591TIP3    H250189   0.973   3.288   5.060 -0.1620  0.0128 -0.2724
 9592TIP3   OH250190   4.778   1.637  15.093 -0.3524 -0.1510  0.0178
 9592TIP3    H150191   4.684   1.631  15.105 -0.5542  1.1606 -0.7193
 9592TIP3    H250192   4.815   1.605  15.175 -1.4701  0.5953  0.8488
 9593TIP3   OH250193   4.499   5.462  13.159  0.3194 -0.2098  0.2857
 9593TIP3    H150194   4.537   5.538  13.116  1.2499 -0.7203  0.1936
 9593TIP3    H250195   4.415   5.448  13.115  0.6671  0.0677 -0.4629
 9594TIP3   OH250196   4.604   0.709  14.824 -0.3977 -0.0049  0.4509
 9594TIP3    H150197   4.612   0.622  14.863  0.0346  0.1435  0.7010
 9594TIP3    H250198   4.569   0.693  14.736  0.1043 -0.4697  0.3293
 9595TIP3   OH250199   3.877   1.714   1.236 -0.3085 -0.2404  0.1195
 9595TIP3    H150200   3.830   1.743   1.314 -1.5784 -1.2783 -0.2315
 9595TIP3    H250201   3.950   1.662   1.270  0.9074  1.7504  0.6794
 9596TIP3   OH250202   5.130   2.325  16.182  0.1116 -0.0329  0.1631
 9596TIP3    H150203   5.141   2.297  16.273  1.5019  0.8017  0.2814
 9596TIP3    H250204   5.209   2.376  16.163 -1.0094  1.4025 -0.9039
 9597TIP3   OH250205   6.467   6.263   1.667 -0.1529  0.5424 -0.0707
 9597TIP3    H150206   6.433   6.336   1.615 -0.7345 -1.0726 -2.1004
 9597TIP3    H250207   6.512   6.208   1.603 -0.5358 -1.3539  1.2170
 9598TIP3   OH250208   5.801   1.322   0.193 -0.5130 -0.0396  0.4276
 9598TIP3    H150209   5.836   1.411   0.191 -1.5424  0.4080  1.3690
 9598TIP3    H250210   5.873   1.268   0.161  0.8486  0.9083  1.7450
 9599TIP3   OH250211   5.800   1.500   4.344  0.2806  0.1258 -0.4579
 9599TIP3    H150212   5.813   1.536   4.256  0.6391  0.1463 -0.3970
 9599TIP3    H250213   5.885   1.511   4.387  0.1237  0.0539 -0.1316
 9600TIP3   OH250214   6.578   1.011   2.568 -0.4614  0.3551  0.2949
 9600TIP3    H150215   6.640   1.083   2.558  1.3042 -1.1178  0.2965
 9600TIP3    H250216   6.535   1.028   2.652 -0.6292  1.7733 -0.0467
 9601TIP3   OH250217   0.408   6.035  16.447 -0.0027 -0.0832 -0.4920
 9601TIP3    H150218   0.371   5.952  16.415 -1.9153 -0.3206  2.0951
 9601TIP3    H250219   0.396   6.095  16.373  1.0861 -1.9324 -2.3099
 9602TIP3   OH250220   5.789   5.441   5.486  0.2606  0.6137  0.6122
 9602TIP3    H150221   5.748   5.396   5.560  0.2990  0.5415  0.5899
 9602TIP3    H250222   5.851   5.502   5.525  1.0312 -0.1553  0.6082
 9603TIP3   OH250223   3.765   3.410   2.839 -0.1645 -0.3906 -0.7143
 9603TIP3    H150224   3.785   3.432   2.930 -1.5881  0.0930 -0.4919
 9603TIP3    H250225   3.786   3.317   2.832  0.0173 -0.4229  0.0913
 9604TIP3   OH250226   4.961   0.572   4.621 -0.5494 -0.1781 -0.2053
 9604TIP3    H150227   4.870   0.562   4.651 -0.4000 -0.4147  0.1750
 9604TIP3    H250228   4.973   0.502   4.557 -0.7619  0.1158 -0.5767
 9605TIP3   OH250229   4.980   6.475   1.369 -0.0450  0.0321 -0.2420
 9605TIP3    H150230   4.942   6.440   1.288 -0.0679  2.1039 -1.1927
 9605TIP3    H250231   4.938   6.560   1.381  3.2319  1.8924 -0.6640
 9606TIP3   OH250232   1.180   4.213   1.404  0.5606  0.1064 -0.0524
 9606TIP3    H150233   1.227   4.246   1.328 -0.4540 -1.1148 -1.2494
 9606TIP3    H250234   1.244   4.219   1.476  2.3244 -0.8005 -1.4534
 9607TIP3   OH250235   0.190   0.237  11.029 -0.2631 -0.5095 -0.2521
 9607TIP3    H150236   0.225   0.248  10.941 -1.0458 -1.1669 -0.6608
 9607TIP3    H250237   0.145   0.320  11.048  1.1768  0.2176  0.1518
 9608TIP3   OH250238   1.486   2.856  14.251 -0.6568 -0.4651 -0.5261
 9608TIP3    H150239   1.469   2.780  14.306 -1.2150 -0.3980 -0.5985
 9608TIP3    H250240   1.580   2.853  14.233 -0.1825  0.2273  1.5023
 9609TIP3   OH250241   3.465   5.319  16.592 -0.2355  0.1927  0.0479
 9609TIP3    H150242   3.407   5.394  16.604 -1.1162 -0.2001 -1.4246
 9609TIP3    H250243   3.412   5.243  16.614  0.0648 -0.1046 -0.2272
 9610TIP3   OH250244   0.320   1.748  15.362  0.3768 -0.3538  0.7281
 9610TIP3    H150245   0.236   1.792  15.372  0.3751  0.0016 -0.7245
 9610TIP3    H250246   0.307   1.685  15.292  1.1083 -0.8782  1.0409
 9611TIP3   OH250247   3.223   4.643  12.800  0.6530 -0.1303 -0.3088
 9611TIP3    H150248   3.152   4.664  12.861  0.3267  0.7554 -0.9764
 9611TIP3    H250249   3.228   4.547  12.802  0.0991 -0.1534  0.4847
 9612TIP3   OH250250   5.965   4.326   3.098  0.0522 -0.1810 -0.0039
 9612TIP3    H150251   6.022   4.253   3.071  1.4026  0.4526  1.0302
 9612TIP3    H250252   6.009   4.404   3.065 -0.5046  0.2898  0.3588
 9613TIP3   OH250253   1.950   1.094  13.358  0.6605 -0.4564 -0.2682
 9613TIP3    H150254   1.968   1.023  13.296  1.3933  0.1675 -0.7998
 9613TIP3    H250255   2.018   1.085  13.425  1.0826  0.0362 -0.6151
 9614TIP3   OH250256   3.095   1.028  10.721  0.5704  0.2896 -0.4065
 9614TIP3    H150257   3.129   1.014  10.633  1.8188  1.2224 -0.1053
 9614TIP3    H250258   3.143   0.966  10.776 -0.7256 -0.8126 -0.4469
 9615TIP3   OH250259   0.568   0.789   5.365 -0.6270 -0.2411  0.4331
 9615TIP3    H150260   0.499   0.810   5.429 -0.5282 -0.3352  0.5715
 9615TIP3    H250261   0.595   0.874   5.331  1.3685  0.1141  2.6460
 9616TIP3   OH250262   1.652   5.654  10.933 -0.1385  0.1315 -0.0733
 9616TIP3    H150263   1.674   5.561  10.930 -0.4011  0.0698 -0.1501
 9616TIP3    H250264   1.556   5.656  10.936 -0.1429  0.4029 -0.3085
 9617TIP3   OH250265   4.357   4.085  14.569  0.0069 -0.1293 -0.3476
 9617TIP3    H150266   4.426   4.071  14.504  1.7804  1.3133  1.1241
 9617TIP3    H250267   4.333   4.177  14.559 -1.8623 -0.6391 -0.9178
 9618TIP3   OH250268   0.568   1.369  15.142  0.0562  0.2022  0.2625
 9618TIP3    H150269   0.472   1.367  15.137  0.0449  0.8556  0.1351
 9618TIP3    H250270   0.592   1.454  15.106  0.6709  0.1509  0.5422
 9619TIP3   OH250271   3.939   0.660   3.017 -0.4046  0.9401 -0.0909
 9619TIP3    H150272   3.904   0.571   3.015  1.4437  0.1718  0.2377
 9619TIP3    H250273   4.001   0.664   2.944 -2.6694  2.9976 -2.1149
 9620TIP3   OH250274   1.284   2.434   5.442 -0.3870 -0.2138 -0.4448
 9620TIP3    H150275   1.199   2.476   5.451  0.4419  1.3075  0.6767
 9620TIP3    H250276   1.288   2.407   5.350 -1.5126  0.9469 -0.8630
 9621TIP3   OH250277   3.458   2.032  16.503  0.0021 -0.1255 -0.7025
 9621TIP3    H150278   3.460   2.112  16.557 -0.9036 -0.0253 -0.7940
 9621TIP3    H250279   3.405   1.971  16.554  0.9201 -0.7799 -0.5061
 9622TIP3   OH250280   6.360   2.106   2.071  0.6290 -0.4610 -0.0663
 9622TIP3    H150281   6.318   2.192   2.064  1.4396  0.0253  0.8057
 9622TIP3    H250282   6.288   2.043   2.072  0.0487  0.1588 -1.3556
 9623TIP3   OH250283   5.524   2.695   6.687 -0.2534  0.4116  0.0312
 9623TIP3    H150284   5.531   2.722   6.779 -0.3538  0.4784  0.0193
 9623TIP3    H250285   5.600   2.737   6.645  0.7980 -1.0266  0.4116
 9624TIP3   OH250286   2.083   4.599   5.259  0.0777  0.2538  0.0560
 9624TIP3    H150287   2.011   4.542   5.232 -0.9413  1.3784  0.2944
 9624TIP3    H250288   2.046   4.687   5.254  0.7636  0.7218  2.1898
 9625TIP3   OH250289   2.934   6.672  14.879  0.6282  0.5374 -0.5815
 9625TIP3    H150290   2.910   6.592  14.925  1.0871 -0.1067 -1.4358
 9625TIP3    H250291   2.969   6.642  14.795  0.0990  1.6715 -1.2281
 9626TIP3   OH250292   4.519   4.522  13.028 -0.4469 -0.1381 -0.4605
 9626TIP3    H150293   4.424   4.535  13.034 -0.7251 -2.3161  0.6060
 9626TIP3    H250294   4.529   4.448  12.969  0.6198  0.1500 -0.6584
 9627TIP3   OH250295   5.140   1.136  14.390  0.1931 -0.4030 -0.5194
 9627TIP3    H150296   5.173   1.192  14.320  0.9773 -0.0257  0.1513
 9627TIP3    H250297   5.214   1.124  14.449 -1.0443  1.1585  1.4672
 9628TIP3   OH250298   2.518   4.482  12.362 -0.2901  0.4089  0.0012
 9628TIP3    H150299   2.573   4.534  12.302 -1.0849  0.3040 -0.8412
 9628TIP3    H250300   2.431   4.487  12.324 -0.4295 -1.3585  0.0329
 9629TIP3   OH250301   5.774   3.568  11.323 -0.6023 -0.4700  0.2097
 9629TIP3    H150302   5.706   3.632  11.305 -0.6658 -0.7391 -0.5247
 9629TIP3    H250303   5.750   3.491  11.271 -2.0163 -2.1378  3.0993
 9630TIP3   OH250304   5.472   4.786  16.903 -0.4727  0.6203  0.3269
 9630TIP3    H150305   5.386   4.798  16.943 -1.0336 -0.9263 -0.3655
 9630TIP3    H250306   5.461   4.815  16.813 -2.1082 -4.9516 -1.6713
 9631TIP3   OH250307   6.493   4.913  16.688 -0.2463  0.7943 -0.5876
 9631TIP3    H150308   6.447   4.981  16.737 -1.2621  0.5674 -1.1935
 9631TIP3    H250309   6.530   4.960  16.613 -0.0002  0.8718 -0.4189
 9632TIP3   OH250310   5.783   0.252   4.692 -0.2715 -0.8429 -0.3657
 9632TIP3    H150311   5.851   0.187   4.711 -0.9614 -1.3788  0.2762
 9632TIP3    H250312   5.729   0.255   4.770 -1.3315 -0.8263 -1.0770
 9633TIP3   OH250313   3.061   6.113   6.691  0.1812 -0.0095  0.1824
 9633TIP3    H150314   3.023   6.040   6.642 -0.9816  0.8603 -0.2567
 9633TIP3    H250315   3.149   6.124   6.654 -0.4823  0.2972 -1.3652
 9634TIP3   OH250316   2.742   0.368  16.401  0.5533 -0.0655  0.6649
 9634TIP3    H150317   2.713   0.369  16.310 -0.2873 -0.1780  0.9199
 9634TIP3    H250318   2.705   0.448  16.439  0.4807 -0.2733  1.0323
 9635TIP3   OH250319   6.118   1.191  16.521  0.1256 -0.2435 -0.1368
 9635TIP3    H150320   6.053   1.167  16.587  0.3954 -2.3557 -0.5778
 9635TIP3    H250321   6.202   1.169  16.561  0.4357  0.4464 -0.3932
 9636TIP3   OH250322   0.187   5.419  14.402  0.0883  0.2370  0.0534
 9636TIP3    H150323   0.280   5.420  14.423 -0.0446 -2.4034  1.2794
 9636TIP3    H250324   0.183   5.396  14.309  0.7698 -2.8956  0.6786
 9637TIP3   OH250325   2.833   1.262   0.915  0.6548  0.2950 -0.0549
 9637TIP3    H150326   2.830   1.271   0.820  1.5871 -0.3652 -0.1571
 9637TIP3    H250327   2.926   1.259   0.936  0.5106  1.8477  1.0349
 9638TIP3   OH250328   4.109   2.222  14.356  0.4610 -0.5735 -0.7168
 9638TIP3    H150329   4.121   2.168  14.434 -0.9830  0.6301  0.4170
 9638TIP3    H250330   4.116   2.312  14.388 -1.4169 -0.0155 -1.7082
 9639TIP3   OH250331   4.658   0.207  11.624 -0.6590  0.0651 -0.0056
 9639TIP3    H150332   4.737   0.258  11.643 -0.3375 -0.6778  0.7036
 9639TIP3    H250333   4.691   0.119  11.606 -1.2048  0.1044 -1.2696
 9640TIP3   OH250334   0.447   2.628  13.264  0.5473 -0.3039 -0.0850
 9640TIP3    H150335   0.442   2.700  13.327  1.0492 -0.4559  0.1340
 9640TIP3    H250336   0.481   2.554  13.314 -0.9392 -1.0001 -0.0535
 9641TIP3   OH250337   2.805   1.634   3.559  0.5653  0.4155 -0.7620
 9641TIP3    H150338   2.817   1.614   3.466  2.9542 -0.7619 -0.2798
 9641TIP3    H250339   2.828   1.726   3.567  2.0133  0.1066 -1.1196
 9642TIP3   OH250340   2.155   6.376   4.993 -0.6067  0.3194 -0.2552
 9642TIP3    H150341   2.119   6.337   5.074  0.1910 -0.5982 -0.3276
 9642TIP3    H250342   2.112   6.461   4.987 -1.8599 -0.2416  0.3055
 9643TIP3   OH250343   0.930   2.111   2.653 -0.2704 -0.1269  0.2048
 9643TIP3    H150344   0.886   2.191   2.682 -0.3203  0.5311 -1.5720
 9643TIP3    H250345   0.903   2.044   2.716 -1.7483  0.8355  0.6250
 9644TIP3   OH250346   2.707   3.568   1.001  0.0019 -1.0470  0.6084
 9644TIP3    H150347   2.767   3.514   1.052  0.7741  0.8335  1.8172
 9644TIP3    H250348   2.627   3.517   0.994  0.5604 -2.1615  2.0367
 9645TIP3   OH250349   5.912   1.582  10.560  0.4872  0.3825  0.0068
 9645TIP3    H150350   5.969   1.507  10.541  1.9325  1.6329 -0.8511
 9645TIP3    H250351   5.972   1.651  10.589 -0.7711  1.2906  0.5456
 9646TIP3   OH250352   3.793   1.745  16.961 -0.1582 -0.2468  0.9569
 9646TIP3    H150353   3.767   1.813  16.899 -0.8115 -2.1323 -0.9707
 9646TIP3    H250354   3.710   1.705  16.988  0.0248  1.0287  3.8108
 9647TIP3   OH250355   6.380   0.950  14.329 -0.1806  0.0168  0.3701
 9647TIP3    H150356   6.384   0.866  14.374 -0.5895 -1.2600 -1.8359
 9647TIP3    H250357   6.465   0.959  14.286  0.0070  0.9466  0.9023
 9648TIP3   OH250358   0.587   4.347  16.322 -0.1465  0.3210 -0.0278
 9648TIP3    H150359   0.597   4.437  16.291 -0.7469  0.0805 -0.9953
 9648TIP3    H250360   0.500   4.321  16.292  0.1996 -0.7345 -0.1891
 9649TIP3   OH250361   5.229   5.100  14.727  0.1030  0.0459  0.0865
 9649TIP3    H150362   5.202   5.009  14.719  0.1130  0.1977 -2.8650
 9649TIP3    H250363   5.315   5.103  14.685  1.3573  1.0003  2.5014
 9650TIP3   OH250364   1.074   1.046  15.586  0.3748  0.5096 -0.1745
 9650TIP3    H150365   1.010   0.982  15.556 -0.2612  1.0612  0.0002
 9650TIP3    H250366   1.153   0.994  15.604 -0.7407 -0.5542  1.9563
 9651TIP3   OH250367   1.240   3.022   3.861 -0.0459  0.0870  0.0708
 9651TIP3    H150368   1.278   3.108   3.879  0.0945 -0.2188  1.3829
 9651TIP3    H250369   1.195   2.999   3.942  0.0947 -1.1612 -0.1866
 9652TIP3   OH250370   3.105   4.079  12.734 -0.4131 -0.2312 -0.3229
 9652TIP3    H150371   3.061   4.120  12.808  1.2875 -1.9232  1.7874
 9652TIP3    H250372   3.051   4.002  12.714  0.4409 -1.2167  0.9676
 9653TIP3   OH250373   5.333   5.526   4.226  0.0035  0.1420  0.2279
 9653TIP3    H150374   5.388   5.466   4.176  0.6656  1.9107 -1.2999
 9653TIP3    H250375   5.366   5.520   4.316  1.8046  0.1389 -0.3890
 9654TIP3   OH250376   1.164   0.159   5.071 -0.1605 -0.1167  0.3650
 9654TIP3    H150377   1.211   0.158   4.988 -3.0137 -1.8170 -1.4124
 9654TIP3    H250378   1.116   0.242   5.071 -0.8936 -0.5277 -0.1929
 9655TIP3   OH250379   4.635   3.504   2.758 -0.3585 -0.1568 -0.0310
 9655TIP3    H150380   4.595   3.421   2.733  0.5146 -1.0005  1.2814
 9655TIP3    H250381   4.722   3.481   2.789 -0.6602  1.0198  1.8989
 9656TIP3   OH250382   1.601   4.612  14.163  0.1255 -0.4827 -0.0855
 9656TIP3    H150383   1.657   4.543  14.126 -2.2305 -2.4551 -0.2549
 9656TIP3    H250384   1.526   4.615  14.104  0.0883  2.2524 -0.0040
 9657TIP3   OH250385   2.590   1.535  15.267 -0.2077  0.2669  0.2402
 9657TIP3    H150386   2.569   1.449  15.304  0.3598  0.2360  0.4891
 9657TIP3    H250387   2.545   1.597  15.324  0.4868  0.2069  0.8664
 9658TIP3   OH250388   2.225   3.613   0.384 -0.0128 -0.3116 -0.7269
 9658TIP3    H150389   2.195   3.677   0.319  0.0330  2.2482  1.5604
 9658TIP3    H250390   2.145   3.566   0.409 -0.2692 -0.3776 -1.6113
 9659TIP3   OH250391   5.810   0.001   0.618  0.2756 -0.2588  0.2134
 9659TIP3    H150392   5.805   0.037   0.529  0.4936 -3.4603 -1.2090
 9659TIP3    H250393   5.723   0.016   0.654 -0.6307 -1.1012 -1.5099
 9660TIP3   OH250394   2.414   5.094   5.274 -0.7008  0.4429 -0.8350
 9660TIP3    H150395   2.417   5.030   5.202 -0.2822 -0.1208 -0.3254
 9660TIP3    H250396   2.506   5.108   5.297 -0.7214  1.9612 -1.5620
 9661TIP3   OH250397   1.518   6.564  16.132 -0.1376  0.1577  0.3617
 9661TIP3    H150398   1.569   6.643  16.149 -0.5645  0.2857  1.0978
 9661TIP3    H250399   1.583   6.494  16.125  0.2260  0.5403 -0.0910
 9662TIP3   OH250400   2.736   3.809   5.098 -0.1550  0.2001  0.3882
 9662TIP3    H150401   2.701   3.872   5.161 -1.9461  1.2688 -1.5256
 9662TIP3    H250402   2.692   3.727   5.118 -1.3607  0.7380  0.0838
 9663TIP3   OH250403   2.094   1.474  13.554 -0.1080  0.9706 -0.6254
 9663TIP3    H150404   2.161   1.409  13.576  0.1475  1.6926  0.8679
 9663TIP3    H250405   2.142   1.557  13.548 -0.5902  1.2017 -1.4130
 9664TIP3   OH250406   3.241   3.033   1.328 -0.2129  0.4026 -0.4478
 9664TIP3    H150407   3.146   3.017   1.323 -0.2352  0.0144  0.8451
 9664TIP3    H250408   3.275   2.997   1.247 -1.0147 -0.7729 -0.2942
 9665TIP3   OH250409   1.561   2.263   5.179  0.0342 -0.2335  0.5741
 9665TIP3    H150410   1.549   2.169   5.166 -0.1918 -0.2796  1.1012
 9665TIP3    H250411   1.652   2.279   5.154 -0.4106 -0.2849 -1.2207
 9666TIP3   OH250412   2.805   5.768  16.226 -0.1031 -0.0691  0.2596
 9666TIP3    H150413   2.872   5.715  16.183  2.3953  2.8469  0.1738
 9666TIP3    H250414   2.835   5.776  16.316 -1.0387  0.2573  0.5570
 9667TIP3   OH250415   4.633   4.374  16.471  0.2645  0.0551  0.0678
 9667TIP3    H150416   4.589   4.290  16.463  1.5508 -0.6933  0.5176
 9667TIP3    H250417   4.648   4.385  16.565  0.9063  0.3433 -0.0579
 9668TIP3   OH250418   5.011   1.759  15.201  0.0129 -0.6573  0.0670
 9668TIP3    H150419   5.046   1.670  15.207 -0.1931 -0.8395 -1.2331
 9668TIP3    H250420   5.034   1.789  15.113  1.1059  1.0328  0.8780
 9669TIP3   OH250421   2.390   6.442   1.687 -0.1761  0.1031  0.0499
 9669TIP3    H150422   2.478   6.434   1.724  0.0897  0.4285 -0.5060
 9669TIP3    H250423   2.374   6.358   1.644 -1.1629 -0.9480  2.3033
 9670TIP3   OH250424   3.011   0.474  15.793 -0.0792  0.1544  0.0206
 9670TIP3    H150425   3.100   0.452  15.768  1.1308  2.2710  2.0324
 9670TIP3    H250426   3.002   0.567  15.773 -1.2869  0.3391  1.2263
 9671TIP3   OH250427   6.465   2.704  12.434 -0.2516  0.7348  0.1856
 9671TIP3    H150428   6.489   2.751  12.354 -1.2311 -1.6958 -1.6829
 9671TIP3    H250429   6.549   2.680  12.474  0.2568  1.9144 -0.1391
 9672TIP3   OH250430   5.059   1.508   4.855 -0.5374  1.1210 -0.6021
 9672TIP3    H150431   5.038   1.525   4.947 -1.3456  2.5194 -1.0087
 9672TIP3    H250432   5.153   1.525   4.848 -0.6936  2.2105 -0.2648
 9673TIP3   OH250433   3.335   0.604   2.070 -0.4216 -0.7772 -0.0479
 9673TIP3    H150434   3.381   0.687   2.079  0.1248 -1.0908  0.1340
 9673TIP3    H250435   3.300   0.586   2.157 -1.5313 -0.1823 -0.3565
 9674TIP3   OH250436   6.256   2.745   0.945 -0.2705  0.7907  0.6113
 9674TIP3    H150437   6.333   2.781   0.990  1.6981 -0.6508 -1.3811
 9674TIP3    H250438   6.284   2.735   0.854 -1.5048 -3.2210  0.4765
 9675TIP3   OH250439   3.823   0.992  15.087 -0.7736  0.1963 -0.2423
 9675TIP3    H150440   3.898   0.954  15.040 -0.7006  1.1888 -0.9422
 9675TIP3    H250441   3.772   0.916  15.115  0.9079 -0.5757  0.9878
 9676TIP3   OH250442   5.481   5.181  16.725 -0.6783  0.2014  0.1748
 9676TIP3    H150443   5.433   5.258  16.757  0.2293  0.9827 -0.3033
 9676TIP3    H250444   5.571   5.212  16.713  0.2266 -1.4774  2.0132
 9677TIP3   OH250445   4.539   2.761  16.290  0.0114 -0.2763  0.1864
 9677TIP3    H150446   4.544   2.840  16.236  0.3859 -0.6335 -0.3048
 9677TIP3    H250447   4.586   2.784  16.370  0.2546 -0.0546 -0.0174
 9678TIP3   OH250448   0.210   3.426  12.586  0.0074  0.0600 -0.2824
 9678TIP3    H150449   0.275   3.447  12.653 -1.1570 -0.2476  0.9970
 9678TIP3    H250450   0.224   3.491  12.518  1.7153 -0.0735 -0.0971
 9679TIP3   OH250451   2.107   4.053  10.744 -0.1159  0.1708  0.5333
 9679TIP3    H150452   2.074   3.978  10.694 -0.8808 -1.4648  3.2664
 9679TIP3    H250453   2.196   4.028  10.768  0.7341  1.5272 -0.9932
 9680TIP3   OH250454   3.859   3.047   3.261 -0.0400  0.7066  0.1233
 9680TIP3    H150455   3.814   2.980   3.210  0.5861  0.4902 -0.1435
 9680TIP3    H250456   3.863   3.011   3.350 -0.4373  0.7503  0.1612
 9681TIP3   OH250457   4.034   4.172  13.569 -0.4526 -0.1776  0.7330
 9681TIP3    H150458   3.965   4.106  13.570 -1.4040  0.7904  0.4745
 9681TIP3    H250459   4.015   4.225  13.492  0.9559 -0.2630  0.2927
 9682TIP3   OH250460   6.502   0.084   6.164 -0.1976  0.4291 -0.4457
 9682TIP3    H150461   6.540   0.079   6.252 -2.2840  0.1274  0.4907
 9682TIP3    H250462   6.475  -0.006   6.145 -1.7456  0.8635 -0.4352
 9683TIP3   OH250463   0.142   4.280   0.253 -0.2625  0.0788  0.2123
 9683TIP3    H150464   0.160   4.210   0.316  0.5241 -0.2255 -0.3385
 9683TIP3    H250465   0.121   4.235   0.172 -0.8410  0.4776  0.1343
 9684TIP3   OH250466   4.635   3.043   2.061 -0.3383  0.3418  0.2713
 9684TIP3    H150467   4.713   3.007   2.102 -0.8841 -1.5227 -0.2407
 9684TIP3    H250468   4.565   3.031   2.126 -0.4082  1.1058  0.3485
 9685TIP3   OH250469   4.604   6.463   2.494 -0.3392 -0.2186 -0.7451
 9685TIP3    H150470   4.677   6.415   2.456 -0.7533  0.2144 -2.1591
 9685TIP3    H250471   4.644   6.520   2.560  0.2202 -2.0492  0.5775
 9686TIP3   OH250472   2.138   3.428   1.559  0.1903  0.5157 -0.3150
 9686TIP3    H150473   2.115   3.386   1.476  1.8441 -1.0511 -0.0682
 9686TIP3    H250474   2.175   3.512   1.534 -0.4613  0.5875 -1.0729
 9687TIP3   OH250475   0.993   3.993   3.616  0.2167 -0.0942 -0.0092
 9687TIP3    H150476   1.007   4.079   3.576  0.8456  1.1052  2.5848
 9687TIP3    H250477   0.905   3.999   3.654  0.0039 -0.8489 -0.3722
 9688TIP3   OH250478   0.029   3.607  14.748  0.5902  0.1651 -0.0496
 9688TIP3    H150479   0.048   3.538  14.685 -0.3259  1.0009 -1.2869
 9688TIP3    H250480  -0.048   3.576  14.796  1.4084 -0.5609  0.8318
 9689TIP3   OH250481   5.735   2.864   0.506  0.0094  0.5747 -0.0398
 9689TIP3    H150482   5.649   2.903   0.492 -0.6959  0.0509  2.3333
 9689TIP3    H250483   5.793   2.939   0.521 -0.2147  0.8925 -0.7337
 9690TIP3   OH250484   5.281   0.814  16.909  0.0212 -0.8351 -0.3070
 9690TIP3    H150485   5.200   0.804  16.959  0.8752 -2.2566  0.8682
 9690TIP3    H250486   5.321   0.894  16.942  0.6715 -1.8454  1.5224
 9691TIP3   OH250487   2.239   6.135  15.563 -0.6917 -0.1463 -0.2376
 9691TIP3    H150488   2.310   6.142  15.627 -1.3847 -0.5410  0.5971
 9691TIP3    H250489   2.184   6.064  15.596 -2.0536  0.8474 -0.2907
 9692TIP3   OH250490   4.364   4.390  11.301 -0.3496 -0.1320 -0.0562
 9692TIP3    H150491   4.269   4.386  11.300 -0.3277 -0.7152  0.2002
 9692TIP3    H250492   4.392   4.305  11.335  0.2139  0.8062  1.9846
 9693TIP3   OH250493   3.371   5.209   5.748  0.2156 -0.1426  0.5088
 9693TIP3    H150494   3.278   5.190   5.737  0.4862 -1.5457  0.5367
 9693TIP3    H250495   3.399   5.156   5.822  0.7945  1.1861  1.2870
 9694TIP3   OH250496   2.555   1.724  13.624  0.1824 -0.1287 -0.4213
 9694TIP3    H150497   2.640   1.688  13.600  0.9301  0.8537  0.6354
 9694TIP3    H250498   2.519   1.661  13.687  0.5728 -0.0525 -0.1195
 9695TIP3   OH250499   1.498   1.421  17.083 -0.1444  0.7295  0.5544
 9695TIP3    H150500   1.473   1.508  17.050  0.4163  0.6013 -0.2478
 9695TIP3    H250501   1.527   1.374  17.005  1.1557  0.3825  1.2188
 9696TIP3   OH250502   5.802   6.019  12.773  0.0807 -0.0270 -0.1606
 9696TIP3    H150503   5.833   5.929  12.787  1.5921  0.6415  0.9611
 9696TIP3    H250504   5.717   6.022  12.817  0.6117 -0.5641  0.9399
 9697TIP3   OH250505   2.275   3.841   0.574 -0.0202  0.3942 -0.1309
 9697TIP3    H150506   2.274   3.785   0.496  1.0792  0.7465 -0.4117
 9697TIP3    H250507   2.292   3.781   0.647  2.2399  0.4485 -0.5442
 9698TIP3   OH250508   0.810   6.589   2.674  0.0596  0.3467  0.1265
 9698TIP3    H150509   0.812   6.575   2.579 -0.2169 -0.2593  0.2059
 9698TIP3    H250510   0.880   6.532   2.707  1.8307  2.3687  0.0849
 9699TIP3   OH250511   1.315   4.937  11.869  0.0495  0.0894 -0.2198
 9699TIP3    H150512   1.367   4.915  11.791  0.3865  0.5167 -0.1223
 9699TIP3    H250513   1.341   4.871  11.934  0.0434 -0.0461 -0.3543
 9700TIP3   OH250514   0.915   3.889  16.387 -0.3733  0.8353 -0.5518
 9700TIP3    H150515   0.907   3.984  16.399  1.7666  0.8606  1.2558
 9700TIP3    H250516   1.009   3.873  16.385 -0.5274 -1.5963  2.8794
 9701TIP3   OH250517   4.666   1.734   5.908  0.2554  0.9447 -0.0397
 9701TIP3    H150518   4.738   1.672   5.903 -0.2062  0.4745 -1.4192
 9701TIP3    H250519   4.688   1.791   5.982  2.0126  0.7888 -0.3978
 9702TIP3   OH250520   2.283   6.338   0.948 -0.3482  0.2869  0.0098
 9702TIP3    H150521   2.323   6.255   0.974  0.5680  0.2201 -1.4884
 9702TIP3    H250522   2.193   6.331   0.978  0.2423 -0.3514  1.7970
 9703TIP3   OH250523   4.002   1.155   1.065  0.1512 -0.4737  0.2797
 9703TIP3    H150524   4.038   1.161   0.977 -0.1536 -2.0648  0.0271
 9703TIP3    H250525   4.071   1.115   1.118  1.2807  2.5984  1.4003
 9704TIP3   OH250526   4.940   4.342   0.135  0.1024  0.2954  0.2078
 9704TIP3    H150527   4.937   4.251   0.165  0.4859 -0.1460 -1.0321
 9704TIP3    H250528   5.032   4.357   0.114 -0.4104 -0.1654 -2.8277
 9705TIP3   OH250529   6.715   1.955   1.331 -0.6357 -0.2091 -0.0278
 9705TIP3    H150530   6.671   2.039   1.343 -1.0870 -0.1976 -1.5681
 9705TIP3    H250531   6.808   1.975   1.343 -0.7535  0.4982 -0.2544
 9706TIP3   OH250532   3.585   4.523   2.270 -0.3924  0.1169 -0.3756
 9706TIP3    H150533   3.545   4.478   2.345  0.3131 -0.7285 -0.4916
 9706TIP3    H250534   3.582   4.616   2.294 -1.4286 -0.0239  0.0844
 9707TIP3   OH250535   3.743   5.316  16.677  0.2778 -0.1125  0.2653
 9707TIP3    H150536   3.747   5.224  16.650  1.1975 -0.1296  0.4361
 9707TIP3    H250537   3.650   5.340  16.667  0.2020 -0.7668 -0.7216
 9708TIP3   OH250538   0.909   1.056   3.923  0.2813 -0.4255  0.0060
 9708TIP3    H150539   0.854   1.130   3.949  0.1067 -0.4915 -0.1814
 9708TIP3    H250540   0.936   1.016   4.006  2.1427  1.1360  0.2206
 9709TIP3   OH250541   5.998   4.455   1.836  0.6033  0.4944 -0.1063
 9709TIP3    H150542   5.935   4.493   1.774 -0.8827 -1.5224  0.0675
 9709TIP3    H250543   6.065   4.416   1.780 -0.2934 -0.5831 -0.4757
 9710TIP3   OH250544   0.143   4.613  11.662  0.8298  0.2771  0.5119
 9710TIP3    H150545   0.201   4.658  11.601  0.5102  1.0342  0.7426
 9710TIP3    H250546   0.201   4.563  11.719  1.1269 -0.4537 -0.4162
 9711TIP3   OH250547   0.490   5.795  13.230  0.0891 -0.4840  0.0561
 9711TIP3    H150548   0.481   5.800  13.135  0.1104  0.6031  0.0901
 9711TIP3    H250549   0.476   5.885  13.260 -3.8720 -1.3492  1.4541
 9712TIP3   OH250550   2.561   2.705  10.710 -0.2850 -0.8017 -0.2850
 9712TIP3    H150551   2.588   2.747  10.628 -4.0541  0.0897 -1.3155
 9712TIP3    H250552   2.627   2.637  10.726  2.3160  1.0526 -2.2891
 9713TIP3   OH250553   6.258   2.713   1.965 -0.3086  0.0544  0.5512
 9713TIP3    H150554   6.320   2.678   2.030 -0.8180  0.9733  1.5675
 9713TIP3    H250555   6.173   2.710   2.010 -1.2241 -2.0554 -1.1203
 9714TIP3   OH250556   5.615   6.588  10.967  0.3098 -0.4732  0.1407
 9714TIP3    H150557   5.628   6.639  10.887  1.0207 -1.5263 -0.4370
 9714TIP3    H250558   5.558   6.516  10.941 -3.6349  1.7291  1.6897
 9715TIP3   OH250559   2.974   0.720  12.078 -0.3039  0.0115  0.1356
 9715TIP3    H150560   3.005   0.774  12.005  0.1491  0.3335  0.5622
 9715TIP3    H250561   3.022   0.753  12.154 -2.0224  0.8317  0.9034
 9716TIP3   OH250562   3.790   3.995  11.109  0.0649 -0.1544 -0.6429
 9716TIP3    H150563   3.788   4.090  11.121  1.3114 -0.1704 -0.1826
 9716TIP3    H250564   3.712   3.964  11.156  0.1153  0.5724 -0.0520
 9717TIP3   OH250565   2.115   2.993  11.610  0.6772 -0.0710 -0.0246
 9717TIP3    H150566   2.097   3.044  11.530  0.7682 -0.4706 -0.3017
 9717TIP3    H250567   2.158   2.914  11.579 -0.9341 -1.0996  0.2420
 9718TIP3   OH250568   2.920   6.232  12.262 -0.0264 -0.0066 -0.3318
 9718TIP3    H150569   2.842   6.245  12.315 -0.2335  2.4728 -1.1045
 9718TIP3    H250570   2.889   6.244  12.172  0.9989 -0.3192 -0.7319
 9719TIP3   OH250571   1.908   1.710  12.290 -0.3941 -0.1582 -0.2807
 9719TIP3    H150572   1.861   1.643  12.240 -2.2272  0.3411  0.6935
 9719TIP3    H250573   1.904   1.680  12.381 -0.3807  0.7717  0.0385
 9720TIP3   OH250574   0.933   1.544  16.269  0.1512  0.1294  0.0428
 9720TIP3    H150575   0.989   1.497  16.330  0.2011 -1.4563 -1.1465
 9720TIP3    H250576   0.993   1.580  16.204  0.1179  1.9600  0.9672
 9721TIP3   OH250577   0.128   0.433  10.465 -0.1383  0.0126 -0.3049
 9721TIP3    H150578   0.165   0.507  10.513 -0.6289 -0.4097  0.7597
 9721TIP3    H250579   0.191   0.362  10.478  0.1093  0.1027 -0.9500
 9722TIP3   OH250580   4.891   4.515  11.352 -0.3052  0.1113 -0.3018
 9722TIP3    H150581   4.954   4.451  11.320 -1.4084 -0.7011 -0.9116
 9722TIP3    H250582   4.875   4.573  11.277 -0.7600 -0.0772 -0.3554
 9723TIP3   OH250583   2.899   5.069   1.165  0.3253 -0.1835  0.3797
 9723TIP3    H150584   2.925   4.979   1.145 -1.4568 -1.2826  2.5108
 9723TIP3    H250585   2.803   5.067   1.164  0.2431  1.7340  0.3693
 9724TIP3   OH250586   3.971   5.153  13.811  0.5520  0.7038  0.2051
 9724TIP3    H150587   3.945   5.210  13.739 -1.0307  0.8917  0.8970
 9724TIP3    H250588   3.958   5.064  13.777 -0.7128  0.7910  0.4061
 9725TIP3   OH250589   4.903   5.630  11.862  0.5190 -0.5969 -0.0914
 9725TIP3    H150590   4.908   5.706  11.804 -0.2442 -1.0974 -0.8338
 9725TIP3    H250591   4.993   5.598  11.867  0.5556 -0.6987 -1.2213
 9726TIP3   OH250592   3.079   5.612  15.825  0.8707 -0.1644 -0.3550
 9726TIP3    H150593   3.171   5.587  15.821  0.7616 -0.4660 -1.5827
 9726TIP3    H250594   3.052   5.595  15.915  2.0599  0.1091  0.0629
 9727TIP3   OH250595   5.426   1.437   0.893  0.1531  0.7067 -0.3176
 9727TIP3    H150596   5.496   1.425   0.958 -0.5982  0.0474  0.3886
 9727TIP3    H250597   5.380   1.515   0.922  0.6855  1.2406 -0.8803
 9728TIP3   OH250598   1.410   3.758   2.293  0.2539 -0.1898 -0.6240
 9728TIP3    H150599   1.358   3.800   2.226  1.0504 -0.4397 -1.4164
 9728TIP3    H250600   1.346   3.720   2.353 -0.5264  2.6319  0.5009
 9729TIP3   OH250601   2.508   5.584  15.252 -0.3119 -0.5895  0.1218
 9729TIP3    H150602   2.550   5.642  15.188  1.9394 -0.8749  1.2459
 9729TIP3    H250603   2.435   5.545  15.204 -0.3942  1.2668 -1.4091
 9730TIP3   OH250604   5.940   5.089  12.148  0.2586  0.1171 -0.2554
 9730TIP3    H150605   5.938   4.994  12.144 -0.0274  0.0999  0.1710
 9730TIP3    H250606   6.018   5.109  12.200 -1.4289 -0.0239  2.5533
 9731TIP3   OH250607   0.150   3.236   0.906  0.0122 -0.4204  0.0827
 9731TIP3    H150608   0.246   3.240   0.906  0.0026  2.2707 -0.6638
 9731TIP3    H250609   0.126   3.239   0.998  0.6930  0.7315  0.2552
 9732TIP3   OH250610   4.933   3.427   1.804  0.5635 -0.0988  0.0748
 9732TIP3    H150611   4.894   3.351   1.848  0.4399  0.6612  1.3289
 9732TIP3    H250612   4.949   3.490   1.875 -0.8851  1.7208 -1.1318
 9733TIP3   OH250613   0.797   6.297   2.181 -0.5966  0.8610 -0.1027
 9733TIP3    H150614   0.836   6.219   2.218 -1.8501  0.4167  0.3439
 9733TIP3    H250615   0.827   6.298   2.090  0.9476  0.9127  0.3851
 9734TIP3   OH250616   2.853   4.203  11.900 -0.2729 -0.0868 -0.0899
 9734TIP3    H150617   2.892   4.150  11.830 -1.6947 -1.9871  0.4713
 9734TIP3    H250618   2.793   4.143  11.945 -0.8454  1.6181  1.5530
 9735TIP3   OH250619   0.333   1.223   2.966  0.4955  0.3507  0.0228
 9735TIP3    H150620   0.389   1.184   3.033  0.1263 -1.1113 -0.4675
 9735TIP3    H250621   0.307   1.149   2.911  1.1577  1.5732 -2.0166
 9736TIP3   OH250622   5.922   5.087   2.838 -0.0833  0.2009 -0.1176
 9736TIP3    H150623   5.940   5.180   2.829  0.9117 -0.2159 -5.1265
 9736TIP3    H250624   5.830   5.077   2.812  0.1602 -0.2945 -0.8214
 9737TIP3   OH250625   3.321   0.243   4.245 -0.5344 -0.6394 -0.1974
 9737TIP3    H150626   3.272   0.315   4.205 -0.3231 -1.1672 -1.4593
 9737TIP3    H250627   3.255   0.194   4.295 -0.9256 -0.2867 -0.3620
 9738TIP3   OH250628   4.668   4.458  11.517 -0.7834 -0.0850  0.3260
 9738TIP3    H150629   4.741   4.482  11.460 -2.0062  0.0977 -1.2487
 9738TIP3    H250630   4.645   4.539  11.561 -0.6111  0.0743  0.1292
 9739TIP3   OH250631   1.555   4.831  12.703  0.4358 -0.1072  0.2171
 9739TIP3    H150632   1.645   4.810  12.678 -0.1414 -2.5197 -0.1367
 9739TIP3    H250633   1.552   4.817  12.797  0.9313  2.2358  0.6395
 9740TIP3   OH250634   0.194   1.191  13.679 -0.0492  0.2181  0.6440
 9740TIP3    H150635   0.221   1.122  13.740  0.7213  0.2581  0.3641
 9740TIP3    H250636   0.113   1.160  13.640  0.0826 -0.3454  0.8215
 9741TIP3   OH250637   2.498   3.789  12.966 -0.3294 -0.3042 -0.1813
 9741TIP3    H150638   2.442   3.730  12.917  0.9394 -1.2235 -0.5587
 9741TIP3    H250639   2.471   3.877  12.938 -1.8953 -0.6962  0.0231
 9742TIP3   OH250640   4.791   0.608   0.438  0.1754 -0.1901  0.6596
 9742TIP3    H150641   4.732   0.538   0.410 -0.1175  0.0045  0.7855
 9742TIP3    H250642   4.857   0.564   0.492 -0.4425 -0.2609  1.3741
 9743TIP3   OH250643   6.041   5.224   1.835  0.3954 -0.3597  0.3395
 9743TIP3    H150644   6.104   5.212   1.907 -0.1473 -0.4399  0.8077
 9743TIP3    H250645   5.956   5.210   1.876 -0.1822  2.7713  0.4088
 9744TIP3   OH250646   3.556   4.698  15.218 -0.3695 -0.1491  0.1950
 9744TIP3    H150647   3.495   4.624  15.225  0.8749 -1.1743  0.4335
 9744TIP3    H250648   3.642   4.658  15.212  0.3619  1.2993  0.6349
 9745TIP3   OH250649   4.822   3.746   0.134  0.0032  0.1224 -0.2308
 9745TIP3    H150650   4.876   3.825   0.136 -0.0439  0.1475  0.4585
 9745TIP3    H250651   4.861   3.692   0.065  0.7043  0.2877  0.0228
 9746TIP3   OH250652   1.351   0.314   1.384  0.4392 -0.4103  0.2550
 9746TIP3    H150653   1.403   0.394   1.397  1.7643 -1.1132 -0.5066
 9746TIP3    H250654   1.409   0.255   1.336 -0.5009 -1.8672  0.8399
 9747TIP3   OH250655   0.010   4.851   2.428  0.1921  0.3696 -0.6527
 9747TIP3    H150656  -0.011   4.811   2.344 -1.8029  0.5733 -0.3081
 9747TIP3    H250657   0.105   4.851   2.432  0.3042 -0.7316 -2.3782
 9748TIP3   OH250658   5.122   1.088   1.174  0.0780  0.9461  0.1622
 9748TIP3    H150659   5.142   1.008   1.124 -0.3203 -0.7895  2.6111
 9748TIP3    H250660   5.085   1.148   1.109  0.6209 -0.7350 -1.8286
 9749TIP3   OH250661   5.790   4.051   0.151  0.3426  0.2395 -0.0461
 9749TIP3    H150662   5.770   4.145   0.153  2.5598  0.7576  0.5488
 9749TIP3    H250663   5.859   4.043   0.085  0.4719 -0.9106  0.2086
 9750TIP3   OH250664   1.226   3.705  12.155  0.1998 -0.1917 -0.1063
 9750TIP3    H150665   1.287   3.701  12.229  0.2549 -1.2783 -0.2020
 9750TIP3    H250666   1.275   3.668  12.082  0.5702  1.9263 -1.0230
 9751TIP3   OH250667   5.930   0.682   1.822  0.2678 -0.4147 -0.5672
 9751TIP3    H150668   5.851   0.710   1.777 -0.6666  0.6308  1.5860
 9751TIP3    H250669   5.953   0.598   1.782 -0.8310  0.1706 -2.5078
 9752TIP3   OH250670   0.067   3.987  12.874  0.3682  0.1330  0.3805
 9752TIP3    H150671   0.013   3.970  12.797  1.2496 -2.7243  0.2822
 9752TIP3    H250672   0.009   4.035  12.934 -1.1496  0.1612 -1.0440
 9753TIP3   OH250673   3.221   2.426   3.693 -0.1902 -0.0192  0.3096
 9753TIP3    H150674   3.157   2.424   3.764  0.4930 -1.6366  0.9411
 9753TIP3    H250675   3.275   2.503   3.711  0.0367 -0.4665  1.6231
 9754TIP3   OH250676   4.312   5.359   3.095 -0.4673 -0.0984 -0.0171
 9754TIP3    H150677   4.218   5.349   3.112 -0.5541  1.4812  0.5831
 9754TIP3    H250678   4.320   5.347   3.001 -1.2491 -0.4219 -0.0567
 9755TIP3   OH250679   0.742   3.601  16.844  0.0939  0.2132  0.2783
 9755TIP3    H150680   0.653   3.627  16.868 -0.2882  0.3862 -1.2184
 9755TIP3    H250681   0.772   3.670  16.785  1.8701  1.0015  2.0122
 9756TIP3   OH250682   0.736   0.137  13.862 -0.0337 -0.2706  0.3386
 9756TIP3    H150683   0.701   0.125  13.950  1.1921  0.2236  0.9155
 9756TIP3    H250684   0.678   0.203  13.822  0.1169  0.4039  1.2079
 9757TIP3   OH250685   0.867   3.389  11.695 -0.2810 -0.3137 -0.1624
 9757TIP3    H150686   0.881   3.407  11.602 -0.3530  1.0533  0.0681
 9757TIP3    H250687   0.927   3.449  11.740  0.0015 -1.2045  0.6737
 9758TIP3   OH250688   6.277   2.911  16.849 -0.3719  0.6408  0.4562
 9758TIP3    H150689   6.283   2.988  16.792 -1.3485  1.0785  0.9212
 9758TIP3    H250690   6.343   2.851  16.814 -0.0603  1.4103 -0.3363
 9759TIP3   OH250691   5.434   2.111  17.161 -0.2758 -0.4391 -0.5543
 9759TIP3    H150692   5.513   2.070  17.197 -0.1776 -1.7881 -2.1833
 9759TIP3    H250693   5.362   2.070  17.208 -0.0626  0.3215  0.4770
 9760TIP3   OH250694   3.142   2.754  14.521  0.2109 -0.2723  0.0420
 9760TIP3    H150695   3.059   2.738  14.565  0.4484 -0.0811  0.5707
 9760TIP3    H250696   3.178   2.832  14.564  1.2878 -1.1233  0.7588
 9761TIP3   OH250697   3.095   2.114   2.142 -0.4244  0.6667  0.1127
 9761TIP3    H150698   3.150   2.165   2.084 -0.9855 -0.0959 -1.1324
 9761TIP3    H250699   3.135   2.027   2.143 -0.4545  0.6530  0.8342
 9762TIP3   OH250700   5.085   2.958  16.626 -0.1401  0.2745  0.3270
 9762TIP3    H150701   5.062   3.050  16.639  2.3253  0.8341  1.2743
 9762TIP3    H250702   5.099   2.924  16.714  1.1348 -0.3805 -0.1135
 9763TIP3   OH250703   0.654   6.239  15.396  0.0768  0.2804 -0.2010
 9763TIP3    H150704   0.720   6.261  15.329  0.7415  0.8916  0.6316
 9763TIP3    H250705   0.670   6.302  15.466 -0.1699 -0.7736  0.8321
 9764TIP3   OH250706   3.883   2.873  15.523 -0.0852 -0.0455  0.1997
 9764TIP3    H150707   3.938   2.901  15.596  1.4875 -1.1514 -0.5148
 9764TIP3    H250708   3.928   2.797  15.486 -0.9195  0.3759 -1.8286
 9765TIP3   OH250709   2.509   6.414  14.325 -0.3365 -0.4278 -0.1766
 9765TIP3    H150710   2.547   6.347  14.381  0.2066 -1.0573 -1.2658
 9765TIP3    H250711   2.527   6.384  14.235 -0.7159  0.8042 -0.6913
 9766TIP3   OH250712   4.884   0.436   2.470  0.4330 -0.1447 -0.3135
 9766TIP3    H150713   4.856   0.454   2.560 -0.5773 -0.5628 -0.5334
 9766TIP3    H250714   4.835   0.358   2.444  1.0262 -0.2764 -1.0910
 9767TIP3   OH250715   3.256   0.900  15.430 -0.1606  0.5809 -0.7144
 9767TIP3    H150716   3.244   0.865  15.518  2.0168  0.6603 -0.3209
 9767TIP3    H250717   3.194   0.852  15.376 -1.0286  0.0219  0.7355
 9768TIP3   OH250718   2.030   2.813  15.100 -0.0541 -0.0527 -0.1982
 9768TIP3    H150719   2.091   2.746  15.068 -0.3303  0.2762 -1.4802
 9768TIP3    H250720   2.062   2.895  15.063  0.1612  0.5279  1.1942
 9769TIP3   OH250721   0.187   3.791  11.000 -0.0622  0.0363 -0.0391
 9769TIP3    H150722   0.156   3.706  11.033 -1.5922  0.8676  0.7834
 9769TIP3    H250723   0.239   3.769  10.923 -0.4435 -1.6488  0.1408
 9770TIP3   OH250724   5.471   2.862   1.893  0.3958  0.0834 -0.4776
 9770TIP3    H150725   5.409   2.816   1.950  0.9623 -2.7207 -1.9545
 9770TIP3    H250726   5.416   2.897   1.822  0.0842  0.8757  0.1377
 9771TIP3   OH250727   3.884   2.104  16.352 -0.0436  0.2503  0.0652
 9771TIP3    H150728   3.960   2.060  16.390 -0.3900 -1.1024 -0.7089
 9771TIP3    H250729   3.863   2.051  16.274 -1.4914  0.8619  0.0087
 9772TIP3   OH250730   6.161   5.670   4.408  0.3949  0.3879 -0.2347
 9772TIP3    H150731   6.078   5.633   4.441  0.3787  2.0700  1.7886
 9772TIP3    H250732   6.146   5.681   4.314 -1.6996  0.6422  0.0691
 9773TIP3   OH250733   6.188   2.864  14.068  0.2610 -0.5506 -0.1509
 9773TIP3    H150734   6.132   2.789  14.089 -1.1225  0.6887  0.7770
 9773TIP3    H250735   6.190   2.867  13.973 -3.6501  0.9545 -0.3648
 9774TIP3   OH250736   1.882   4.032  14.133 -0.0306  0.0393 -0.1665
 9774TIP3    H150737   1.856   3.943  14.109 -0.1426 -0.0158  0.1653
 9774TIP3    H250738   1.978   4.031  14.125 -0.0715  0.0579 -0.7334
 9775TIP3   OH250739   0.151   4.190   0.688 -0.4339  0.1765 -0.0090
 9775TIP3    H150740   0.154   4.235   0.772  3.5645 -0.5772  0.4679
 9775TIP3    H250741   0.179   4.100   0.707 -1.7200 -0.6894 -1.8488
 9776TIP3   OH250742   6.325   2.877  11.309  0.1348  0.2125 -0.3071
 9776TIP3    H150743   6.288   2.816  11.246  2.0391 -0.5121 -0.7996
 9776TIP3    H250744   6.289   2.849  11.393  0.7845 -1.4758 -0.5588
 9777TIP3   OH250745   4.057   4.777  16.634 -0.0223  0.3989  0.6511
 9777TIP3    H150746   4.093   4.852  16.586 -2.7458  1.0219 -0.6647
 9777TIP3    H250747   4.064   4.704  16.573 -1.5308  0.7013  0.0639
 9778TIP3   OH250748   5.108   4.919   4.990 -0.1100  0.1433  0.1029
 9778TIP3    H150749   5.181   4.908   5.051  0.3687 -0.2779 -0.5274
 9778TIP3    H250750   5.036   4.870   5.029  0.2018 -0.1477  0.3133
 9779TIP3   OH250751   2.306   6.288  16.387  0.1526  0.2515  0.1506
 9779TIP3    H150752   2.261   6.331  16.313 -2.2673 -0.7253  0.9541
 9779TIP3    H250753   2.299   6.352  16.458  2.8248  1.3547 -0.4677
 9780TIP3   OH250754   0.416   5.989  14.773  0.4348  0.3806 -0.4239
 9780TIP3    H150755   0.447   5.899  14.766 -0.4340 -0.0325  0.6431
 9780TIP3    H250756   0.427   6.012  14.865  0.4573  1.3015 -0.6396
 9781TIP3   OH250757   1.435   2.084  15.325  0.6343  0.1135 -0.0803
 9781TIP3    H150758   1.486   2.031  15.263  0.4651 -1.1233  0.7923
 9781TIP3    H250759   1.501   2.135  15.372  1.1238 -1.4254  0.9920
 9782TIP3   OH250760   4.169   3.368  10.954 -0.2001 -0.0282  0.0455
 9782TIP3    H150761   4.208   3.444  10.997  0.1236 -0.1827  0.0286
 9782TIP3    H250762   4.109   3.404  10.889 -0.2363  0.2095  0.2092
 9783TIP3   OH250763   4.809   2.545  11.973 -0.1697  0.1846  0.2857
 9783TIP3    H150764   4.874   2.478  11.953  0.3723  0.7614  0.0972
 9783TIP3    H250765   4.842   2.624  11.931 -0.6417  0.6524  0.7798
 9784TIP3   OH250766   0.193   3.791  14.565 -0.9038 -0.2447  0.5713
 9784TIP3    H150767   0.133   3.727  14.602  0.2222 -0.9459  1.2423
 9784TIP3    H250768   0.231   3.836  14.641  0.5127 -0.8525  0.2683
 9785TIP3   OH250769   0.021   0.888  11.552 -0.6709 -0.5105  0.2640
 9785TIP3    H150770   0.095   0.827  11.561 -0.3215  0.1112  1.9787
 9785TIP3    H250771   0.007   0.894  11.457  0.1000 -2.2630 -0.0143
 9786TIP3   OH250772   0.261   2.721  15.905  0.4004 -0.1454 -0.3299
 9786TIP3    H150773   0.217   2.780  15.844 -0.9662 -0.7286  0.0448
 9786TIP3    H250774   0.295   2.651  15.850 -2.6926 -1.8132 -0.3337
 9787TIP3   OH250775   2.466   1.713  11.339 -0.6131  0.3048  0.3815
 9787TIP3    H150776   2.542   1.663  11.311 -0.1070 -0.0609  2.2649
 9787TIP3    H250777   2.393   1.679  11.286  0.2597 -0.3240 -0.4377
 9788TIP3   OH250778   5.183   4.001  13.006  0.3808  0.0555  0.3038
 9788TIP3    H150779   5.096   4.001  13.045 -0.3382  1.1011 -1.1762
 9788TIP3    H250780   5.196   3.911  12.975 -0.5904  0.1131 -0.3037
 9789TIP3   OH250781   6.632   4.186   5.820 -0.0278  0.2573  0.4502
 9789TIP3    H150782   6.571   4.260   5.817 -0.6991 -0.2717  0.7237
 9789TIP3    H250783   6.603   4.129   5.748  1.3538  0.8995 -0.6695
 9790TIP3   OH250784   4.677   3.536   1.749 -0.2017  0.0630  0.4262
 9790TIP3    H150785   4.759   3.491   1.768  0.2376  0.0063 -1.4539
 9790TIP3    H250786   4.610   3.468   1.750 -0.1510  0.0072  1.2879
 9791TIP3   OH250787   0.432   1.036   1.067 -0.0679  0.2351 -0.2599
 9791TIP3    H150788   0.405   1.099   1.000  1.0178  0.2337 -0.7208
 9791TIP3    H250789   0.391   1.066   1.147 -0.0770  1.1650 -0.6040
 9792TIP3   OH250790   1.280   3.041  13.142 -0.1847 -0.1067 -0.3052
 9792TIP3    H150791   1.199   3.034  13.091 -0.9172  1.0052  0.6430
 9792TIP3    H250792   1.329   3.112  13.100 -0.4311  0.2787  0.0482
 9793TIP3   OH250793   6.583   5.013   2.969  0.4329 -0.0509 -0.3936
 9793TIP3    H150794   6.619   5.020   3.058  1.4267  0.8815 -0.8462
 9793TIP3    H250795   6.657   5.033   2.912 -0.2488 -0.4429 -1.4356
 9794TIP3   OH250796   4.465   2.849  15.866 -0.2368  0.3625  0.7449
 9794TIP3    H150797   4.416   2.924  15.900 -0.3568  1.0229 -0.8230
 9794TIP3    H250798   4.520   2.884  15.797  0.8766 -0.7482  1.0227
 9795TIP3   OH250799   1.157   2.254   3.781  0.1138 -0.0908  0.0828
 9795TIP3    H150800   1.112   2.282   3.702  0.5519 -0.9603 -0.4913
 9795TIP3    H250801   1.087   2.230   3.842 -0.2154 -1.3733 -0.7763
 9796TIP3   OH250802   1.737   5.160  12.867  0.1458 -0.4698  0.4486
 9796TIP3    H150803   1.661   5.191  12.915 -1.4135 -2.6505 -0.4587
 9796TIP3    H250804   1.805   5.148  12.934 -0.2497  1.4490  1.2746
 9797TIP3   OH250805   1.430   0.017  15.338  0.9221  0.0078  0.2756
 9797TIP3    H150806   1.495   0.007  15.268 -0.2599 -1.9556 -0.6234
 9797TIP3    H250807   1.473   0.074  15.402  3.0110 -0.1441 -0.8869
 9798TIP3   OH250808   3.732   2.444   0.616 -0.2118  0.1896 -0.0033
 9798TIP3    H150809   3.676   2.477   0.686 -1.1269  0.9358 -1.0571
 9798TIP3    H250810   3.703   2.491   0.538  1.1268 -0.2467 -0.7959
 9799TIP3   OH250811   1.589   3.534  15.880  0.0856  0.4016  0.4150
 9799TIP3    H150812   1.523   3.534  15.810  1.2847 -0.6773 -0.7696
 9799TIP3    H250813   1.645   3.609  15.859  0.6904 -0.1663 -0.0581
 9800TIP3   OH250814   0.614   4.376  12.834 -0.2576  0.3581 -0.0042
 9800TIP3    H150815   0.532   4.375  12.883  0.6619  0.3162  1.5725
 9800TIP3    H250816   0.592   4.334  12.750 -1.6943 -0.1760  0.6075
 9801TIP3   OH250817   5.883   1.340   3.126 -0.2199  0.4137  0.0257
 9801TIP3    H150818   5.972   1.371   3.142 -0.0451 -1.1317  2.5189
 9801TIP3    H250819   5.831   1.419   3.113  0.9160  1.5327  1.9910
 9802TIP3   OH250820   3.291   2.604   2.554  0.8988 -0.4640 -0.1690
 9802TIP3    H150821   3.363   2.606   2.616  0.1760  1.2123  0.7074
 9802TIP3    H250822   3.228   2.542   2.591  1.9810 -2.1909 -1.1124
 9803TIP3   OH250823   5.156   4.780  16.713 -0.1068 -0.6702 -0.5184
 9803TIP3    H150824   5.244   4.808  16.688 -0.3764 -0.1151 -0.8582
 9803TIP3    H250825   5.123   4.735  16.635  0.7278 -2.9699  0.3681
 9804TIP3   OH250826   4.844   5.517   5.208  0.4561 -0.3641  0.1502
 9804TIP3    H150827   4.880   5.505   5.296  1.3015 -0.6743 -0.2378
 9804TIP3    H250828   4.906   5.474   5.150  0.0665  0.1210 -0.6362
 9805TIP3   OH250829   5.481   2.484  13.152  0.0955 -0.0516  0.0410
 9805TIP3    H150830   5.405   2.535  13.126  1.1771  1.8083  0.3191
 9805TIP3    H250831   5.519   2.533  13.226  1.6417 -0.8155 -0.1920
 9806TIP3   OH250832   1.891   5.434   2.488  0.0236 -0.2380 -0.2137
 9806TIP3    H150833   1.855   5.358   2.443 -0.5043 -0.2783  0.2714
 9806TIP3    H250834   1.870   5.419   2.580 -0.2040  0.5660 -0.1337
 9807TIP3   OH250835   2.702   1.612   5.306 -0.4346  0.2423 -0.3315
 9807TIP3    H150836   2.653   1.679   5.258 -0.7299 -1.2840 -2.3216
 9807TIP3    H250837   2.683   1.628   5.398 -2.1601  1.6003 -0.8795
 9808TIP3   OH250838   6.664   2.992  16.889 -0.5130  0.3005 -0.1088
 9808TIP3    H150839   6.578   2.951  16.905  0.6097 -2.5950 -0.9001
 9808TIP3    H250840   6.726   2.935  16.934  1.1138  1.7263 -0.4668
 9809TIP3   OH250841   3.873   2.020   3.806 -0.1074 -0.0086  0.2792
 9809TIP3    H150842   3.795   2.051   3.760  1.3097  2.5175 -0.6437
 9809TIP3    H250843   3.888   2.087   3.873  0.1825 -1.5232  1.7887
 9810TIP3   OH250844   2.320   5.629   3.889 -0.4684  0.0132  0.0353
 9810TIP3    H150845   2.273   5.700   3.845 -1.4584 -1.1734 -0.8900
 9810TIP3    H250846   2.264   5.553   3.878  1.0561 -1.1663  0.0956
 9811TIP3   OH250847   1.785   5.130  15.145  0.7159 -0.0781 -0.1344
 9811TIP3    H150848   1.782   5.035  15.139 -0.1787 -0.1906  1.4583
 9811TIP3    H250849   1.861   5.149  15.200 -0.5366 -0.0862  1.7351
 9812TIP3   OH250850   2.482   3.920  16.038  0.2132  0.3470 -0.2696
 9812TIP3    H150851   2.566   3.964  16.023  0.1662  0.3699 -0.4651
 9812TIP3    H250852   2.422   3.990  16.063  0.0739  0.4291 -0.8390
 9813TIP3   OH250853   1.774   2.489   2.585 -0.8750 -0.1966 -0.3008
 9813TIP3    H150854   1.696   2.489   2.640 -1.0732 -0.4266 -0.5759
 9813TIP3    H250855   1.812   2.402   2.598 -0.6648 -0.0862 -0.1699
 9814TIP3   OH250856   3.877   3.107  11.085 -0.4901 -0.3394  0.1120
 9814TIP3    H150857   3.940   3.037  11.068  1.9632  1.0680  2.6133
 9814TIP3    H250858   3.832   3.081  11.165  0.5920  0.9602  1.1835
 9815TIP3   OH250859   4.246   6.203  15.338 -0.0524  0.1567  0.1209
 9815TIP3    H150860   4.287   6.172  15.258  2.1679  0.4986  1.0672
 9815TIP3    H250861   4.167   6.148  15.347  1.0498 -1.6902 -0.9131
 9816TIP3   OH250862   5.532   4.506  13.856  0.9356  0.8177 -0.4451
 9816TIP3    H150863   5.502   4.430  13.905  3.0145  0.0933 -0.1622
 9816TIP3    H250864   5.508   4.487  13.766 -0.0477  0.6227 -0.1516
 9817TIP3   OH250865   1.220   1.520   5.889 -0.1667  0.1879 -0.1000
 9817TIP3    H150866   1.166   1.564   5.954 -0.8871 -1.6484  0.6073
 9817TIP3    H250867   1.307   1.517   5.928 -0.7232 -1.4498  1.1287
 9818TIP3   OH250868   1.480   4.518   0.367 -0.1720 -0.1542 -0.2556
 9818TIP3    H150869   1.554   4.540   0.423 -0.5078 -0.5641  0.3526
 9818TIP3    H250870   1.413   4.583   0.387 -0.1961 -0.1394 -0.3790
 9819TIP3   OH250871   1.407   6.024   4.878 -0.2147  0.3353 -0.5792
 9819TIP3    H150872   1.416   5.975   4.960  0.2639 -1.1026 -1.4607
 9819TIP3    H250873   1.382   5.959   4.813 -1.7216  1.6369 -1.3857
 9820TIP3   OH250874   5.180   4.449   2.369  0.2024  0.3118  0.0446
 9820TIP3    H150875   5.274   4.433   2.376  0.0074 -0.5139  1.0096
 9820TIP3    H250876   5.146   4.374   2.321 -0.5193 -1.7473  3.3942
 9821TIP3   OH250877   0.258   4.137   0.445  0.1029 -0.3147  0.5043
 9821TIP3    H150878   0.204   4.160   0.520 -0.9334  0.8422 -0.5570
 9821TIP3    H250879   0.307   4.060   0.473 -0.3956 -0.0197  2.2876
 9822TIP3   OH250880   5.249   6.764   2.552  0.0594 -0.2785 -0.6825
 9822TIP3    H150881   5.328   6.802   2.512 -0.6651  1.8271 -0.2335
 9822TIP3    H250882   5.180   6.779   2.488 -0.8466  1.9678  0.6909
 9823TIP3   OH250883   6.350   3.059   5.317 -0.2480  0.1064  0.1003
 9823TIP3    H150884   6.385   2.973   5.294 -0.5343 -0.4133  1.4862
 9823TIP3    H250885   6.276   3.071   5.257  0.9598  0.2734 -1.4130
 9824TIP3   OH250886   6.040   1.721   4.175  0.5631 -0.2664 -0.5875
 9824TIP3    H150887   6.098   1.761   4.240  1.1261  1.0523 -1.8301
 9824TIP3    H250888   6.076   1.633   4.162  0.9266 -0.2581  0.2907
 9825TIP3   OH250889   1.355   4.647  11.289  0.2676  0.0878  0.2138
 9825TIP3    H150890   1.397   4.561  11.288  1.1017  0.4538 -1.9567
 9825TIP3    H250891   1.263   4.629  11.270  0.1476 -0.3972  1.1566
 9826TIP3   OH250892   3.807   1.155  12.098 -0.1007 -0.5552  0.1612
 9826TIP3    H150893   3.893   1.177  12.062 -0.1496  0.2073  0.4903
 9826TIP3    H250894   3.773   1.088  12.038 -0.6087  1.3939 -1.8728
 9827TIP3   OH250895   1.137   1.523   3.869 -0.5621 -0.0054 -0.4597
 9827TIP3    H150896   1.066   1.586   3.857 -0.4583  0.2841  0.4064
 9827TIP3    H250897   1.123   1.486   3.956 -1.4083 -2.1985 -1.4449
 9828TIP3   OH250898   1.439   6.449   1.341  0.1975 -0.2752  0.2038
 9828TIP3    H150899   1.477   6.393   1.409  1.7276  2.2854  1.6158
 9828TIP3    H250900   1.476   6.416   1.259  0.6394 -1.6024  0.9021
 9829TIP3   OH250901   2.349   1.804   2.757 -0.2294 -0.7096  0.6157
 9829TIP3    H150902   2.298   1.767   2.829 -0.9320  1.3904  1.3002
 9829TIP3    H250903   2.326   1.897   2.758 -0.9845 -0.7349 -2.9562
 9830TIP3   OH250904   0.258   4.072  16.063  0.6228  0.4435  0.0004
 9830TIP3    H150905   0.167   4.093  16.085  0.3335  1.0320 -1.6064
 9830TIP3    H250906   0.310   4.119  16.128 -0.2083 -1.0290  1.8152
 9831TIP3   OH250907   2.926   0.033  12.838  0.4769 -0.5593 -0.0078
 9831TIP3    H150908   2.975   0.079  12.770 -0.7154 -0.9744 -1.1832
 9831TIP3    H250909   2.943  -0.060  12.821  1.5722 -0.6438  1.3625
 9832TIP3   OH250910   6.770   3.969   4.797  0.4074 -0.1879 -0.1070
 9832TIP3    H150911   6.823   3.924   4.864  0.1832  0.5848  0.6064
 9832TIP3    H250912   6.684   3.979   4.838  0.4041  0.7340 -0.3194
 9833TIP3   OH250913   6.512   5.140   2.126  0.7808  0.1373 -0.5907
 9833TIP3    H150914   6.522   5.171   2.216 -0.6599 -0.8929 -0.0277
 9833TIP3    H250915   6.466   5.210   2.080 -0.0005 -0.0149 -0.0572
 9834TIP3   OH250916   2.534   4.016  16.692 -0.2116  0.1586 -0.0320
 9834TIP3    H150917   2.590   4.085  16.727  0.8449 -0.1755 -1.0468
 9834TIP3    H250918   2.591   3.963  16.637 -1.3799 -0.5740 -0.5771
 9835TIP3   OH250919   0.033   1.339  13.879 -0.2631  0.5686  0.0373
 9835TIP3    H150920  -0.009   1.362  13.796 -0.2543 -1.9204 -0.7340
 9835TIP3    H250921   0.054   1.246  13.870 -0.0142  0.3011  2.7526
 9836TIP3   OH250922   1.088   4.622   3.578 -0.0638 -0.4555  0.2082
 9836TIP3    H150923   1.154   4.688   3.559  0.5057 -0.6554  1.4305
 9836TIP3    H250924   1.133   4.538   3.567 -0.7769 -0.6774 -1.3259
 9837TIP3   OH250925   4.324   0.181   5.538  0.3051 -0.4731 -0.1955
 9837TIP3    H150926   4.310   0.202   5.630 -2.1031 -1.6135 -0.2377
 9837TIP3    H250927   4.263   0.238   5.491  0.0772 -1.2968 -0.9196
 9838TIP3   OH250928   4.322   1.525   3.760 -0.7881 -0.3662 -0.2724
 9838TIP3    H150929   4.395   1.574   3.799 -2.1612  0.3376  1.5415
 9838TIP3    H250930   4.351   1.434   3.761 -0.6675 -0.3687  2.3162
 9839TIP3   OH250931   4.241   5.842  12.375  0.6355 -0.7444  0.2062
 9839TIP3    H150932   4.238   5.861  12.469  1.1465 -0.0948  0.0946
 9839TIP3    H250933   4.321   5.884  12.344  1.4711 -2.5329 -0.1885
 9840TIP3   OH250934   3.832   0.090  12.768  0.0538 -0.3633 -0.0010
 9840TIP3    H150935   3.838   0.156  12.699  1.8779  0.4984  0.9121
 9840TIP3    H250936   3.830   0.006  12.722 -2.8021  0.2259 -1.2149
 9841TIP3   OH250937   3.138   1.420   3.602  0.1966  0.3113 -0.1592
 9841TIP3    H150938   3.187   1.362   3.660  1.0410  0.2360 -0.9281
 9841TIP3    H250939   3.057   1.439   3.650 -0.2546 -1.7408 -0.0130
 9842TIP3   OH250940   4.045   4.582  14.434  0.2874  0.3506 -0.2823
 9842TIP3    H150941   3.973   4.634  14.397  0.5755  1.1685  0.2892
 9842TIP3    H250942   4.110   4.577  14.363  0.0202  0.2931 -0.5243
 9843TIP3   OH250943   3.686   4.539   5.204  0.5532  0.6498 -0.5382
 9843TIP3    H150944   3.717   4.479   5.136 -0.1833 -1.0485  0.5440
 9843TIP3    H250945   3.671   4.622   5.158 -0.5384 -0.5963 -2.5972
 9844TIP3   OH250946   2.667   0.981  10.582 -0.1175 -0.1453  0.4673
 9844TIP3    H150947   2.671   0.889  10.555  1.0524 -0.0761  0.3783
 9844TIP3    H250948   2.588   0.986  10.636 -0.0848 -1.2506  0.6410
 9845TIP3   OH250949   0.139   5.887   2.104 -0.3082  0.3300 -0.0909
 9845TIP3    H150950   0.191   5.867   2.026 -1.3374  0.0377 -0.7190
 9845TIP3    H250951   0.070   5.946   2.072  0.2919  1.6487  0.9487
 9846TIP3   OH250952   1.544   3.749  16.692  0.2487  0.2165  1.0475
 9846TIP3    H150953   1.504   3.663  16.703  2.3384 -1.2161 -1.5171
 9846TIP3    H250954   1.603   3.757  16.767 -0.3171 -0.3691  1.5683
 9847TIP3   OH250955   2.935   2.791  15.989  0.0876  0.1716 -0.0949
 9847TIP3    H150956   2.879   2.721  16.024 -0.2092  0.8971  0.9356
 9847TIP3    H250957   2.873   2.859  15.964  0.4836  0.8995  0.8585
 9848TIP3   OH250958   4.375   2.361   3.454  0.1061  0.1209 -0.1074
 9848TIP3    H150959   4.443   2.300   3.424 -0.4184 -0.8356  0.5825
 9848TIP3    H250960   4.422   2.427   3.505  1.1089  2.1174 -3.3340
 9849TIP3   OH250961   6.175   5.327  15.265 -0.3271  0.0177  0.4162
 9849TIP3    H150962   6.218   5.413  15.266 -1.5697  0.6703  1.7902
 9849TIP3    H250963   6.128   5.325  15.182  0.7768  0.0927 -0.2272
 9850TIP3   OH250964   5.426   2.286   5.550  0.8025 -0.3906  0.4143
 9850TIP3    H150965   5.423   2.200   5.591 -0.9516  0.0175  1.2378
 9850TIP3    H250966   5.342   2.326   5.571 -0.0355  0.0986 -3.1332
 9851TIP3   OH250967   5.104   0.970   2.752 -0.4735  0.0787  0.6485
 9851TIP3    H150968   5.105   1.010   2.665 -3.3040 -0.3077  0.3317
 9851TIP3    H250969   5.012   0.973   2.778 -0.2600 -2.8820  2.1577
 9852TIP3   OH250970   2.458   2.238   1.679 -0.0790  0.7252  0.2665
 9852TIP3    H150971   2.428   2.185   1.606  1.8698  1.0670 -0.8578
 9852TIP3    H250972   2.408   2.319   1.672 -0.2392  0.5719 -0.3973
 9853TIP3   OH250973   6.749   2.593  10.710  0.3700 -0.5901 -0.0897
 9853TIP3    H150974   6.703   2.669  10.746  0.9444  1.0131 -2.4538
 9853TIP3    H250975   6.812   2.568  10.778 -0.2028  0.7265  0.9663
 9854TIP3   OH250976   2.133   5.404   3.809  0.2611  0.5252 -0.2873
 9854TIP3    H150977   2.166   5.320   3.841 -1.2589 -0.1437 -0.3868
 9854TIP3    H250978   2.126   5.393   3.715 -1.8444  0.0067 -0.1159
 9855TIP3   OH250979   2.327   6.113  10.422 -0.1836 -0.1368 -0.2267
 9855TIP3    H150980   2.405   6.076  10.462 -1.3965 -1.5380  0.9589
 9855TIP3    H250981   2.293   6.043  10.367 -0.8307  0.3078 -0.3965
 9856TIP3   OH250982   1.214   2.976  15.651 -0.2942  0.1060 -0.1772
 9856TIP3    H150983   1.251   3.035  15.585  0.0955  0.5599  0.4389
 9856TIP3    H250984   1.278   2.906  15.658  0.4090  0.8209  0.7875
 9857TIP3   OH250985   5.861   0.419   0.683  0.4993 -0.4039  0.2880
 9857TIP3    H150986   5.809   0.386   0.610  0.5129  0.9496 -0.3542
 9857TIP3    H250987   5.817   0.385   0.761 -0.5533 -0.4064 -0.2903
 9858TIP3   OH250988   1.551   0.980   0.080 -0.6095  0.1849  0.8438
 9858TIP3    H150989   1.559   1.075   0.070 -0.9753  0.0936 -0.4488
 9858TIP3    H250990   1.581   0.963   0.169  2.7278  1.1277  0.0347
 9859TIP3   OH250991   0.449   6.652  16.518 -0.2762 -0.4250  0.1455
 9859TIP3    H150992   0.473   6.636  16.427  2.4888  1.0157  0.5132
 9859TIP3    H250993   0.369   6.703  16.513  0.3377  0.4416 -1.5377
 9860TIP3   OH250994   5.574   3.364   1.051 -0.4688  0.1213  0.4096
 9860TIP3    H150995   5.609   3.434   0.997  1.2163 -1.1550 -0.2504
 9860TIP3    H250996   5.480   3.380   1.054 -0.1872  2.0465 -0.2026
 9861TIP3   OH250997   3.570   2.600  16.035  0.2788  0.1346 -0.4318
 9861TIP3    H150998   3.632   2.638  16.097  1.5120  0.3075 -1.7401
 9861TIP3    H250999   3.529   2.528  16.084  0.5957  0.7879  0.8470
 9862TIP3   OH251000   0.652   2.110  15.315  0.0705 -0.0397 -0.3824
 9862TIP3    H151001   0.589   2.103  15.386 -0.9344 -1.5779 -1.3650
 9862TIP3    H251002   0.729   2.062  15.345 -0.4059 -0.8103 -0.3710
 9863TIP3   OH251003   2.217   0.797   3.855 -0.0646  0.0954  0.3595
 9863TIP3    H151004   2.238   0.794   3.948  0.2293 -0.0423  0.2890
 9863TIP3    H251005   2.121   0.806   3.853  0.0667  2.2847  0.7012
 9864TIP3   OH251006   6.756   5.774   4.089  0.1433 -0.8305 -0.2534
 9864TIP3    H151007   6.683   5.739   4.140 -0.0241  1.3234  1.1395
 9864TIP3    H251008   6.716   5.813   4.012 -0.4315  1.3118  1.0260
 9865TIP3   OH251009   4.397   4.195  13.199  0.4222  0.1370 -0.3719
 9865TIP3    H151010   4.419   4.186  13.106  1.2090 -0.8547 -0.1209
 9865TIP3    H251011   4.324   4.135  13.212  0.3901  0.1859 -0.3283
 9866TIP3   OH251012   3.444   3.738  12.930 -0.3502 -0.4350 -0.0047
 9866TIP3    H151013   3.502   3.801  12.887 -0.4560 -1.3632 -1.5778
 9866TIP3    H251014   3.464   3.654  12.887 -1.2538 -1.1940  1.0128
 9867TIP3   OH251015   5.267   4.183   2.987 -0.7747 -0.7598  0.1793
 9867TIP3    H151016   5.203   4.197   2.918 -1.1206 -0.5046  0.5442
 9867TIP3    H251017   5.350   4.170   2.941 -0.9609 -0.3626 -0.2781
 9868TIP3   OH251018   5.997   5.572   0.682  0.0734 -0.1836 -0.7500
 9868TIP3    H151019   6.085   5.577   0.719 -0.2581  0.1056  0.0242
 9868TIP3    H251020   5.982   5.659   0.645  1.0022 -0.9125 -3.0405
 9869TIP3   OH251021   3.812   4.221   1.855 -0.1239  0.5323  0.5052
 9869TIP3    H151022   3.836   4.248   1.766  0.4194  2.1800  1.1261
 9869TIP3    H251023   3.883   4.253   1.910 -0.5035 -0.3930  1.5614
 9870TIP3   OH251024   0.839   4.821   1.477 -0.4942 -0.0082 -0.4848
 9870TIP3    H151025   0.860   4.742   1.527 -0.3134  0.7446  0.6543
 9870TIP3    H251026   0.770   4.793   1.417  1.5369 -1.7741 -2.1951
 9871TIP3   OH251027   5.988   0.774   1.422  0.1519  0.9188 -0.3503
 9871TIP3    H151028   6.080   0.794   1.402  0.2157  1.2926  0.2807
 9871TIP3    H251029   5.990   0.687   1.462  0.2949  1.1157  0.0838
 9872TIP3   OH251030   1.693   5.088   0.269 -0.0548 -0.1061 -0.4933
 9872TIP3    H151031   1.639   5.141   0.211 -2.0902 -0.8842  0.5788
 9872TIP3    H251032   1.704   5.142   0.348  1.1792  0.2254 -0.8608
 9873TIP3   OH251033   6.705   4.844  14.099 -0.1798  0.0986  0.8111
 9873TIP3    H151034   6.666   4.772  14.049  1.8935 -1.5659  1.4475
 9873TIP3    H251035   6.765   4.886  14.038 -1.4501  1.4265  0.4142
 9874TIP3   OH251036   3.674   1.982  11.881 -0.1452 -0.5196  0.4006
 9874TIP3    H151037   3.605   1.934  11.926  0.1904 -0.2503  1.2167
 9874TIP3    H251038   3.756   1.946  11.916  0.1154  0.7052  1.1008
 9875TIP3   OH251039   1.120   4.414  10.573  0.0195  0.3771 -0.0315
 9875TIP3    H151040   1.027   4.437  10.579 -0.2836 -0.7179 -0.2608
 9875TIP3    H251041   1.121   4.318  10.573  1.1589  0.3735  0.0481
 9876TIP3   OH251042   1.802   6.148   1.483  0.1446 -0.1734  0.2903
 9876TIP3    H151043   1.708   6.152   1.461 -0.0680 -2.1085  0.6445
 9876TIP3    H251044   1.842   6.105   1.407  0.4175 -1.0737  0.9251
 9877TIP3   OH251045   3.800   0.234   5.173  0.4523  0.1868  0.5878
 9877TIP3    H151046   3.881   0.232   5.225 -0.1122  0.6284  1.5048
 9877TIP3    H251047   3.766   0.323   5.185  0.4816  0.4007 -0.8222
 9878TIP3   OH251048   1.761   0.172  15.794  0.0659 -0.1217  0.0037
 9878TIP3    H151049   1.788   0.094  15.747 -0.4725 -0.7417  0.6985
 9878TIP3    H251050   1.680   0.200  15.752 -0.0972 -0.3282  0.1804
 9879TIP3   OH251051   5.280   0.938  12.975  0.4292  0.0489 -0.2712
 9879TIP3    H151052   5.266   0.855  13.021 -0.5262  0.9166  1.0664
 9879TIP3    H251053   5.255   0.919  12.885  1.6850 -1.5081 -0.3548
 9880TIP3   OH251054   2.023   1.552   1.142  0.3818  0.1463 -0.1386
 9880TIP3    H151055   2.079   1.474   1.141  0.7385  0.4027 -1.2708
 9880TIP3    H251056   1.975   1.548   1.059 -0.5557  0.4596  0.3750
 9881TIP3   OH251057   6.729   4.425   5.091  0.6499 -0.3854  0.5806
 9881TIP3    H151058   6.679   4.507   5.083  1.9842  0.5783  1.6142
 9881TIP3    H251059   6.694   4.369   5.022  0.3700  1.4193 -0.8292
 9882TIP3   OH251060   6.718   4.488  15.955 -0.5285 -0.0615 -0.1726
 9882TIP3    H151061   6.732   4.408  15.904 -0.8440 -0.1571 -0.1145
 9882TIP3    H251062   6.648   4.464  16.016 -0.3841  0.1553  0.0746
 9883TIP3   OH251063   6.611   5.661   2.756 -0.3885 -0.6271  0.5764
 9883TIP3    H151064   6.666   5.625   2.686  0.9338 -0.1819  1.3389
 9883TIP3    H251065   6.576   5.742   2.720 -2.3590 -1.9808 -0.6953
 9884TIP3   OH251066   2.936   5.691  14.407  0.1416 -0.4352 -0.2895
 9884TIP3    H151067   2.994   5.718  14.478  0.4109 -0.8624 -0.3426
 9884TIP3    H251068   2.848   5.698  14.444  0.2842 -0.7327  0.1203
 9885TIP3   OH251069   6.462   1.000   1.233  0.5133  0.5486 -0.1525
 9885TIP3    H151070   6.414   0.959   1.304  0.6471 -0.6957 -0.7611
 9885TIP3    H251071   6.404   1.070   1.201  0.3435  0.9385  0.9786
 9886TIP3   OH251072   4.388   4.124  16.567 -0.0649  0.0754  0.1812
 9886TIP3    H151073   4.383   4.043  16.617  0.9947  1.2546  2.3132
 9886TIP3    H251074   4.298   4.138  16.537 -0.0468 -2.4824 -1.3467
 9887TIP3   OH251075   4.975   1.649   4.636  0.0217  0.2524  0.0339
 9887TIP3    H151076   4.880   1.646   4.625 -0.2105  1.4347  1.4376
 9887TIP3    H251077   4.990   1.608   4.721  0.4500  2.5668  1.1549
 9888TIP3   OH251078   3.328   3.270  10.536  0.5224 -0.2282 -0.2596
 9888TIP3    H151079   3.397   3.308  10.482 -0.0321  2.0534  0.5224
 9888TIP3    H251080   3.253   3.263  10.478  0.8067 -0.7481 -0.5718
 9889TIP3   OH251081   0.405   0.643  13.874  0.3226 -0.3332 -0.1841
 9889TIP3    H151082   0.410   0.689  13.958  0.6344 -1.3340  0.3563
 9889TIP3    H251083   0.323   0.674  13.835 -0.1040 -0.2757  0.7381
 9890TIP3   OH251084   5.038   6.440  13.810 -0.5702  0.6242  0.0959
 9890TIP3    H151085   4.956   6.488  13.820 -1.3807 -0.6129 -0.3993
 9890TIP3    H251086   5.089   6.465  13.887 -0.8465  2.4443 -0.2692
 9891TIP3   OH251087   6.610   3.297   3.833 -0.1804  0.1303  0.6443
 9891TIP3    H151088   6.530   3.347   3.813 -2.3317 -3.0621  0.5204
 9891TIP3    H251089   6.651   3.282   3.748 -0.6798 -0.0402  0.4261
 9892TIP3   OH251090   0.733   5.561  11.581 -0.3034 -0.1971 -0.3233
 9892TIP3    H151091   0.783   5.642  11.594  0.1244 -0.2473 -1.5634
 9892TIP3    H251092   0.669   5.582  11.514 -1.4073 -0.3895  0.6467
 9893TIP3   OH251093   4.184   5.594   4.388  0.9338 -0.6775 -0.3774
 9893TIP3    H151094   4.230   5.678   4.389  0.2742 -0.2957  1.2232
 9893TIP3    H251095   4.253   5.530   4.370  1.4971  0.1639 -1.3277
 9894TIP3   OH251096   4.321   3.456  15.216 -0.0171 -0.1456  0.6883
 9894TIP3    H151097   4.257   3.466  15.287 -0.6165  0.6083  0.0669
 9894TIP3    H251098   4.400   3.425  15.259 -0.3965  0.2308  1.6841
 9895TIP3   OH251099   3.080   6.348  12.640 -0.2311  0.0203 -0.1298
 9895TIP3    H151100   3.043   6.259  12.642 -0.0354 -0.0958  2.8897
 9895TIP3    H251101   3.003   6.405  12.650 -0.1836  0.1096 -0.2749
 9896TIP3   OH251102   4.481   4.144   5.196 -0.9459 -0.2729 -0.3111
 9896TIP3    H151103   4.570   4.179   5.193  0.7321 -4.0452 -0.6573
 9896TIP3    H251104   4.452   4.159   5.285  0.0675  0.9538 -0.1633
 9897TIP3   OH251105   1.879   5.485  14.217 -0.4672  0.6333 -0.2756
 9897TIP3    H151106   1.830   5.553  14.263  0.1821 -0.5699  2.3679
 9897TIP3    H251107   1.813   5.432  14.172 -1.2304  1.2224  0.1593
 9898TIP3   OH251108   1.991   3.363  13.598 -0.2173  0.7547  0.1560
 9898TIP3    H151109   2.071   3.413  13.608  0.8648 -0.7926 -0.4178
 9898TIP3    H251110   2.019   3.271  13.601 -2.0835  0.1543  0.9164
 9899TIP3   OH251111   4.962   0.388   3.049 -0.1697  0.5087 -0.9834
 9899TIP3    H151112   4.976   0.320   2.984 -1.7605  0.4471 -1.3215
 9899TIP3    H251113   5.022   0.368   3.120  1.3088  0.3351 -2.2406
 9900TIP3   OH251114   4.327   0.215  14.957  0.0285 -0.2498 -0.0364
 9900TIP3    H151115   4.357   0.153  15.024  0.4530 -0.0228 -0.0149
 9900TIP3    H251116   4.306   0.294  15.007 -1.0937 -0.5648  0.0140
 9901TIP3   OH251117   6.253   2.753  15.948  0.3931  0.6309  0.0411
 9901TIP3    H151118   6.164   2.760  15.983  0.9791  1.0476  1.5442
 9901TIP3    H251119   6.263   2.830  15.893 -0.3400  0.2972 -0.5896
 9902TIP3   OH251120   3.338   5.998  16.450 -0.3076  0.1958 -0.2056
 9902TIP3    H151121   3.264   5.939  16.463 -0.2494 -0.3935 -2.1968
 9902TIP3    H251122   3.412   5.953  16.490 -0.6125 -0.2329 -0.1210
 9903TIP3   OH251123   2.901   2.404  12.684 -0.5518  0.6222 -0.0768
 9903TIP3    H151124   2.977   2.345  12.682 -1.1125 -0.1097 -0.9775
 9903TIP3    H251125   2.864   2.392  12.771  1.3417  2.3267  1.0494
 9904TIP3   OH251126   1.842   5.858   6.455  0.4077  0.0402 -0.1173
 9904TIP3    H151127   1.846   5.879   6.548  1.7476 -0.5077 -0.0329
 9904TIP3    H251128   1.901   5.922   6.414  0.2756 -0.0972 -0.5221
 9905TIP3   OH251129   1.170   1.689  12.550 -0.0584  0.0827  0.2647
 9905TIP3    H151130   1.204   1.603  12.524 -0.0954 -0.0526  0.6571
 9905TIP3    H251131   1.083   1.694  12.509 -0.5423 -0.5517  1.1620
 9906TIP3   OH251132   2.276   5.658   3.328 -0.6446  0.1244  0.0711
 9906TIP3    H151133   2.350   5.690   3.277  0.0718  0.6515  1.3867
 9906TIP3    H251134   2.238   5.588   3.276  1.2033 -0.6269 -0.3086
 9907TIP3   OH251135   4.273   3.589   1.359 -0.0740 -0.0311  0.1055
 9907TIP3    H151136   4.318   3.591   1.443 -0.8905 -0.7942  0.5878
 9907TIP3    H251137   4.316   3.656   1.307  0.6940  0.2015  1.0057
 9908TIP3   OH251138   2.678   0.021   6.288  0.2863 -0.7635  0.4079
 9908TIP3    H151139   2.635   0.096   6.328 -1.7477 -1.1712 -0.8367
 9908TIP3    H251140   2.734  -0.015   6.357  0.8033  1.4671  1.2281
 9909TIP3   OH251141   6.052   4.791  13.238 -0.0153  0.7461  0.1180
 9909TIP3    H151142   6.062   4.764  13.146 -3.4523 -1.8961  0.3018
 9909TIP3    H251143   6.004   4.874  13.234  0.0423  0.7543 -0.4711
 9910TIP3   OH251144   2.422   0.946  15.019  0.1340  0.0272  0.1178
 9910TIP3    H151145   2.456   0.866  15.057 -1.0287 -0.6043 -0.1094
 9910TIP3    H251146   2.421   0.929  14.924 -2.2177 -0.6220  0.1839
 9911TIP3   OH251147   5.146   6.584   2.751  0.0892 -0.7365 -0.7228
 9911TIP3    H151148   5.183   6.614   2.834 -0.7556 -0.1037 -0.5578
 9911TIP3    H251149   5.166   6.654   2.689 -0.5617 -0.5254 -0.6987
 9912TIP3   OH251150   6.030   2.075  16.495  0.2315 -0.0813  0.5677
 9912TIP3    H151151   6.049   2.063  16.588  0.9111  1.2237  0.6207
 9912TIP3    H251152   5.964   2.144  16.492  0.1857 -0.1418  0.0977
 9913TIP3   OH251153   3.857   0.636  13.495 -0.1440  0.0780  0.7443
 9913TIP3    H151154   3.892   0.547  13.492 -1.0035 -0.2410 -0.1417
 9913TIP3    H251155   3.762   0.625  13.488 -0.6166  0.8539  4.0976
 9914TIP3   OH251156   0.021   4.585  11.915  0.1865  0.1780 -0.0516
 9914TIP3    H151157   0.008   4.490  11.911 -0.5487  0.3157 -1.2116
 9914TIP3    H251158   0.073   4.606  11.838 -0.8758  0.8931 -0.6008
 9915TIP3   OH251159   0.911   2.316  14.005 -0.3944 -0.3665 -0.0426
 9915TIP3    H151160   0.919   2.270  14.088 -0.1093 -1.2889 -0.5569
 9915TIP3    H251161   0.982   2.279  13.951 -0.1176  0.7383 -0.4531
 9916TIP3   OH251162   0.302   4.149  11.187 -0.4320 -0.0106  0.0455
 9916TIP3    H151163   0.339   4.229  11.225 -0.5728  0.1659 -0.1858
 9916TIP3    H251164   0.231   4.124  11.246 -0.9025  0.4793 -0.2990
 9917TIP3   OH251165   6.687   3.874   0.581  0.2453  0.3115 -0.0073
 9917TIP3    H151166   6.621   3.826   0.530  0.9382 -0.2433 -0.4094
 9917TIP3    H251167   6.693   3.959   0.537 -2.0154  1.3667  1.5592
 9918TIP3   OH251168   4.807   3.291  11.356  0.4245  0.0733  0.0405
 9918TIP3    H151169   4.763   3.376  11.358  0.9286  0.4277 -1.9215
 9918TIP3    H251170   4.897   3.311  11.329  0.6799 -1.0380 -0.0005
 9919TIP3   OH251171   3.889   1.217  16.405 -0.3655 -0.1940  0.1459
 9919TIP3    H151172   3.820   1.247  16.464 -0.9139 -0.0531 -0.5521
 9919TIP3    H251173   3.915   1.295  16.356 -0.9502 -0.5918 -0.8246
 9920TIP3   OH251174   6.193   3.326  14.201 -0.4056  0.1882 -0.6480
 9920TIP3    H151175   6.140   3.283  14.135 -1.0169 -0.1842  0.0661
 9920TIP3    H251176   6.144   3.313  14.283 -0.5661  2.1235 -0.3810
 9921TIP3   OH251177   2.375   6.506  10.935 -0.4524  0.1387 -0.1876
 9921TIP3    H151178   2.342   6.577  10.879 -2.1173  0.4714  1.1351
 9921TIP3    H251179   2.469   6.505  10.919 -0.6959  1.0931 -1.9848
 9922TIP3   OH251180   3.814   0.938   4.812  0.1818 -0.4634  0.2780
 9922TIP3    H151181   3.830   0.892   4.895  3.1736  2.7652  1.7593
 9922TIP3    H251182   3.731   0.983   4.825 -0.4485 -1.6785  0.6170
 9923TIP3   OH251183   5.515   3.201   5.302  0.2627  0.1656  0.1458
 9923TIP3    H151184   5.470   3.192   5.387 -0.6590  0.1120 -0.3311
 9923TIP3    H251185   5.606   3.220   5.325  0.2869 -1.0022  1.1572
 9924TIP3   OH251186   3.390   0.895   5.587 -0.2329  0.4725 -0.2549
 9924TIP3    H151187   3.449   0.861   5.520 -0.3544 -1.1812  0.4338
 9924TIP3    H251188   3.447   0.910   5.663 -0.5028 -0.1525  0.0830
 9925TIP3   OH251189   2.354   5.812  15.000  0.1482  0.1864  0.1810
 9925TIP3    H151190   2.445   5.797  15.025 -0.2092  0.7734  1.9704
 9925TIP3    H251191   2.345   5.908  15.000 -0.5790  0.1273  0.4954
 9926TIP3   OH251192   4.550   6.207  14.332 -0.4459  0.0250 -0.0824
 9926TIP3    H151193   4.506   6.168  14.257 -0.3177 -1.0906  0.3960
 9926TIP3    H251194   4.531   6.147  14.405  2.7139 -1.1383 -0.0690
 9927TIP3   OH251195   3.774   3.083  12.060 -0.3985  0.2373 -0.3544
 9927TIP3    H151196   3.768   3.177  12.080 -0.4789  0.3192 -0.7516
 9927TIP3    H251197   3.866   3.061  12.074 -0.7554 -0.1115  1.8197
 9928TIP3   OH251198   2.215   3.560   5.756 -0.1987  0.1599  0.1829
 9928TIP3    H151199   2.301   3.517   5.751 -0.7172 -0.9293  0.2338
 9928TIP3    H251200   2.183   3.561   5.666 -0.2805  0.2565  0.2128
 9929TIP3   OH251201   6.711   5.079  16.105 -0.5810  0.0153 -0.0927
 9929TIP3    H151202   6.622   5.044  16.115 -0.1638 -0.8965  0.5461
 9929TIP3    H251203   6.756   5.054  16.185  0.0566  1.0907 -0.1001
 9930TIP3   OH251204   6.253   1.293  15.245  0.6086 -0.4122  0.4830
 9930TIP3    H151205   6.174   1.341  15.271 -0.1887 -0.3171 -1.8103
 9930TIP3    H251206   6.314   1.362  15.217  0.6480 -0.5763  0.1550
 9931TIP3   OH251207   0.619   3.180  15.861  0.1614 -0.3672  0.4669
 9931TIP3    H151208   0.582   3.258  15.902  2.4082 -0.0751  2.1706
 9931TIP3    H251209   0.547   3.117  15.858 -1.1283  1.0241  1.0846
 9932TIP3   OH251210   0.195   0.113   0.631 -0.2721  0.3864  0.4014
 9932TIP3    H151211   0.103   0.104   0.606  0.4150 -0.0062 -2.2460
 9932TIP3    H251212   0.214   0.206   0.619 -0.1984  0.3851  0.5051
 9933TIP3   OH251213   6.460   1.342  11.935  0.2475  0.1719 -0.0381
 9933TIP3    H151214   6.430   1.271  11.878  2.0595 -0.5496 -0.1863
 9933TIP3    H251215   6.419   1.420  11.900 -1.0692 -0.6748 -0.4530
 9934TIP3   OH251216   4.617   5.648  13.014 -0.7099  0.6722 -0.5171
 9934TIP3    H151217   4.658   5.715  13.068 -0.8085  0.5048 -0.2300
 9934TIP3    H251218   4.621   5.682  12.925 -1.2538  1.3045 -0.3042
 9935TIP3   OH251219   3.249   0.837   3.964 -0.5395 -0.5344  0.4001
 9935TIP3    H151220   3.184   0.794   4.019 -0.2524  1.2252  2.2208
 9935TIP3    H251221   3.311   0.876   4.026  0.9504 -0.1858 -1.2361
 9936TIP3   OH251222   5.478   0.440  12.050  0.2816 -0.0486  0.2130
 9936TIP3    H151223   5.545   0.408  11.990  0.5331 -1.4781  1.2322
 9936TIP3    H251224   5.512   0.523  12.083  2.3159 -1.4642  1.8882
 9937TIP3   OH251225   3.365   5.474   4.872  0.0242 -0.2691  0.0128
 9937TIP3    H151226   3.442   5.467   4.816 -0.7558 -1.3904 -0.9436
 9937TIP3    H251227   3.333   5.384   4.881 -0.3923 -0.0034  1.5376
 9938TIP3   OH251228   5.715   6.654   4.635 -0.0096 -0.2119 -0.2584
 9938TIP3    H151229   5.668   6.729   4.599 -0.8948 -1.4271 -1.7708
 9938TIP3    H251230   5.716   6.669   4.729 -0.3840  1.5596 -0.5115
 9939TIP3   OH251231   0.187   3.934   6.772 -0.0906  0.1308  0.0400
 9939TIP3    H151232   0.123   3.862   6.768  0.1219 -0.0687  0.1847
 9939TIP3    H251233   0.199   3.960   6.681  0.6959 -0.7938 -0.1357
 9940TIP3   OH251234   1.262   4.185   3.270  0.0176 -0.4043  0.2492
 9940TIP3    H151235   1.277   4.127   3.195 -1.6294 -1.5884  0.7728
 9940TIP3    H251236   1.231   4.267   3.231 -2.4199 -1.5401 -0.3815
 9941TIP3   OH251237   6.676   6.654   6.342  0.6176 -0.0842  0.4138
 9941TIP3    H151238   6.675   6.749   6.345  0.4564 -0.0228 -1.1612
 9941TIP3    H251239   6.756   6.632   6.294  0.0518 -0.6927 -0.2725
 9942TIP3   OH251240   0.084   5.467  14.740  0.0045  0.2630 -0.6160
 9942TIP3    H151241   0.080   5.508  14.653 -1.5021  0.2251 -0.5898
 9942TIP3    H251242   0.074   5.540  14.801 -1.1052  0.0585 -0.5358
 9943TIP3   OH251243   4.460   3.548   0.099  0.0927  0.3559  0.0981
 9943TIP3    H151244   4.463   3.518   0.008  0.7919 -1.2338  0.6108
 9943TIP3    H251245   4.366   3.551   0.120 -0.0489 -0.0290 -0.4559
 9944TIP3   OH251246   3.703   6.346   5.187  0.2605  0.2159  0.2238
 9944TIP3    H151247   3.778   6.406   5.191  0.3813  0.0318  0.7510
 9944TIP3    H251248   3.680   6.344   5.094  1.0409  0.1147  0.0189
 9945TIP3   OH251249   6.355   5.464  13.938  0.4089 -0.2871 -0.5319
 9945TIP3    H151250   6.288   5.506  13.991 -0.2056 -1.5874 -0.2427
 9945TIP3    H251251   6.332   5.485  13.847  0.4043  0.3912 -0.3783
 9946TIP3   OH251252   3.505   1.891  16.186 -0.0905  0.4208 -0.3845
 9946TIP3    H151253   3.589   1.876  16.229  0.8164 -2.3262 -2.7691
 9946TIP3    H251254   3.450   1.817  16.213 -0.4964  0.2609 -1.5816
 9947TIP3   OH251255   3.454   4.845  13.393  0.3195 -0.2548 -0.3030
 9947TIP3    H151256   3.493   4.902  13.459  0.7651 -1.6517  0.6714
 9947TIP3    H251257   3.528   4.811  13.343  0.2341 -1.4891  0.3826
 9948TIP3   OH251258   0.160   2.858   1.012  0.2888  0.3448  0.2772
 9948TIP3    H151259   0.124   2.793   0.951  0.2183  1.8108 -1.3132
 9948TIP3    H251260   0.084   2.909   1.040  0.0738 -1.2313  2.8594
 9949TIP3   OH251261   2.413   4.321  11.801 -0.8930  0.3233  0.2195
 9949TIP3    H151262   2.483   4.304  11.737  0.0269  0.8649  1.0641
 9949TIP3    H251263   2.336   4.341  11.747  0.3127  2.6866 -0.7685
 9950TIP3   OH251264   2.897   1.245  12.493  0.0104  0.5399 -0.5413
 9950TIP3    H151265   2.803   1.258  12.482  0.0511  2.3325  0.7905
 9950TIP3    H251266   2.904   1.179  12.562 -0.3452  2.6780  1.6408
 9951TIP3   OH251267   6.569   5.760   0.490  0.1228 -0.5491  0.4696
 9951TIP3    H151268   6.501   5.693   0.494 -0.5315  0.1478  2.5136
 9951TIP3    H251269   6.590   5.768   0.397 -3.0539 -0.3710 -0.3544
 9952TIP3   OH251270   3.783   3.776   3.814 -0.0998  0.6001 -0.1296
 9952TIP3    H151271   3.776   3.823   3.897 -0.1746  0.7312 -0.2085
 9952TIP3    H251272   3.753   3.687   3.834  2.2402 -0.1002  0.5774
 9953TIP3   OH251273   4.084   5.942  11.033  0.5121 -0.6182 -0.2307
 9953TIP3    H151274   4.047   5.906  10.952 -1.1738 -2.1669  1.1379
 9953TIP3    H251275   4.179   5.939  11.019  0.2759  0.7174 -2.7368
 9954TIP3   OH251276   4.529   4.884  11.370  0.3145  1.3815  0.2687
 9954TIP3    H151277   4.536   4.842  11.284 -0.0691  1.4434  0.2049
 9954TIP3    H251278   4.483   4.966  11.353 -1.4150  0.5685  0.7903
 9955TIP3   OH251279   4.316   5.654  13.923  0.7613 -0.7030 -0.6851
 9955TIP3    H151280   4.347   5.716  13.989 -0.9400 -0.7989  0.2355
 9955TIP3    H251281   4.387   5.589  13.917  1.5687  0.0894 -0.0330
 9956TIP3   OH251282   5.126   5.450   3.081  0.0493 -0.4907 -0.4017
 9956TIP3    H151283   5.136   5.525   3.139 -0.9220 -1.4695  1.1369
 9956TIP3    H251284   5.033   5.451   3.056  0.2121 -0.7161 -1.0240
 9957TIP3   OH251285   6.695   3.107  13.474  0.9712 -0.3252 -0.0045
 9957TIP3    H151286   6.759   3.038  13.494  0.9976 -0.5855 -0.9544
 9957TIP3    H251287   6.620   3.060  13.437 -0.1025 -0.1064  1.7673
 9958TIP3   OH251288   3.974   0.105   4.590 -0.2529  0.7415  0.0905
 9958TIP3    H151289   4.034   0.122   4.663  0.6740  0.0663 -0.4854
 9958TIP3    H251290   3.932   0.022   4.612 -0.3305  0.7761  0.0742
 9959TIP3   OH251291   0.251   1.313   0.216  0.5013 -0.5661 -0.7397
 9959TIP3    H151292   0.256   1.266   0.132 -1.6084  0.8180 -1.7346
 9959TIP3    H251293   0.341   1.339   0.235  0.8179  0.9124 -3.7128
 9960TIP3   OH251294   4.341   3.240   6.366 -0.2882  0.1396  0.2295
 9960TIP3    H151295   4.313   3.329   6.347 -2.4592 -0.3883  0.7295
 9960TIP3    H251296   4.349   3.237   6.461 -1.2481 -0.4580  0.3021
 9961TIP3   OH251297   2.645   4.143  15.002 -0.0737 -0.4168  0.4004
 9961TIP3    H151298   2.735   4.119  15.023 -0.2184 -1.7465 -0.3468
 9961TIP3    H251299   2.620   4.206  15.069  1.6569  0.5687  0.1746
 9962TIP3   OH251300   4.011   1.199  16.716  0.3359 -0.7844 -0.4453
 9962TIP3    H151301   3.938   1.256  16.690  0.3767 -0.2199  0.6060
 9962TIP3    H251302   4.004   1.123  16.659 -2.9339 -2.2082  1.5705
 9963TIP3   OH251303   5.248   5.532  11.301  0.8585  0.8036  0.6620
 9963TIP3    H151304   5.311   5.460  11.296  0.2696  0.3529 -0.6084
 9963TIP3    H251305   5.167   5.496  11.265  0.0347  1.5581  1.6979
 9964TIP3   OH251306   3.507   2.094  12.878  0.6360 -0.1682 -0.2769
 9964TIP3    H151307   3.434   2.082  12.939  0.8016 -1.2172 -0.2592
 9964TIP3    H251308   3.499   2.184  12.849 -1.5323 -0.6336 -1.3695
 9965TIP3   OH251309   4.983   3.909   5.235 -0.4761 -0.3661  0.8176
 9965TIP3    H151310   5.016   3.999   5.237  0.6519 -0.6746 -1.3031
 9965TIP3    H251311   5.009   3.873   5.320  1.0602  0.6697  0.8465
 9966TIP3   OH251312   4.118   2.585  13.787  0.3245 -0.9774 -0.4314
 9966TIP3    H151313   4.152   2.512  13.839 -1.2398 -2.5190 -1.4587
 9966TIP3    H251314   4.059   2.631  13.847  0.8632 -0.8994  0.0470
 9967TIP3   OH251315   2.845   0.629  12.521  0.7390 -0.1842  0.2352
 9967TIP3    H151316   2.750   0.615  12.520  0.5695  0.7322 -1.6960
 9967TIP3    H251317   2.882   0.547  12.488  0.4690  0.1353 -0.8909
 9968TIP3   OH251318   0.040   2.165  10.581 -0.0329  0.2084  0.0999
 9968TIP3    H151319   0.076   2.166  10.669  0.4701  1.5685 -0.1018
 9968TIP3    H251320   0.104   2.116  10.529  0.3275  0.5518  0.2214
 9969TIP3   OH251321   1.103   2.200  13.816 -0.5322  0.5754 -0.1309
 9969TIP3    H151322   1.068   2.119  13.777  0.0831  1.2875 -2.3103
 9969TIP3    H251323   1.198   2.189  13.812 -0.4360  0.7850  1.0502
 9970TIP3   OH251324   3.809   5.907  13.757  0.9154  0.6659 -0.0104
 9970TIP3    H151325   3.830   5.872  13.670  1.9341  1.8090 -0.2450
 9970TIP3    H251326   3.741   5.973  13.740 -0.5850 -0.7236  0.3617
 9971TIP3   OH251327   2.609   4.168  14.633 -0.1108 -0.0647 -0.5318
 9971TIP3    H151328   2.527   4.216  14.644 -1.5391 -2.2781 -0.8980
 9971TIP3    H251329   2.623   4.125  14.717  0.2697 -0.3138 -0.7206
 9972TIP3   OH251330   3.880   2.915   2.265 -0.4558 -0.2409 -0.4497
 9972TIP3    H151331   3.942   2.857   2.308  1.5333  1.7694 -0.4114
 9972TIP3    H251332   3.872   2.880   2.176  0.1169 -0.9599 -0.2295
 9973TIP3   OH251333   6.751   4.562  12.799  0.4821  0.0130 -1.1355
 9973TIP3    H151334   6.812   4.494  12.827 -1.2493 -1.4680 -0.7313
 9973TIP3    H251335   6.756   4.562  12.704 -0.9793 -2.2637 -1.3027
 9974TIP3   OH251336   0.165   0.041   2.963  0.1381  0.0561 -0.1638
 9974TIP3    H151337   0.258   0.018   2.959 -0.1193 -0.8847 -1.1345
 9974TIP3    H251338   0.163   0.126   3.007  1.2990 -0.7909  1.6054
 9975TIP3   OH251339   0.072   3.898  15.794 -0.5635  0.2609 -0.4000
 9975TIP3    H151340   0.111   3.881  15.880 -0.7218  0.3131 -0.3180
 9975TIP3    H251341  -0.004   3.840  15.791 -0.8695  0.6527 -0.2881
 9976TIP3   OH251342   2.162   6.392  14.252 -0.1136  0.1238  0.2627
 9976TIP3    H151343   2.077   6.435  14.256  0.0415  0.4037  0.5574
 9976TIP3    H251344   2.204   6.431  14.175 -0.5078 -0.4959 -0.2791
 9977TIP3   OH251345   5.550   2.639  15.586 -0.3702 -0.9093  0.1047
 9977TIP3    H151346   5.593   2.635  15.671 -0.5585  0.7002  0.3138
 9977TIP3    H251347   5.473   2.695  15.601  0.4595  0.7539 -1.4402
 9978TIP3   OH251348   0.442   5.010   4.081 -0.0000  0.4727 -0.3642
 9978TIP3    H151349   0.349   5.006   4.059  0.4697 -2.5963 -2.4696
 9978TIP3    H251350   0.467   5.101   4.067 -2.2489  0.9472 -1.7671
 9979TIP3   OH251351   1.893   5.787   5.125  0.1410  0.0679 -0.4084
 9979TIP3    H151352   1.893   5.845   5.049  0.4723  1.1028  0.3461
 9979TIP3    H251353   1.814   5.812   5.174  0.1722 -0.2687 -0.1824
 9980TIP3   OH251354   5.889   0.746   6.362  0.2354 -0.3269  0.5707
 9980TIP3    H151355   5.971   0.762   6.410  0.1733 -0.9011  0.8766
 9980TIP3    H251356   5.869   0.654   6.379 -0.5840 -0.1347  0.6652
 9981TIP3   OH251357   4.637   4.163   4.462 -0.1777 -0.3506 -0.5140
 9981TIP3    H151358   4.625   4.071   4.438  1.3542 -0.5201 -0.7287
 9981TIP3    H251359   4.626   4.165   4.557  1.9343 -1.1835 -0.1991
 9982TIP3   OH251360   5.198   4.357  14.045 -0.6245 -0.2351  0.7996
 9982TIP3    H151361   5.210   4.417  13.971 -1.3072 -2.9643 -1.6989
 9982TIP3    H251362   5.284   4.318  14.059  0.1164  1.9198  3.1957
 9983TIP3   OH251363   0.848   1.322   0.886  0.3299 -0.3054 -0.5313
 9983TIP3    H151364   0.877   1.235   0.914 -0.2559 -0.0158  1.1078
 9983TIP3    H251365   0.808   1.361   0.964 -0.7658  0.8764 -1.6105
 9984TIP3   OH251366   0.840   4.433   0.459  0.4475 -0.3044 -0.3184
 9984TIP3    H151367   0.924   4.392   0.440 -0.2815 -1.3757 -1.3430
 9984TIP3    H251368   0.777   4.385   0.405 -0.8027  0.5692  0.3216
 9985TIP3   OH251369   3.458   5.586  11.211 -0.2687 -0.0146  0.0240
 9985TIP3    H151370   3.373   5.629  11.223 -1.1480 -1.5378 -0.3952
 9985TIP3    H251371   3.506   5.605  11.291 -1.3884  0.0714  0.7048
 9986TIP3   OH251372   1.536   0.999  12.109  0.1033  0.0171 -0.3005
 9986TIP3    H151373   1.609   0.988  12.170 -0.4136 -0.5520  0.2351
 9986TIP3    H251374   1.518   1.093  12.111  1.2328  0.2649 -0.9441
 9987TIP3   OH251375   5.727   1.098  16.998  1.1879  0.4665  0.0103
 9987TIP3    H151376   5.784   1.038  16.951  0.5312 -0.2204  0.0654
 9987TIP3    H251377   5.780   1.176  17.013  2.0161 -0.0538 -0.1703
 9988TIP3   OH251378   0.114   2.310   3.266 -0.4758  0.4419 -0.1267
 9988TIP3    H151379   0.032   2.311   3.316 -1.1761 -3.0808 -0.9004
 9988TIP3    H251380   0.094   2.356   3.185 -1.1119  1.2191  0.4561
 9989TIP3   OH251381   2.732   1.700  14.236  0.4904  0.5185  0.7341
 9989TIP3    H151382   2.714   1.735  14.323  0.0642 -0.0396  0.8747
 9989TIP3    H251383   2.660   1.732  14.182 -0.7054 -1.2280  1.1686
 9990TIP3   OH251384   6.528   3.339   1.731 -0.1204  0.0753 -0.1463
 9990TIP3    H151385   6.452   3.297   1.772  0.7665 -1.4455 -0.0036
 9990TIP3    H251386   6.492   3.384   1.654 -0.9838 -1.7692 -0.8698
 9991TIP3   OH251387   3.793   4.995  13.459 -0.1618  0.2652  0.6936
 9991TIP3    H151388   3.707   5.012  13.496 -0.0840  0.8100  0.6259
 9991TIP3    H251389   3.847   4.970  13.534  0.0750  1.6604  1.0215
 9992TIP3   OH251390   1.784   0.257   2.099  0.4098 -0.8708 -0.7604
 9992TIP3    H151391   1.689   0.248   2.102  0.2424  0.4895 -0.9789
 9992TIP3    H251392   1.812   0.197   2.030 -0.3385 -1.0062 -0.9566
 9993TIP3   OH251393   5.338   3.464   4.430  0.6483  0.3373 -0.0943
 9993TIP3    H151394   5.346   3.455   4.335  0.4898 -0.6612 -0.0230
 9993TIP3    H251395   5.287   3.388   4.457 -1.7665  2.0271  0.4815
 9994TIP3   OH251396   6.154   0.212  16.917  0.4389 -0.1467  0.7811
 9994TIP3    H151397   6.102   0.257  16.984 -2.0467 -0.8793 -0.5238
 9994TIP3    H251398   6.203   0.282  16.873 -0.7339  0.8468  1.0053
 9995TIP3   OH251399   4.866   0.150   1.327  0.4156 -0.2004 -0.5273
 9995TIP3    H151400   4.844   0.097   1.249  1.2835  0.3494 -1.1650
 9995TIP3    H251401   4.881   0.085   1.396 -1.8922 -0.6483 -0.3689
 9996TIP3   OH251402   6.521   5.429  17.059  0.2686  0.5004  0.8445
 9996TIP3    H151403   6.463   5.353  17.068  0.7901 -0.1022 -0.5249
 9996TIP3    H251404   6.602   5.392  17.022  1.6303  1.2854  2.9061
 9997TIP3   OH251405   1.975   0.612   5.142 -0.0950  0.7383 -0.1051
 9997TIP3    H151406   2.060   0.570   5.154  0.0020  0.4952 -1.4209
 9997TIP3    H251407   1.947   0.637   5.230  1.3589  0.8768  0.3391
 9998TIP3   OH251408   5.262   3.007   3.601  0.0078 -0.0618  0.1455
 9998TIP3    H151409   5.271   2.945   3.529 -0.4224  0.5481 -0.4342
 9998TIP3    H251410   5.328   3.074   3.583 -1.0898  0.8710 -0.4905
 9999TIP3   OH251411   3.155   1.751   4.184  0.6491 -0.1424 -0.0833
 9999TIP3    H151412   3.141   1.680   4.246  0.1003  0.5585  0.6186
 9999TIP3    H251413   3.100   1.823   4.217  2.5416  1.2281  0.2593
10000TIP3   OH251414   4.590   5.431   5.351  0.0393 -0.0996  0.2092
10000TIP3    H151415   4.568   5.503   5.410 -1.2379 -0.2142 -0.0965
10000TIP3    H251416   4.674   5.456   5.311 -0.4595  1.2811  0.0048
10001TIP3   OH251417   5.910   5.692  16.552  0.3245  0.7052  0.0584
10001TIP3    H151418   6.001   5.723  16.547 -0.2838  2.7334  0.5519
10001TIP3    H251419   5.874   5.711  16.465  0.5052 -0.6804 -0.3458
10002TIP3   OH251420   3.371   1.772  12.611  0.4099  0.0513  0.8145
10002TIP3    H151421   3.329   1.769  12.525  1.6746  0.5786  0.1525
10002TIP3    H251422   3.461   1.742  12.594  1.1598  1.7195  1.6239
10003TIP3   OH251423   0.192   4.272  13.252  0.0981  0.3028 -0.4218
10003TIP3    H151424   0.168   4.180  13.239  0.4646  0.2693 -0.8616
10003TIP3    H251425   0.262   4.271  13.316 -0.6078  0.3565  0.3744
10004TIP3   OH251426   4.433   2.525   4.825 -0.3837  0.1561  0.8235
10004TIP3    H151427   4.506   2.547   4.883  0.5771 -1.3654  0.2553
10004TIP3    H251428   4.386   2.455   4.870 -0.7022  0.2117  0.5835
10005TIP3   OH251429   0.627   5.318   2.690 -0.2029  0.0573 -0.1096
10005TIP3    H151430   0.662   5.374   2.621 -2.4608  0.7708 -0.7682
10005TIP3    H251431   0.671   5.347   2.769  2.1503 -0.5011 -1.1230
10006TIP3   OH251432   5.189   1.897   5.403  0.1592 -0.1690 -0.6881
10006TIP3    H151433   5.108   1.927   5.363 -0.0280 -1.5850 -1.4356
10006TIP3    H251434   5.163   1.860   5.487  0.2989  1.0418 -0.0883
10007TIP3   OH251435   6.711   6.637  13.358  0.9767 -0.4770  0.5585
10007TIP3    H151436   6.761   6.694  13.300 -0.5469  0.2532 -0.0895
10007TIP3    H251437   6.705   6.554  13.311  0.2047 -0.0537 -0.1172
10008TIP3   OH251438   5.301   3.038   1.752 -0.2719  0.2166  0.2646
10008TIP3    H151439   5.303   3.132   1.735 -0.2772  0.1819  0.0762
10008TIP3    H251440   5.310   2.997   1.666 -3.3281  0.0391 -0.0915
10009TIP3   OH251441   0.546   1.196  14.529 -0.2302  0.3543 -0.1997
10009TIP3    H151442   0.594   1.127  14.482  1.8685  2.1677 -0.8846
10009TIP3    H251443   0.516   1.153  14.609  0.1209 -1.6145 -1.0495
10010TIP3   OH251444   6.782   0.812   4.778  0.3116  0.1730  0.6674
10010TIP3    H151445   6.835   0.884   4.812  2.0935  0.9544 -3.2635
10010TIP3    H251446   6.843   0.738   4.774 -0.2078 -0.2440  0.3824
10011TIP3   OH251447   3.048   6.732   2.861 -0.0058  0.0440 -0.0428
10011TIP3    H151448   2.990   6.808   2.858 -2.7242 -1.9230 -1.8837
10011TIP3    H251449   3.052   6.709   2.954 -1.2783  0.8933  0.2470
10012TIP3   OH251450   0.980   2.750  12.076  0.1430  0.1590 -0.0520
10012TIP3    H151451   0.909   2.754  12.140 -2.0729  3.2202 -2.3709
10012TIP3    H251452   1.035   2.826  12.096  0.0510  0.5118 -1.0601
10013TIP3   OH251453   1.231   3.084  16.131 -0.1462  0.4766 -0.2637
10013TIP3    H151454   1.237   2.991  16.110 -1.1609  0.4429 -0.4604
10013TIP3    H251455   1.311   3.102  16.181 -0.4109 -0.7357  0.6611
10014TIP3   OH251456   6.055   1.741   2.096  0.3257  0.0112 -0.4733
10014TIP3    H151457   5.968   1.724   2.134  0.6915 -0.3098  0.2378
10014TIP3    H251458   6.104   1.661   2.111  0.8537  0.3086 -0.5806
10015TIP3   OH251459   3.926   3.319  16.632  0.1280  0.0666  0.3704
10015TIP3    H151460   3.975   3.239  16.615 -0.1835  0.0024 -0.2388
10015TIP3    H251461   3.884   3.340  16.549  0.2467  0.8873  0.5093
10016TIP3   OH251462   6.393   5.411   3.515 -0.0783  0.1560 -0.7975
10016TIP3    H151463   6.345   5.449   3.441 -1.9079 -2.0448 -0.8459
10016TIP3    H251464   6.337   5.428   3.591 -0.4757 -1.5354 -0.6772
10017TIP3   OH251465   1.373   0.292  12.136  0.3097 -0.4181 -0.2439
10017TIP3    H151466   1.455   0.289  12.185  0.1651 -2.1569 -0.0394
10017TIP3    H251467   1.379   0.217  12.076 -1.9525 -1.8641  1.1862
10018TIP3   OH251468   4.031   5.451   6.149 -0.0434  0.1530 -0.1311
10018TIP3    H151469   4.103   5.475   6.208  0.5412  0.6600 -1.0353
10018TIP3    H251470   3.977   5.392   6.201  1.6922 -1.2404  0.1892
10019TIP3   OH251471   3.920   3.408  15.025 -0.6350  0.4225 -0.4926
10019TIP3    H151472   4.009   3.387  14.998  0.0562  1.5644  0.7515
10019TIP3    H251473   3.885   3.463  14.955 -0.2948  0.1073 -0.9100
10020TIP3   OH251474   2.916   5.647   1.256 -0.6057  0.3699 -0.3190
10020TIP3    H151475   2.956   5.663   1.170  2.9193 -0.6534  0.9542
10020TIP3    H251476   2.861   5.570   1.243 -1.5046  1.2511 -1.9895
10021TIP3   OH251477   2.215   3.725  12.138  0.0531 -0.1274 -0.1491
10021TIP3    H151478   2.275   3.650  12.144  1.2036  0.6974 -0.8085
10021TIP3    H251479   2.143   3.703  12.196  0.7344 -1.4112  0.2559
10022TIP3   OH251480   6.226   3.483   2.366  0.3446 -0.0926  0.2424
10022TIP3    H151481   6.225   3.468   2.271 -1.3576 -0.0268  0.2072
10022TIP3    H251482   6.133   3.492   2.389  0.8099  1.5637  1.6649
10023TIP3   OH251483   1.886   6.211  13.500 -0.1115 -0.0831 -0.3677
10023TIP3    H151484   1.978   6.233  13.517 -0.3367 -0.3096  1.3682
10023TIP3    H251485   1.839   6.250  13.574 -1.8218  2.5713 -2.6694
10024TIP3   OH251486   5.248   4.586  10.697 -0.2044  0.2273 -0.4300
10024TIP3    H151487   5.215   4.673  10.723  0.2355  0.1777  0.3262
10024TIP3    H251488   5.341   4.600  10.679 -0.3260  0.0861 -1.1788
10025TIP3   OH251489   0.440   1.887   5.913 -0.4509 -0.4471 -0.3889
10025TIP3    H151490   0.498   1.872   5.987 -1.1938 -0.6619  0.1645
10025TIP3    H251491   0.404   1.975   5.928 -0.3482 -0.3507 -0.6815
10026TIP3   OH251492   5.223   3.459  12.882 -0.4331 -0.1597 -0.1069
10026TIP3    H151493   5.284   3.419  12.820  0.4385 -1.1967  1.3854
10026TIP3    H251494   5.223   3.401  12.958 -0.8450  1.5050  1.2322
10027TIP3   OH251495   5.562   4.599   1.029 -0.4503 -0.2143  0.1194
10027TIP3    H151496   5.639   4.655   1.039 -0.0667 -0.2862 -2.0859
10027TIP3    H251497   5.488   4.660   1.025 -0.4086 -0.0848  1.0234
10028TIP3   OH251498   3.010   3.812   6.602  0.4699  0.5298 -0.7931
10028TIP3    H151499   2.999   3.901   6.569 -0.9284  1.1790  1.2038
10028TIP3    H251500   3.099   3.811   6.637 -0.0397  1.8008  0.7393
10029TIP3   OH251501   5.938   0.331  13.611 -0.2302 -0.4041 -0.8418
10029TIP3    H151502   5.909   0.380  13.534 -4.5349 -0.5936  0.4392
10029TIP3    H251503   5.961   0.398  13.675 -0.1612 -0.1914 -1.0878
10030TIP3   OH251504   2.061   0.503   4.751 -0.4129  0.7100  0.8912
10030TIP3    H151505   2.039   0.418   4.788  1.4210  1.1077  3.1204
10030TIP3    H251506   2.007   0.510   4.673 -0.6637 -2.4527  0.6634
10031TIP3   OH251507   3.038   2.487   2.687 -0.3055  0.6730  0.0480
10031TIP3    H151508   3.032   2.405   2.736 -0.0722 -0.1050 -1.1797
10031TIP3    H251509   3.046   2.554   2.754  1.8194 -0.4945  1.0865
10032TIP3   OH251510   4.247   6.497  13.316 -0.1332  0.2196 -0.3310
10032TIP3    H151511   4.321   6.452  13.356 -0.1938  0.0024 -0.4585
10032TIP3    H251512   4.282   6.581  13.287 -0.5491  1.2685  1.9927
10033TIP3   OH251513   3.579   2.137  15.191  0.0078 -0.1661  0.1091
10033TIP3    H151514   3.594   2.073  15.261 -0.3519 -0.1242  0.2262
10033TIP3    H251515   3.601   2.221  15.230 -1.0374 -0.0457  0.4477
10034TIP3   OH251516   4.531   6.388   0.251 -0.7515 -0.1565  0.3011
10034TIP3    H151517   4.608   6.360   0.201  0.7193  0.6852  1.9793
10034TIP3    H251518   4.554   6.371   0.342 -2.4922  0.3211  0.8709
10035TIP3   OH251519   6.461   2.106   5.023 -0.2465 -0.1715  0.1798
10035TIP3    H151520   6.551   2.122   4.995  0.1013  0.2784  1.4552
10035TIP3    H251521   6.427   2.193   5.045 -0.4789 -0.4792  1.1043
10036TIP3   OH251522   1.363   5.911  15.831  0.0643 -0.0076  0.3396
10036TIP3    H151523   1.457   5.925  15.820 -0.1113  1.3366  0.3970
10036TIP3    H251524   1.322   5.976  15.773 -0.8377 -1.3109 -0.5341
10037TIP3   OH251525   3.150   6.212  15.367  0.0833 -0.7254  0.1975
10037TIP3    H151526   3.060   6.229  15.392 -0.0697 -2.0192  0.6170
10037TIP3    H251527   3.198   6.291  15.393 -0.7709 -0.3975  0.8240
10038TIP3   OH251528   3.242   4.224   1.810  0.2487 -0.3049  0.4515
10038TIP3    H151529   3.287   4.159   1.757  1.4176 -0.0996  1.1447
10038TIP3    H251530   3.188   4.173   1.870 -0.0740 -0.5752 -0.0629
10039TIP3   OH251531   5.530   5.850  12.705  0.0843 -0.2486 -0.1497
10039TIP3    H151532   5.521   5.921  12.768  0.2561 -0.9864  0.7352
10039TIP3    H251533   5.596   5.792  12.744 -0.8147 -1.4254 -0.3273
10040TIP3   OH251534   0.689   1.909  17.036 -0.1259  0.2130  0.5913
10040TIP3    H151535   0.723   1.822  17.013 -0.4226 -0.0785  1.2242
10040TIP3    H251536   0.696   1.913  17.132 -0.1004  0.8938  0.5645
10041TIP3   OH251537   0.611   2.214   5.933 -0.5844  0.2240 -0.1568
10041TIP3    H151538   0.528   2.191   5.976 -0.1229 -0.8137  0.2267
10041TIP3    H251539   0.672   2.229   6.005 -0.4075  0.8523 -0.4372
10042TIP3   OH251540   1.610   0.998   2.181 -0.7062  0.2248  0.2847
10042TIP3    H151541   1.573   1.046   2.107 -0.7077 -1.2931 -0.7649
10042TIP3    H251542   1.558   1.026   2.257  0.0143  2.6510 -0.0391
10043TIP3   OH251543   0.725   0.884  15.706 -0.1026  0.8137  0.0604
10043TIP3    H151544   0.694   0.810  15.654  0.6499  0.4567  0.1065
10043TIP3    H251545   0.740   0.954  15.643 -1.4954  1.1778  0.0986
10044TIP3   OH251546   5.796   0.288  11.360  0.4487 -0.0207 -0.1075
10044TIP3    H151547   5.709   0.277  11.399  0.7447 -0.1298  0.5294
10044TIP3    H251548   5.780   0.339  11.280  0.1805  3.0015  1.7409
10045TIP3   OH251549   5.480   1.017  16.907  0.5750  0.3333 -0.1039
10045TIP3    H151550   5.450   1.105  16.927 -0.0147 -0.3082  2.1757
10045TIP3    H251551   5.570   1.014  16.941  0.9331  0.3171 -1.0281
10046TIP3   OH251552   1.108   2.245  15.654 -0.1965  0.4293 -0.0093
10046TIP3    H151553   1.131   2.159  15.618 -0.7582 -0.4638  1.6600
10046TIP3    H251554   1.191   2.283  15.681  0.2072  1.0134 -1.9496
10047TIP3   OH251555   0.659   0.547   5.455 -0.3054 -0.5231  0.5208
10047TIP3    H151556   0.634   0.477   5.395  1.0835  1.2070 -2.3061
10047TIP3    H251557   0.616   0.625   5.420 -0.8763  0.2849  2.8865
10048TIP3   OH251558   4.822   4.699   4.597  0.4193  0.2891 -0.5606
10048TIP3    H151559   4.857   4.610   4.598  0.5108  0.3247 -0.6526
10048TIP3    H251560   4.731   4.688   4.624  0.9692  0.4068  1.5313
10049TIP3   OH251561   4.223   3.179   3.635  0.0319 -0.4857 -0.3129
10049TIP3    H151562   4.232   3.111   3.702  0.3849  0.4196  0.5908
10049TIP3    H251563   4.181   3.252   3.680 -0.2639 -0.0689 -1.2424
10050TIP3   OH251564   1.456   6.763  14.882 -0.1184  0.2323 -0.0997
10050TIP3    H151565   1.545   6.739  14.856 -0.1792  1.2319 -1.3035
10050TIP3    H251566   1.468   6.816  14.961  0.3476  0.2184 -0.1586
10051TIP3   OH251567   5.463   5.737  12.184 -0.2998  0.0312 -0.7133
10051TIP3    H151568   5.466   5.642  12.173  0.4934  0.0035 -0.3404
10051TIP3    H251569   5.482   5.751  12.277 -0.1110  0.5726 -0.8305
10052TIP3   OH251570   5.296   1.763  12.457 -0.3307  0.4565 -0.2246
10052TIP3    H151571   5.329   1.708  12.386 -1.5517  0.8882 -1.1729
10052TIP3    H251572   5.258   1.701  12.520 -0.4073  0.1427 -0.5823
10053TIP3   OH251573   1.486   3.790   5.263 -0.0990  0.1917 -0.8783
10053TIP3    H151574   1.533   3.729   5.320  0.2480  0.9123 -0.3807
10053TIP3    H251575   1.394   3.779   5.285  0.0138  0.2811 -0.3642
10054TIP3   OH251576   6.098   3.314  13.826 -0.4569  0.1264  0.0563
10054TIP3    H151577   6.081   3.251  13.896  1.5093 -0.3563  0.1650
10054TIP3    H251578   6.080   3.400  13.865  0.4927 -0.1448  1.1273
10055TIP3   OH251579   1.429   3.114   1.912  0.6062  0.2524 -0.4003
10055TIP3    H151580   1.470   3.038   1.870  0.2718 -1.2913  1.8845
10055TIP3    H251581   1.447   3.187   1.852  2.0894 -1.3516 -2.0425
10056TIP3   OH251582   2.741   2.625   5.484  0.1713  0.0323  0.0348
10056TIP3    H151583   2.750   2.702   5.539 -1.8880 -0.0636  0.5764
10056TIP3    H251584   2.795   2.559   5.527 -1.6874 -0.1664  2.2699
10057TIP3   OH251585   6.131   1.635   1.343 -0.1083 -0.2975  0.4070
10057TIP3    H151586   6.082   1.717   1.333  1.7904  1.0628  1.5360
10057TIP3    H251587   6.206   1.645   1.284 -0.6913 -1.9828 -0.6907
10058TIP3   OH251588   1.948   1.853  15.316  0.3377 -0.4597 -0.2007
10058TIP3    H151589   1.943   1.786  15.384 -1.5075  1.0998  1.3379
10058TIP3    H251590   1.874   1.834  15.258  1.0937 -0.9749 -1.0242
10059TIP3   OH251591   4.383   2.115  12.379  0.3453  0.5665 -0.2837
10059TIP3    H151592   4.374   2.029  12.339 -1.6665  0.8860 -0.6063
10059TIP3    H251593   4.476   2.123  12.399  0.7739 -1.1224 -1.4687
10060TIP3   OH251594   0.124   4.319  17.047  0.2547 -0.1330  0.3190
10060TIP3    H151595   0.204   4.347  17.004  0.6254 -0.4496  0.7847
10060TIP3    H251596   0.061   4.388  17.028  0.3184 -0.3987 -0.9654
10061TIP3   OH251597   6.163   0.654   4.179 -0.2452  0.3195 -0.5984
10061TIP3    H151598   6.185   0.589   4.112  0.4682  1.4129 -1.4643
10061TIP3    H251599   6.245   0.703   4.192 -0.6475  0.7661  0.3645
10062TIP3   OH251600   2.757   4.352  15.666 -0.3328  0.1566  0.4691
10062TIP3    H151601   2.785   4.381  15.753  0.3887  0.6107  0.0980
10062TIP3    H251602   2.679   4.404  15.648 -0.3230  0.2681  0.7348
10063TIP3   OH251603   2.341   0.349   4.760  0.5700 -0.2141 -0.2205
10063TIP3    H151604   2.329   0.444   4.773 -0.2290 -0.1909 -1.0428
10063TIP3    H251605   2.252   0.314   4.756  0.8442 -0.8707 -0.8110
10064TIP3   OH251606   0.477   5.860   3.283 -0.9746  0.0455 -0.2267
10064TIP3    H151607   0.517   5.826   3.363 -0.2072 -1.1522 -1.0736
10064TIP3    H251608   0.473   5.954   3.295 -2.5989 -0.2155  1.9853
10065TIP3   OH251609   2.388   4.836   4.802 -0.1534 -0.0103  0.3042
10065TIP3    H151610   2.363   4.744   4.794 -0.1542  0.1138 -1.5980
10065TIP3    H251611   2.451   4.850   4.732  1.1947  1.0362  1.6584
10066TIP3   OH251612   2.707   5.337   4.869  0.0126  0.0644  0.4127
10066TIP3    H151613   2.632   5.279   4.854 -0.1060  0.1821  0.5486
10066TIP3    H251614   2.717   5.340   4.964  1.0084 -0.9862  0.3611
10067TIP3   OH251615   1.962   0.600  13.528 -0.0079  0.4084 -0.4362
10067TIP3    H151616   2.022   0.597  13.454  0.0318  1.3806 -0.4624
10067TIP3    H251617   1.912   0.681  13.515 -1.2452 -0.3159 -0.3516
10068TIP3   OH251618   2.023   4.702  12.177 -0.0283  0.2965 -0.7246
10068TIP3    H151619   1.960   4.631  12.192  1.5533 -0.4823  4.1018
10068TIP3    H251620   2.093   4.661  12.126 -0.6030 -0.7181 -0.7240
10069TIP3   OH251621   2.278   4.508   2.448 -0.0874  0.9148  0.2160
10069TIP3    H151622   2.284   4.442   2.378 -0.3420 -0.0437  1.0829
10069TIP3    H251623   2.212   4.570   2.417 -3.1098 -1.5707  1.2194
10070TIP3   OH251624   3.344   0.170   0.527 -0.8672  0.0642 -0.2247
10070TIP3    H151625   3.316   0.091   0.575 -0.3531 -0.4898 -0.8099
10070TIP3    H251626   3.367   0.233   0.596 -1.0305 -0.3930  0.2578
10071TIP3   OH251627   4.075   0.171   2.137 -0.0444  0.5252  0.2705
10071TIP3    H151628   4.022   0.244   2.170  0.5949  0.4122  1.6140
10071TIP3    H251629   4.032   0.093   2.171  0.2872  0.3760  0.3515
10072TIP3   OH251630   5.088   5.857   2.899 -0.0365  0.0523 -0.3924
10072TIP3    H151631   5.020   5.882   2.962 -0.9085  0.7420 -1.5688
10072TIP3    H251632   5.154   5.926   2.906  0.3398 -0.3727  0.4174
10073TIP3   OH251633   4.969   0.169  12.612  0.2715 -0.2841 -0.3359
10073TIP3    H151634   4.972   0.201  12.702  0.2368 -2.7192  0.6106
10073TIP3    H251635   4.939   0.078  12.620  0.4670 -0.6318 -2.7968
10074TIP3   OH251636   4.830   6.031   2.550 -0.2132  0.2724 -0.1782
10074TIP3    H151637   4.759   6.095   2.560  0.8857  1.2829  1.7774
10074TIP3    H251638   4.910   6.082   2.564  0.6854 -1.5564  1.9606
10075TIP3   OH251639   4.514   2.575   3.128  0.1660 -0.1416  0.1844
10075TIP3    H151640   4.521   2.656   3.177  0.1899  0.3089 -0.5416
10075TIP3    H251641   4.492   2.602   3.039  0.8135 -0.8850 -0.2207
10076TIP3   OH251642   0.458   5.783  15.006  0.1706 -0.2649 -0.3792
10076TIP3    H151643   0.540   5.774  15.054  0.5074 -0.1230 -0.9178
10076TIP3    H251644   0.482   5.767  14.914 -0.1628  0.9958 -0.7013
10077TIP3   OH251645   2.852   0.060  13.954 -0.5619  0.4623 -0.1213
10077TIP3    H151646   2.789   0.083  13.886 -1.2334 -2.0956 -0.4921
10077TIP3    H251647   2.900  -0.015  13.918 -0.9325 -0.9747  2.1556
10078TIP3   OH251648   5.615   6.537  12.928 -0.1362  0.7791 -0.1536
10078TIP3    H151649   5.575   6.594  12.862  0.0758  1.2749  0.1378
10078TIP3    H251650   5.657   6.467  12.878 -1.3414  0.2590 -0.4641
10079TIP3   OH251651   6.610   5.565   0.737 -0.0464 -0.0511  0.0891
10079TIP3    H151652   6.581   5.643   0.689 -0.3845 -1.1447 -1.5386
10079TIP3    H251653   6.611   5.495   0.672  0.1144 -1.4621  1.5436
10080TIP3   OH251654   5.253   2.063   0.644 -0.3828  0.2852 -0.4477
10080TIP3    H151655   5.202   2.091   0.720 -0.9907 -1.6160 -0.1189
10080TIP3    H251656   5.328   2.017   0.680 -0.1143  0.2783 -0.9943
10081TIP3   OH251657   6.044   5.105  11.773  0.3404 -0.1178  0.4060
10081TIP3    H151658   5.971   5.085  11.714  1.6842  2.4942 -2.4493
10081TIP3    H251659   6.019   5.187  11.815  1.5080  0.8148 -0.6181
10082TIP3   OH251660   0.280   6.338  15.540  0.1559  0.6948 -0.3090
10082TIP3    H151661   0.288   6.336  15.636 -1.7264  1.3698 -0.1086
10082TIP3    H251662   0.191   6.368  15.524  0.1455 -0.2761 -2.2925
10083TIP3   OH251663   1.777   6.503  11.437 -0.1627 -0.1598 -0.0505
10083TIP3    H151664   1.823   6.427  11.401 -1.0341  0.5952 -2.9754
10083TIP3    H251665   1.821   6.578  11.398 -1.1488  0.7456  0.5537
10084TIP3   OH251666   5.808   3.876  16.294  0.0882 -0.0087 -0.1300
10084TIP3    H151667   5.849   3.948  16.343 -1.3070  1.9116 -1.6155
10084TIP3    H251668   5.882   3.825  16.260  1.1653  1.2161  0.2859
10085TIP3   OH251669   0.300   3.143  15.934 -0.3079  0.0339  0.4342
10085TIP3    H151670   0.348   3.062  15.915 -0.9145 -0.0294 -0.9388
10085TIP3    H251671   0.297   3.188  15.849 -1.3254  0.7623  0.8532
10086TIP3   OH251672   1.310   1.094   2.593  0.6204 -0.3843  0.4563
10086TIP3    H151673   1.337   1.184   2.610 -0.7707 -0.0328  1.0013
10086TIP3    H251674   1.293   1.058   2.680  1.0584 -1.1470  0.2339
10087TIP3   OH251675   0.748   2.490   4.228 -0.3694 -0.2966  0.1708
10087TIP3    H151676   0.788   2.451   4.305  1.5442  0.3083 -0.4703
10087TIP3    H251677   0.712   2.573   4.259 -0.1627 -0.3401  0.5301
10088TIP3   OH251678   0.423   5.214  11.848 -0.7305  0.2119  0.0068
10088TIP3    H151679   0.404   5.172  11.765  0.3306 -0.2921  0.0020
10088TIP3    H251680   0.490   5.159  11.888 -0.4084  1.0676  0.6869
10089TIP3   OH251681   1.893   2.117  16.569  0.5454  0.0422 -0.2090
10089TIP3    H151682   1.869   2.074  16.487  2.7286  1.3885 -1.6674
10089TIP3    H251683   1.845   2.199  16.567 -0.4355 -0.5023  0.5451
10090TIP3   OH251684   1.467   4.923  13.053  0.3317 -0.1037  0.1237
10090TIP3    H151685   1.529   4.984  13.013  0.7807 -2.1585 -2.6929
10090TIP3    H251686   1.521   4.848  13.078 -0.7852 -1.4767 -1.3635
10091TIP3   OH251687   3.156   6.315   5.432 -0.0073  0.0260 -0.1655
10091TIP3    H151688   3.102   6.321   5.354  1.4516  0.9438 -1.1642
10091TIP3    H251689   3.225   6.253   5.410  0.6675  0.6141  0.2074
10092TIP3   OH251690   6.242   2.596  11.654  0.0092  0.5856 -0.3017
10092TIP3    H151691   6.201   2.604  11.567 -0.4295 -0.5879 -0.2067
10092TIP3    H251692   6.284   2.510  11.653 -1.4373 -0.1784  1.2492
10093TIP3   OH251693   0.784   6.058   0.127  0.6129 -1.3629 -0.6350
10093TIP3    H151694   0.803   6.057   0.033 -0.0978 -1.4103 -0.7837
10093TIP3    H251695   0.697   6.019   0.134  0.1256 -0.2022 -0.0711
10094TIP3   OH251696   1.042   2.567  11.620 -0.8147  0.2036 -0.1399
10094TIP3    H151697   0.984   2.631  11.663  1.2926  2.0226  0.2105
10094TIP3    H251698   1.022   2.576  11.527 -1.0092  0.9218 -0.0382
10095TIP3   OH251699   5.198   3.816  16.667 -0.0252  0.4297  0.0599
10095TIP3    H151700   5.181   3.730  16.629  2.2845 -0.1206  0.1127
10095TIP3    H251701   5.115   3.842  16.706 -0.9770 -1.4281 -0.6067
10096TIP3   OH251702   1.355   1.048   4.526  0.4321  0.2925  0.1899
10096TIP3    H151703   1.405   1.066   4.446  0.1814  2.0614  0.4031
10096TIP3    H251704   1.420   1.055   4.596  0.9933 -2.7580  0.1070
10097TIP3   OH251705   1.035   5.960   4.134  0.0004  0.2062 -0.3645
10097TIP3    H151706   0.941   5.943   4.124  0.0980 -1.1510  0.7111
10097TIP3    H251707   1.041   6.014   4.213  0.2585 -1.8538  1.0932
10098TIP3   OH251708   1.666   2.195   2.531 -0.1342 -0.1950  0.2667
10098TIP3    H151709   1.605   2.192   2.457  0.9563 -2.0278 -0.6348
10098TIP3    H251710   1.618   2.158   2.604 -0.5804 -0.2406 -0.0469
10099TIP3   OH251711   2.325   6.674  15.646 -0.3687  0.4232 -0.3662
10099TIP3    H151712   2.343   6.581  15.657 -0.6207  0.4478  0.3186
10099TIP3    H251713   2.404   6.710  15.606  0.1232  0.0956  0.2984
10100TIP3   OH251714   1.176   1.352  10.362  0.3525  0.5458 -0.4896
10100TIP3    H151715   1.164   1.437  10.321  1.5318  1.4621  0.9592
10100TIP3    H251716   1.271   1.338  10.361  0.4797  0.7195  2.0128
10101TIP3   OH251717   2.919   3.829  15.461  0.8131 -0.0877 -0.1499
10101TIP3    H151718   2.871   3.753  15.427  1.0759 -0.9593  1.3319
10101TIP3    H251719   2.932   3.885  15.385  2.0359 -2.2745 -1.6431
10102TIP3   OH251720   5.856   1.221  16.679 -0.5782 -0.1555  0.5984
10102TIP3    H151721   5.780   1.276  16.658 -0.3788  1.3916  3.4521
10102TIP3    H251722   5.835   1.136  16.640 -2.3940  1.0157 -1.1995
10103TIP3   OH251723   5.621   2.317   2.425  0.5542  0.0427 -0.1997
10103TIP3    H151724   5.535   2.355   2.405 -0.5987 -2.1566  0.2670
10103TIP3    H251725   5.635   2.338   2.517  0.4418  0.2490 -0.2274
10104TIP3   OH251726   4.677   0.423  12.934  0.8446  0.3909  0.4298
10104TIP3    H151727   4.620   0.360  12.977  0.3090  0.2827 -0.4125
10104TIP3    H251728   4.766   0.391  12.950  0.5558 -1.9931 -2.0094
10105TIP3   OH251729   6.324   0.564  13.585  0.1908 -0.5083  0.3296
10105TIP3    H151730   6.290   0.534  13.500 -2.1261  1.2050  0.5572
10105TIP3    H251731   6.252   0.613  13.624  1.5481 -0.3478  2.8700
10106TIP3   OH251732   5.626   4.049   0.605 -0.7709 -0.1053  0.3101
10106TIP3    H151733   5.575   3.987   0.656  0.3632 -1.4674 -0.1375
10106TIP3    H251734   5.617   4.019   0.515 -0.0980  0.2989  0.1007
10107TIP3   OH251735   4.104   0.029   3.646 -0.2829 -0.0416 -0.1447
10107TIP3    H151736   4.187   0.077   3.638 -0.6693  0.8028  0.7138
10107TIP3    H251737   4.064   0.064   3.725 -1.4454 -0.4684 -0.5224
10108TIP3   OH251738   6.492   4.733  15.833 -0.0194  0.0014  1.2153
10108TIP3    H151739   6.550   4.660  15.811 -0.5767 -0.6890  1.9767
10108TIP3    H251740   6.477   4.778  15.750 -1.4639 -2.0728  0.2831
10109TIP3   OH251741   4.048   5.571   2.615 -0.0261  0.2600 -0.4764
10109TIP3    H151742   3.980   5.580   2.548 -0.5821 -5.5787 -1.1497
10109TIP3    H251743   4.130   5.572   2.566  0.1069  2.1887 -0.2967
10110TIP3   OH251744   0.111   2.477   4.252  0.2443  0.5156 -0.0772
10110TIP3    H151745   0.031   2.425   4.246  1.1192 -0.8788 -0.2864
10110TIP3    H251746   0.087   2.554   4.303 -0.9375 -0.4606  0.8978
10111TIP3   OH251747   5.709   2.184  15.518 -0.0073  0.9080 -0.6168
10111TIP3    H151748   5.626   2.161  15.477  0.2638 -0.1472 -0.6045
10111TIP3    H251749   5.704   2.147  15.606  0.9880 -0.3637 -1.0666
10112TIP3   OH251750   1.475   0.451  13.698  0.2923  0.6949 -0.4266
10112TIP3    H151751   1.564   0.471  13.666 -0.2601 -0.0422 -2.6402
10112TIP3    H251752   1.422   0.523  13.664  0.0826  1.3880  1.3035
10113TIP3   OH251753   2.609   0.176  11.958 -0.3840 -0.4906  0.6428
10113TIP3    H151754   2.608   0.155  11.864 -1.5991 -2.6915  1.0714
10113TIP3    H251755   2.610   0.272  11.961  1.0204 -0.3399 -1.5874
10114TIP3   OH251756   2.711   6.291  13.181  0.4235  0.1591 -0.3755
10114TIP3    H151757   2.712   6.257  13.271  1.8530  2.5183  0.6093
10114TIP3    H251758   2.799   6.273  13.148  0.2106  0.1793 -0.9607
10115TIP3   OH251759   1.125   0.903   3.464 -0.3303  0.4763  0.5446
10115TIP3    H151760   1.064   0.942   3.527 -1.7137 -0.9561  0.1674
10115TIP3    H251761   1.176   0.976   3.431 -1.0418  1.5619  1.7490
10116TIP3   OH251762   1.537   2.701   0.272  0.1658  0.7314 -0.5598
10116TIP3    H151763   1.457   2.711   0.221  0.5727 -0.9088 -1.5822
10116TIP3    H251764   1.565   2.791   0.291 -1.7602  1.3342 -0.3836
10117TIP3   OH251765   0.971   4.361  15.305 -0.2922  0.1843  0.2226
10117TIP3    H151766   0.990   4.320  15.220  0.4927 -1.3058  1.0848
10117TIP3    H251767   1.005   4.450  15.297  4.1224 -1.2496  0.4610
10118TIP3   OH251768   3.488   4.272   1.353  0.9164  0.7166 -0.2917
10118TIP3    H151769   3.431   4.326   1.298 -1.1757 -1.1618 -0.0582
10118TIP3    H251770   3.446   4.272   1.439  1.8741  0.2020  0.1898
10119TIP3   OH251771   2.782   2.854  10.573  0.0812 -0.0917 -0.4526
10119TIP3    H151772   2.826   2.779  10.534  0.8017  0.0883 -0.0074
10119TIP3    H251773   2.847   2.891  10.634  0.0533  1.3997 -1.2889
10120TIP3   OH251774   6.214   4.569  13.356 -0.2683 -0.0674 -0.1498
10120TIP3    H151775   6.270   4.641  13.328  0.9758 -0.9935 -0.1206
10120TIP3    H251776   6.148   4.562  13.287 -0.2868  0.9621 -0.2491
10121TIP3   OH251777   1.493   4.551   1.512  0.7638 -0.4965  0.2774
10121TIP3    H151778   1.559   4.588   1.454 -1.5358  1.1199 -1.4685
10121TIP3    H251779   1.477   4.619   1.577  1.2128 -1.1184  1.0506
10122TIP3   OH251780   0.809   5.391  16.804  0.2330  0.2253 -0.0031
10122TIP3    H151781   0.779   5.475  16.838  0.2764 -0.3017  1.3722
10122TIP3    H251782   0.729   5.348  16.772  0.2045  0.7585 -0.6602
10123TIP3   OH251783   1.710   1.757   6.105 -0.2299  0.5906 -0.1999
10123TIP3    H151784   1.798   1.747   6.142 -0.2172  1.7791  0.1575
10123TIP3    H251785   1.665   1.815   6.167 -1.8322 -1.3049  0.5389
10124TIP3   OH251786   2.816   2.537   1.713  0.4080  0.2351 -0.1732
10124TIP3    H151787   2.774   2.493   1.787 -0.5595 -0.6206 -1.1906
10124TIP3    H251788   2.905   2.504   1.711  1.2642  2.1449  2.0891
10125TIP3   OH251789   2.106   6.458  15.330 -0.5084 -0.0026 -0.4990
10125TIP3    H151790   2.145   6.520  15.269  0.0114 -1.1221 -1.3292
10125TIP3    H251791   2.180   6.418  15.375 -0.7828 -0.7374 -0.6907
10126TIP3   OH251792   4.818   5.504   0.230 -0.8289  0.2569  0.5784
10126TIP3    H151793   4.787   5.562   0.299 -0.9539 -0.7905  1.4125
10126TIP3    H251794   4.912   5.522   0.224 -0.7960  0.2599  1.1017
10127TIP3   OH251795   5.487   2.368  12.911  0.5260 -1.0257  0.0290
10127TIP3    H151796   5.496   2.452  12.865 -1.6853  0.3323  1.8935
10127TIP3    H251797   5.530   2.381  12.995 -0.1219 -1.6529  0.4717
10128TIP3   OH251798   1.530   4.031  16.917  0.8153  0.4467  0.3771
10128TIP3    H151799   1.490   4.013  16.831 -0.1752 -1.6401  1.2110
10128TIP3    H251800   1.579   4.112  16.903 -0.5404  1.0044 -1.7589
10129TIP3   OH251801   1.783   0.371  13.916 -0.3666  0.2308  0.0580
10129TIP3    H151802   1.818   0.459  13.898  0.6105 -0.3168 -0.8278
10129TIP3    H251803   1.718   0.357  13.848 -0.8813  0.4608  0.5002
10130TIP3   OH251804   3.107   6.455   6.521 -0.5050 -0.2524 -0.0446
10130TIP3    H151805   3.169   6.382   6.508 -0.7764 -0.2646 -1.3755
10130TIP3    H251806   3.042   6.420   6.581  1.1065 -0.0230  1.9693
10131TIP3   OH251807   1.527   2.911   0.513  0.1106  0.4603 -0.1177
10131TIP3    H151808   1.451   2.856   0.531  1.7682 -1.2869  2.1481
10131TIP3    H251809   1.503   2.961   0.435 -2.4258 -1.6881 -0.8396
10132TIP3   OH251810   3.922   5.222  16.414 -0.1519 -0.3939  0.5328
10132TIP3    H151811   3.898   5.129  16.421 -1.8634 -0.0969 -0.8322
10132TIP3    H251812   4.011   5.220  16.379 -0.6183 -1.5463 -0.7080
10133TIP3   OH251813   1.911   5.210  16.602  0.3798 -0.1985 -0.0662
10133TIP3    H151814   1.926   5.115  16.605  0.4135 -0.2447 -1.2875
10133TIP3    H251815   1.997   5.248  16.618  0.9237 -0.4225 -2.1684
10134TIP3   OH251816   5.032   5.603  12.507  0.4104  0.9706 -0.4354
10134TIP3    H151817   4.992   5.678  12.463  0.4617  0.9865 -0.4543
10134TIP3    H251818   4.965   5.535  12.503  0.2486  1.1111 -0.1564
10135TIP3   OH251819   4.644   3.214   4.562 -0.0552  0.0733 -0.1378
10135TIP3    H151820   4.666   3.188   4.651  0.9108 -0.3445 -0.4907
10135TIP3    H251821   4.726   3.245   4.524 -0.7672  1.7772 -0.3882
10136TIP3   OH251822   2.580   0.098  13.747 -0.3444 -0.5601 -0.2792
10136TIP3    H151823   2.570   0.024  13.807  0.3275 -0.6016 -0.2074
10136TIP3    H251824   2.578   0.175  13.804  1.4816 -0.6502 -0.0254
10137TIP3   OH251825   0.976   5.567   5.065 -0.0120  0.5818 -0.8107
10137TIP3    H151826   1.070   5.558   5.048 -0.1421 -1.1560 -0.7581
10137TIP3    H251827   0.935   5.551   4.980 -0.2517  2.1104 -1.0064
10138TIP3   OH251828   0.035   4.795  11.356 -0.1185 -0.7889  0.2434
10138TIP3    H151829   0.079   4.710  11.353  0.9996 -0.2139  0.2068
10138TIP3    H251830  -0.007   4.804  11.271 -0.2057 -1.2814  0.2336
10139TIP3   OH251831   5.163   0.395   3.636  0.5045 -0.0753 -0.5002
10139TIP3    H151832   5.087   0.421   3.688 -0.1186 -0.6303 -1.0976
10139TIP3    H251833   5.143   0.426   3.548  0.8149 -0.5170 -0.7337
10140TIP3   OH251834   6.225   1.808   0.224  0.1844  0.2257 -0.3507
10140TIP3    H151835   6.196   1.804   0.133 -2.8631 -0.0136  0.5265
10140TIP3    H251836   6.187   1.889   0.258 -1.6855 -1.3451  1.5586
10141TIP3   OH251837   5.539   0.477  14.425  0.5775 -0.2945  0.0018
10141TIP3    H151838   5.564   0.496  14.515  0.1945  0.0763  0.0308
10141TIP3    H251839   5.517   0.562  14.387  0.2238 -0.5100 -0.2840
10142TIP3   OH251840   0.087   0.726  15.251 -0.1594 -0.0966 -0.2935
10142TIP3    H151841   0.079   0.711  15.346  0.2376 -0.8324 -0.3705
10142TIP3    H251842   0.021   0.792  15.232 -3.2545 -2.8867 -0.1892
10143TIP3   OH251843   0.626   2.005   0.138 -0.0673 -0.1446  0.1651
10143TIP3    H151844   0.676   1.927   0.159  0.9508 -0.4573 -2.9347
10143TIP3    H251845   0.691   2.069   0.110 -0.9400  1.6637  2.0003
10144TIP3   OH251846   6.179   5.748   5.558 -0.1632  0.2652  0.1078
10144TIP3    H151847   6.267   5.743   5.521  1.4884 -0.3996  3.6890
10144TIP3    H251848   6.156   5.657   5.579 -1.2878  0.5361  0.1248
10145TIP3   OH251849   2.589   5.938   2.052  0.4412  0.0270 -0.2869
10145TIP3    H151850   2.679   5.963   2.073  0.1273  0.4714  0.5569
10145TIP3    H251851   2.581   5.954   1.958  1.3111 -0.2429 -0.4095
10146TIP3   OH251852   2.245   6.414  15.972  0.8168  0.5170 -0.8582
10146TIP3    H151853   2.194   6.405  16.052  0.7117 -0.8884 -1.0440
10146TIP3    H251854   2.336   6.410  16.000  0.7819 -0.6499 -0.8314
10147TIP3   OH251855   4.518   1.628   3.297 -0.3530  0.1821 -0.0717
10147TIP3    H151856   4.467   1.550   3.274  0.7430 -0.7932  0.7433
10147TIP3    H251857   4.559   1.607   3.380  1.6411  0.7971 -0.8361
10148TIP3   OH251858   5.174   5.292   5.198 -0.3696 -0.2150 -0.5953
10148TIP3    H151859   5.270   5.288   5.198 -0.3817 -0.5612 -0.4778
10148TIP3    H251860   5.151   5.331   5.114 -0.0768  1.1513 -0.0720
10149TIP3   OH251861   0.090   6.460  16.887  0.1084  0.2555  0.0246
10149TIP3    H151862   0.137   6.530  16.840  2.5531 -1.4261 -0.2301
10149TIP3    H251863   0.109   6.381  16.836 -1.9644 -0.7474  0.7205
10150TIP3   OH251864   5.207   4.253  15.925 -0.1341 -0.4703 -0.4466
10150TIP3    H151865   5.133   4.220  15.873  0.1467 -1.6851 -0.1186
10150TIP3    H251866   5.270   4.180  15.925  0.9487  0.4410 -0.4958
10151TIP3   OH251867   1.875   4.335  14.497  0.1997  0.0947 -0.3751
10151TIP3    H151868   1.936   4.396  14.538  1.2251 -0.3942 -1.1130
10151TIP3    H251869   1.931   4.275  14.447 -0.8656 -0.6047 -0.7738
10152TIP3   OH251870   0.076   5.226   4.018 -0.5911  0.3960 -0.2618
10152TIP3    H151871   0.089   5.154   3.956  0.2262 -1.9865  2.4240
10152TIP3    H251872   0.033   5.295   3.968  1.3122 -0.7547 -3.7850
10153TIP3   OH251873   0.769   6.554  13.219 -0.4183 -0.7721  0.0782
10153TIP3    H151874   0.682   6.587  13.244 -0.1420 -1.5896  2.3718
10153TIP3    H251875   0.821   6.562  13.299  1.6626 -0.2713 -1.2577
10154TIP3   OH251876   5.819   4.295  10.521  0.0686  0.1653  1.0499
10154TIP3    H151877   5.738   4.255  10.554  0.1634 -0.4895  0.5243
10154TIP3    H251878   5.873   4.220  10.494 -0.1151  0.6485 -0.8360
10155TIP3   OH251879   2.309   3.288   4.110 -0.5588  0.4134  0.1778
10155TIP3    H151880   2.382   3.347   4.129  0.0765 -0.6917  1.2877
10155TIP3    H251881   2.308   3.281   4.014  0.8139  0.4195  0.1448
10156TIP3   OH251882   4.115   5.983   3.695 -0.7588 -0.4417  0.0839
10156TIP3    H151883   4.071   6.022   3.619  0.5046  0.0795 -0.4273
10156TIP3    H251884   4.080   6.031   3.770 -0.4480  0.5720 -0.3897
10157TIP3   OH251885   2.786   1.594  13.122 -0.3520  0.4595  0.3073
10157TIP3    H151886   2.759   1.661  13.184 -0.8543 -0.1128  0.7191
10157TIP3    H251887   2.879   1.612  13.106  0.0615  0.0236  2.0019
10158TIP3   OH251888   3.274   4.086  15.267 -0.2050  0.1023 -0.5522
10158TIP3    H151889   3.350   4.041  15.302 -0.6698 -0.9691 -0.8672
10158TIP3    H251890   3.203   4.065  15.328 -1.3955 -3.0311 -2.7198
10159TIP3   OH251891   0.039   5.833  12.004 -0.1318  0.3073  0.4281
10159TIP3    H151892  -0.006   5.754  12.035 -1.1271  1.1658  1.2277
10159TIP3    H251893   0.109   5.847  12.067  0.3930 -0.2337 -0.0241
10160TIP3   OH251894   3.026   5.038   1.418 -0.4507 -0.3920  0.3049
10160TIP3    H151895   3.038   5.032   1.323 -1.6713  0.9842  0.0448
10160TIP3    H251896   2.991   4.952   1.443 -1.7259 -0.1943 -0.7410
10161TIP3   OH251897   0.935   2.619  14.958  0.3321  0.1820 -0.9855
10161TIP3    H151898   0.915   2.711  14.980  1.1218  0.6734 -2.2141
10161TIP3    H251899   0.984   2.587  15.033 -1.3688  0.2311  0.2058
10162TIP3   OH251900   0.136   1.128   1.013  0.1979 -0.0514  0.1425
10162TIP3    H151901   0.091   1.067   1.072  2.1864 -0.8456  0.9385
10162TIP3    H251902   0.132   1.085   0.927 -0.4774 -0.1523  0.2220
10163TIP3   OH251903   5.232   2.173  15.918  0.6924  0.0436 -0.0813
10163TIP3    H151904   5.168   2.193  15.987  2.2851 -0.2506  1.5461
10163TIP3    H251905   5.230   2.249  15.861  0.8236  1.2570  1.4734
10164TIP3   OH251906   4.232   3.713   0.409  0.1509 -0.0808  0.2489
10164TIP3    H151907   4.204   3.665   0.332 -0.2830  1.0954 -0.3528
10164TIP3    H251908   4.154   3.759   0.439  0.0180 -1.3878  2.0943
10165TIP3   OH251909   0.383   0.350   3.783 -0.3733 -0.3669 -0.0380
10165TIP3    H151910   0.405   0.376   3.872 -0.3133  1.9051 -0.6571
10165TIP3    H251911   0.464   0.313   3.747  0.1607  0.4982  0.2543
10166TIP3   OH251912   3.197   5.439  16.742  0.1191  0.2808 -0.4170
10166TIP3    H151913   3.152   5.404  16.665 -0.6004  0.8428 -0.2579
10166TIP3    H251914   3.127   5.458  16.804  0.6265  0.6409  0.0517
10167TIP3   OH251915   6.325   5.919   0.388 -0.3269 -0.4086  0.0791
10167TIP3    H151916   6.383   5.864   0.336 -1.3428 -2.0513  0.6175
10167TIP3    H251917   6.237   5.888   0.367 -0.7734 -1.2734  2.8755
10168TIP3   OH251918   2.065   4.278  13.670  0.0823  0.0380 -0.9960
10168TIP3    H151919   2.000   4.220  13.709 -0.6864  1.2115 -0.4585
10168TIP3    H251920   2.013   4.343  13.622  0.6281  2.5721  1.5944
10169TIP3   OH251921   4.400   5.848  10.769 -0.1681 -0.0463  0.0823
10169TIP3    H151922   4.346   5.773  10.792 -1.5515  0.3695 -1.5755
10169TIP3    H251923   4.488   5.813  10.761 -0.7980 -1.5221 -0.7127
10170TIP3   OH251924   1.854   6.151  16.136  0.5953 -0.1771 -0.2258
10170TIP3    H151925   1.791   6.080  16.149 -1.1217  1.3687  0.2092
10170TIP3    H251926   1.937   6.114  16.166 -0.5317 -1.5192  1.4514
10171TIP3   OH251927   2.424   3.928   1.557 -0.1726  0.2736  0.5873
10171TIP3    H151928   2.355   3.993   1.550 -0.5194 -0.0943  0.5855
10171TIP3    H251929   2.487   3.951   1.489 -0.3668  0.5181  0.4938
10172TIP3   OH251930   3.422   0.794   4.917  0.4422 -0.2315  0.5063
10172TIP3    H151931   3.477   0.755   4.985  1.0879 -1.2732 -0.5907
10172TIP3    H251932   3.473   0.869   4.886  0.0407  0.3928  1.3016
10173TIP3   OH251933   4.775   4.277   5.871 -0.3621  0.3695 -0.5616
10173TIP3    H151934   4.777   4.237   5.958  1.4501 -0.1248 -0.7751
10173TIP3    H251935   4.866   4.300   5.854 -0.9695  2.1524 -1.5873
10174TIP3   OH251936   3.488   3.909  15.360  1.0472  0.3281  0.2976
10174TIP3    H151937   3.542   3.831  15.346  1.0536  0.7334 -2.5682
10174TIP3    H251938   3.550   3.975  15.391  1.5404 -0.1223  0.2857
10175TIP3   OH251939   0.188   4.335   5.150  0.0995  0.1833 -0.6078
10175TIP3    H151940   0.118   4.398   5.133  1.0068  1.2631 -0.4760
10175TIP3    H251941   0.210   4.300   5.063 -0.8058 -0.4130 -0.6115
10176TIP3   OH251942   2.473   1.849  13.088 -0.1645 -0.3362  0.6326
10176TIP3    H151943   2.514   1.932  13.113 -0.0447 -0.3654  0.5348
10176TIP3    H251944   2.382   1.871  13.070 -0.1589 -0.2459  0.7169
10177TIP3   OH251945   0.996   4.725   5.360 -0.3029  0.3045 -0.1447
10177TIP3    H151946   0.923   4.717   5.298 -1.5874  1.1445  1.2026
10177TIP3    H251947   1.009   4.636   5.393 -1.5768  0.3434  0.5141
10178TIP3   OH251948   3.441   4.143   2.914 -0.3382  0.3635 -0.1034
10178TIP3    H151949   3.403   4.072   2.966  1.7716  0.6943  2.0548
10178TIP3    H251950   3.513   4.102   2.866  1.9547  1.1466  2.3869
10179TIP3   OH251951   0.416   1.168  15.491  0.1631 -0.7681 -0.2848
10179TIP3    H151952   0.367   1.226  15.434  0.5054  1.4011  1.4836
10179TIP3    H251953   0.506   1.171  15.457  0.1445 -0.4036 -0.3015
10180TIP3   OH251954   0.397   1.280   4.490  0.0467 -0.2620 -0.7438
10180TIP3    H151955   0.406   1.303   4.397 -1.9803  0.2950 -0.8572
10180TIP3    H251956   0.312   1.236   4.495  0.4570 -0.9558  0.7549
10181TIP3   OH251957   0.752   6.323  13.634  0.2229  0.3882 -0.1198
10181TIP3    H151958   0.839   6.355  13.658  0.2326  0.1263  0.2046
10181TIP3    H251959   0.709   6.399  13.596  0.2422  0.8020  0.6530
10182TIP3   OH251960   2.066   5.127   5.003 -0.5878 -0.0616  0.5793
10182TIP3    H151961   2.087   5.080   4.922 -3.6362 -1.5467  0.5146
10182TIP3    H251962   2.123   5.087   5.069 -0.3861 -1.1665 -0.2288
10183TIP3   OH251963   2.837   1.969   0.442 -0.3686  0.0738  0.5918
10183TIP3    H151964   2.848   1.988   0.349 -0.7134  1.5679  0.8316
10183TIP3    H251965   2.921   1.934   0.470  0.1695  0.8751  0.0089
10184TIP3   OH251966   4.724   6.269   5.049 -0.4654 -0.5513 -0.6641
10184TIP3    H151967   4.816   6.267   5.023 -0.3333 -0.5359 -0.2128
10184TIP3    H251968   4.676   6.247   4.970 -0.0493 -1.0448 -0.7847
10185TIP3   OH251969   3.985   0.192   1.561  0.2616 -0.4166 -0.4833
10185TIP3    H151970   4.063   0.137   1.563 -0.0754 -0.8683  0.8152
10185TIP3    H251971   3.914   0.134   1.586 -0.1612  0.5059  0.5327
10186TIP3   OH251972   5.730   2.519  14.002 -0.4978  0.3276 -0.0556
10186TIP3    H151973   5.780   2.478  13.931 -0.0352 -0.3096  0.6268
10186TIP3    H251974   5.676   2.584  13.958 -0.1494  0.0082 -0.9858
10187TIP3   OH251975   2.555   6.334   2.081 -0.6243 -0.4515  0.2822
10187TIP3    H151976   2.516   6.421   2.092  1.0043  0.9071 -3.0505
10187TIP3    H251977   2.490   6.285   2.031 -0.6925 -0.4048  0.3251
10188TIP3   OH251978   0.439   3.812   2.536 -0.3475  0.1510  0.1826
10188TIP3    H151979   0.496   3.841   2.465 -0.8729  1.6033  0.3188
10188TIP3    H251980   0.449   3.716   2.538  0.2946  0.1672 -1.3036
10189TIP3   OH251981   2.895   6.110   4.239 -0.1887 -0.1114 -0.0530
10189TIP3    H151982   2.820   6.128   4.295 -0.3045  1.0516 -0.5612
10189TIP3    H251983   2.940   6.037   4.282 -2.2523 -1.6650 -0.3735
10190TIP3   OH251984   0.270   1.818   1.083 -1.0067 -0.3868 -0.0116
10190TIP3    H151985   0.227   1.903   1.070 -0.7429  0.0315  1.5714
10190TIP3    H251986   0.236   1.787   1.167  0.4731 -0.8385  0.4484
10191TIP3   OH251987   5.989   3.100  15.288 -0.2425 -0.4401  0.8557
10191TIP3    H151988   6.048   3.170  15.262 -0.6285  0.0274  1.2184
10191TIP3    H251989   6.047   3.028  15.314  0.1599 -0.0602  1.0162
10192TIP3   OH251990   4.747   1.720  13.308  0.2780 -0.4039  0.1755
10192TIP3    H151991   4.712   1.809  13.312 -1.3049 -1.0078  0.1274
10192TIP3    H251992   4.775   1.701  13.397 -0.1993 -0.1835  0.3729
10193TIP3   OH251993   5.758   6.199   0.884 -0.3443 -0.1649 -0.5657
10193TIP3    H151994   5.798   6.209   0.797 -0.8736  0.9591 -0.7029
10193TIP3    H251995   5.813   6.134   0.928  1.1114  0.6878 -1.0497
10194TIP3   OH251996   4.121   0.783   3.482  0.1522 -0.5190 -0.2661
10194TIP3    H151997   4.112   0.809   3.390 -1.2059 -0.0111 -0.0073
10194TIP3    H251998   4.216   0.779   3.496  0.4711 -2.6901 -2.2523
10195TIP3   OH251999   0.058   3.283  13.384 -0.5236  0.5670 -0.2928
10195TIP3    H152000   0.016   3.198  13.400  1.3272 -0.2119  0.6971
10195TIP3    H252001   0.032   3.337  13.459 -1.2389  0.6968 -0.6296
10196TIP3   OH252002   2.649   3.338  13.140  0.4148 -0.0353 -0.2528
10196TIP3    H152003   2.619   3.428  13.128 -1.9548 -0.8175 -0.5724
10196TIP3    H252004   2.745   3.345  13.142  0.2840  2.5368  0.2706
10197TIP3   OH252005   3.014   4.512  11.288 -0.2091 -0.1432  0.3960
10197TIP3    H152006   2.986   4.442  11.229 -0.6503 -0.7180  1.2704
10197TIP3    H252007   3.057   4.576  11.231 -1.8883  0.0036 -0.7634
10198TIP3   OH252008   0.289   5.983  16.686  0.2428  0.3068 -0.3169
10198TIP3    H152009   0.342   6.030  16.751 -0.6371 -0.4431  0.9972
10198TIP3    H252010   0.326   6.008  16.602  1.7670  0.9078  0.4968
10199TIP3   OH252011   4.730   0.818  15.089  0.0046 -0.2628 -0.2885
10199TIP3    H152012   4.693   0.742  15.134  1.8325 -1.1506 -0.1891
10199TIP3    H252013   4.681   0.823  15.006 -0.2114 -1.4909 -0.2543
10200TIP3   OH252014   4.437   4.079  11.871  0.1036 -0.1681  0.0589
10200TIP3    H152015   4.387   4.019  11.815 -0.8424 -1.1055  1.8457
10200TIP3    H252016   4.507   4.111  11.814 -0.2031 -1.8717 -1.3742
10201TIP3   OH252017   2.019   1.112   3.384 -0.1710 -0.4848 -0.3973
10201TIP3    H152018   1.963   1.188   3.370  0.5253  0.1840  0.2994
10201TIP3    H252019   2.101   1.149   3.417 -1.3709 -1.7449  4.8914
10202TIP3   OH252020   6.756   5.016   1.687 -0.0825  0.5174 -0.5498
10202TIP3    H152021   6.689   5.008   1.754  1.5859 -1.2217  0.9923
10202TIP3    H252022   6.712   4.990   1.606 -1.8681  1.7294 -0.0250
10203TIP3   OH252023   3.217   6.175  16.277 -0.0782 -0.1016  0.4066
10203TIP3    H152024   3.123   6.173  16.297 -0.2170  0.5264 -0.1418
10203TIP3    H252025   3.252   6.097  16.320 -0.7055  0.1036  1.3117
10204TIP3   OH252026   6.175   6.129  14.018  0.2800 -0.2236  0.2118
10204TIP3    H152027   6.163   6.035  14.034 -0.4840 -0.1432  0.1681
10204TIP3    H252028   6.122   6.171  14.086 -1.4158  0.1480 -1.2556
10205TIP3   OH252029   4.640   1.005   2.328 -0.7279 -0.4790  0.5128
10205TIP3    H152030   4.623   0.948   2.254 -2.4231  0.5827  0.0107
10205TIP3    H252031   4.554   1.017   2.369 -0.5126  1.9079  0.4006
10206TIP3   OH252032   3.083   3.530  15.402 -0.3374  0.2348 -0.3778
10206TIP3    H152033   3.074   3.599  15.468  2.0316  0.1495  0.1107
10206TIP3    H252034   3.156   3.558  15.348 -0.6109 -0.9511 -1.4073
10207TIP3   OH252035   3.463   2.841   4.080 -0.2773  0.5169  0.0112
10207TIP3    H152036   3.378   2.878   4.102  0.0169  1.8244 -0.8854
10207TIP3    H252037   3.444   2.770   4.018 -0.7821 -0.0838  0.8449
10208TIP3   OH252038   3.572   0.984  13.388  0.7403 -0.6902 -0.4251
10208TIP3    H152039   3.509   1.025  13.328  1.9821 -0.0499 -1.3232
10208TIP3    H252040   3.581   1.047  13.460  1.6769  0.0651 -1.1758
10209TIP3   OH252041   4.265   0.734  15.727 -0.3013  0.2378 -0.9085
10209TIP3    H152042   4.206   0.715  15.654  0.0846 -0.1198 -1.1232
10209TIP3    H252043   4.222   0.694  15.803  0.2349 -1.0318 -1.2605
10210TIP3   OH252044   0.625   6.078   2.169 -0.1478 -0.0333 -0.2957
10210TIP3    H152045   0.647   6.171   2.182  0.5263 -0.2097 -0.1205
10210TIP3    H252046   0.546   6.079   2.116 -0.9034  0.6686  0.8087
10211TIP3   OH252047   0.583   6.462   1.594  0.4144 -0.2814 -0.0247
10211TIP3    H152048   0.567   6.552   1.622 -0.9069 -0.5594  0.1732
10211TIP3    H252049   0.644   6.427   1.659  0.8938  0.4362 -0.0715
10212TIP3   OH252050   4.066   5.804   0.695 -0.6537  0.1160 -0.3203
10212TIP3    H152051   4.093   5.871   0.757 -1.8224  1.4153 -1.1661
10212TIP3    H252052   4.140   5.796   0.634  0.0466 -0.3829  0.5685
10213TIP3   OH252053   1.135   5.139   3.970 -0.3136  0.0830 -0.6359
10213TIP3    H152054   1.180   5.057   3.992 -0.7073 -0.2579 -1.0950
10213TIP3    H252055   1.166   5.161   3.882 -0.7878  0.0257 -0.8174
10214TIP3   OH252056   2.272   0.248  11.878 -0.0260 -0.0825 -0.4219
10214TIP3    H152057   2.258   0.165  11.923  0.5241 -0.1556 -0.3846
10214TIP3    H252058   2.244   0.315  11.940  1.7056 -0.1229  0.4556
10215TIP3   OH252059   3.817   4.349  14.933 -0.3594 -0.5728  0.2527
10215TIP3    H152060   3.790   4.339  14.841 -1.4510  0.3442  0.4558
10215TIP3    H252061   3.899   4.299  14.939  0.5139  0.5368 -1.5741
10216TIP3   OH252062   6.162   1.910  13.831  0.0362 -0.6025 -0.3867
10216TIP3    H152063   6.221   1.841  13.860  0.6265  0.0128 -0.0866
10216TIP3    H252064   6.076   1.869  13.828  0.5754 -1.6994 -1.4770
10217TIP3   OH252065   6.715   3.921   0.887 -0.2816  0.7795  0.6010
10217TIP3    H152066   6.741   3.842   0.935 -0.3239  0.7586  0.5901
10217TIP3    H252067   6.744   3.905   0.797 -1.5505  0.1532  0.2771
10218TIP3   OH252068   4.649   4.720  11.611  0.3915 -0.3042 -0.5209
10218TIP3    H152069   4.707   4.787  11.647 -0.0940  0.3026 -0.8427
10218TIP3    H252070   4.590   4.768  11.552 -0.0397 -0.9957 -0.6725
10219TIP3   OH252071   5.883   5.200   1.520  0.0022 -0.5904 -0.3673
10219TIP3    H152072   5.882   5.185   1.426 -1.9986 -1.2558 -0.2744
10219TIP3    H252073   5.804   5.252   1.537  0.5899 -0.0662  0.8885
10220TIP3   OH252074   2.839   5.628  14.154 -0.3439 -0.1658  0.3165
10220TIP3    H152075   2.766   5.596  14.207 -0.4154 -0.3390  0.1114
10220TIP3    H252076   2.906   5.651  14.219 -0.3523 -0.5804  0.4735
10221TIP3   OH252077   5.371   0.994  14.450  0.2257  0.0751  0.2444
10221TIP3    H152078   5.431   1.055  14.493  0.5188  1.1312 -1.5566
10221TIP3    H252079   5.390   0.909  14.490  1.2394  0.8006  1.3787
10222TIP3   OH252080   0.380   3.068  11.385 -0.0539 -0.0404 -0.2057
10222TIP3    H152081   0.330   3.138  11.427  0.7071 -0.8620  2.2353
10222TIP3    H252082   0.424   3.024  11.457  2.5939 -0.6266 -2.0459
10223TIP3   OH252083   4.886   0.349  12.001 -0.1093 -0.4255  1.2296
10223TIP3    H152084   4.831   0.380  11.929 -0.0083 -1.1517  0.8355
10223TIP3    H252085   4.968   0.399  11.991 -0.3099 -0.0986  1.1995
10224TIP3   OH252086   2.550   6.506  13.135  0.2250  0.7110  0.6390
10224TIP3    H152087   2.475   6.448  13.150  0.2859  0.6551  0.7335
10224TIP3    H252088   2.626   6.450  13.149  0.2924  0.5133 -0.4379
10225TIP3   OH252089   1.356   2.247  13.753  0.1683 -0.0569  0.5451
10225TIP3    H152090   1.352   2.302  13.831 -0.6834  1.5211 -0.5594
10225TIP3    H252091   1.390   2.304  13.685 -0.5716 -0.9488 -0.6096
10226TIP3   OH252092   0.593   1.926   3.255  0.2262 -0.0384  0.5912
10226TIP3    H152093   0.640   1.870   3.316 -1.6287 -1.7100  0.6104
10226TIP3    H252094   0.509   1.943   3.299 -0.8664 -0.6918 -1.1424
10227TIP3   OH252095   0.550   0.077   1.115  0.3679 -0.2485 -0.6905
10227TIP3    H152096   0.540   0.008   1.180 -1.0000  1.3616  0.9150
10227TIP3    H252097   0.480   0.061   1.052  1.3928 -1.5241 -1.5573
10228TIP3   OH252098   4.467   0.973  16.718  0.2599 -0.4103 -0.9911
10228TIP3    H152099   4.375   0.991  16.697  0.0371  0.5133  0.5819
10228TIP3    H252100   4.504   0.940  16.637 -0.7297  2.1034 -2.5776
10229TIP3   OH252101   1.046   0.905  11.952 -0.2494  0.4809  0.0505
10229TIP3    H152102   1.100   0.908  12.031  1.7599  1.0326 -1.2686
10229TIP3    H252103   0.990   0.982  11.957 -2.0654 -0.8422  2.1350
10230TIP3   OH252104   1.905   3.139   6.286  0.1615 -0.2098  0.2781
10230TIP3    H152105   1.902   3.234   6.289 -0.7094 -0.2568  2.6819
10230TIP3    H252106   1.813   3.112   6.280  0.2333 -0.9056  1.9390
10231TIP3   OH252107   0.393   1.592   4.366  0.2554 -0.6751  0.1342
10231TIP3    H152108   0.368   1.660   4.428  0.6926 -0.6751  0.3185
10231TIP3    H252109   0.315   1.576   4.314  0.6108  1.1651 -1.0455
10232TIP3   OH252110   3.090   0.420   1.991 -0.1942 -0.0099  0.1520
10232TIP3    H152111   3.034   0.342   1.998  2.2005 -1.8330  0.1336
10232TIP3    H252112   3.089   0.458   2.079  1.1368 -2.0024  1.1061
10233TIP3   OH252113   0.792   3.886  16.932  0.1417  0.3247  0.0168
10233TIP3    H152114   0.860   3.821  16.946 -0.0816  0.1581  0.3261
10233TIP3    H252115   0.771   3.918  17.019 -0.4046  0.1461 -0.0500
10234TIP3   OH252116   4.905   2.636  16.164 -0.2551 -0.3327 -0.0116
10234TIP3    H152117   4.941   2.725  16.164  0.3693 -0.5799  0.0461
10234TIP3    H252118   4.854   2.632  16.083 -0.2231  0.0562 -0.0557
10235TIP3   OH252119   1.675   5.816   4.489 -0.2565  0.1663  0.2077
10235TIP3    H152120   1.758   5.785   4.454  0.3531  0.1811  1.5746
10235TIP3    H252121   1.698   5.859   4.571 -1.7082 -0.6032  1.0566
10236TIP3   OH252122   3.745   1.565  13.040 -0.0608 -0.1704  0.0842
10236TIP3    H152123   3.758   1.569  13.135 -0.0038 -0.1709  0.0762
10236TIP3    H252124   3.790   1.643  13.007  0.1332 -0.3048  0.0319
10237TIP3   OH252125   5.770   0.373  12.088 -0.2654 -0.0754 -0.2413
10237TIP3    H152126   5.805   0.455  12.054  0.8746 -0.1228  0.7313
10237TIP3    H252127   5.741   0.325  12.010  2.6359 -0.3800 -1.2704
10238TIP3   OH252128   1.450   5.333   1.747 -0.0053  0.0312 -0.2306
10238TIP3    H152129   1.385   5.269   1.716 -0.0690  0.8457 -1.9022
10238TIP3    H252130   1.534   5.296   1.722  0.1816 -0.8324  1.5775
10239TIP3   OH252131   5.359   5.815  11.929  0.0696  0.1609  0.6110
10239TIP3    H152132   5.312   5.731  11.926  2.4982 -1.2812 -1.2307
10239TIP3    H252133   5.427   5.801  11.994  0.2546  0.8529  0.5718
10240TIP3   OH252134   3.942   2.171   0.094 -0.0424  0.1159  0.3468
10240TIP3    H152135   3.929   2.098   0.154  0.2630 -1.6368 -1.5930
10240TIP3    H252136   4.036   2.170   0.076 -0.0851  0.8025  0.0535
10241TIP3   OH252137   6.301   4.908  13.070  0.2613  0.0357  0.1591
10241TIP3    H152138   6.367   4.867  13.014  1.5061  0.9795  0.8828
10241TIP3    H252139   6.311   4.865  13.154 -1.3582 -1.1218 -0.1890
10242TIP3   OH252140   5.344   1.722   5.605  0.4138 -0.6875  0.1572
10242TIP3    H152141   5.338   1.689   5.695  1.7346 -3.6368 -0.7115
10242TIP3    H252142   5.380   1.649   5.555  1.9129  1.5941 -2.3902
10243TIP3   OH252143   4.073   1.091  13.318 -0.1783  0.3963 -0.2799
10243TIP3    H152144   4.125   1.107  13.397 -0.6622  0.4839  0.0193
10243TIP3    H252145   4.131   1.038  13.262 -0.5214 -1.2983  0.9072
10244TIP3   OH252146   0.275   2.590  13.036 -0.0291  0.4022  0.1840
10244TIP3    H152147   0.189   2.613  13.071  0.0070 -0.3615  0.8060
10244TIP3    H252148   0.336   2.608  13.108  0.1156 -0.6401  0.3437
10245TIP3   OH252149   5.464   5.009   2.648  0.1314 -0.5359 -0.5353
10245TIP3    H152150   5.426   5.097   2.647 -0.7354 -0.8804  0.2554
10245TIP3    H252151   5.396   4.954   2.610 -0.1438 -1.1408  0.7588
10246TIP3   OH252152   1.533   5.937  16.734  0.3318 -0.2644  0.1044
10246TIP3    H152153   1.484   5.865  16.774 -0.3156  0.6153  0.9260
10246TIP3    H252154   1.537   6.004  16.802  0.4368  0.7061 -0.8342
10247TIP3   OH252155   5.203   4.047  10.472 -0.7220 -0.0145  0.5869
10247TIP3    H152156   5.285   4.080  10.434 -1.4040  1.2193  0.0982
10247TIP3    H252157   5.208   4.070  10.564 -0.5305  0.1018  0.5486
10248TIP3   OH252158   1.747   1.315  13.779  0.1294 -0.4731 -0.1059
10248TIP3    H152159   1.767   1.334  13.688  0.1621  1.3065  0.2380
10248TIP3    H252160   1.655   1.339  13.790  0.7883  1.8465  0.9021
10249TIP3   OH252161   3.651   1.548   3.978 -0.0380 -0.0894 -0.1992
10249TIP3    H152162   3.727   1.508   4.021 -0.5078 -0.6600  0.1207
10249TIP3    H252163   3.647   1.636   4.014 -0.7878 -0.7454  1.4424
10250TIP3   OH252164   5.506   4.674   5.367  0.0345 -0.0127  0.2951
10250TIP3    H152165   5.539   4.641   5.283  1.4829 -1.7423  1.4880
10250TIP3    H252166   5.492   4.768   5.351  0.0145 -0.3397 -1.9445
10251TIP3   OH252167   5.876   5.781   6.517 -0.4456 -0.6443  0.2188
10251TIP3    H152168   5.810   5.714   6.535 -0.6269 -0.1781  1.3335
10251TIP3    H252169   5.827   5.863   6.515 -0.3125 -0.5681 -1.6836
10252TIP3   OH252170   6.137   5.151   3.823 -0.3081 -0.2155 -0.3454
10252TIP3    H152171   6.142   5.246   3.812  0.2330  0.0621  1.8157
10252TIP3    H252172   6.063   5.138   3.883 -0.5243 -1.1891 -0.8064
10253TIP3   OH252173   2.083   3.567   6.003  0.0873  0.2211  0.3888
10253TIP3    H152174   2.118   3.605   5.923 -0.2505  0.9660  0.5887
10253TIP3    H252175   2.032   3.637   6.043 -1.6895 -0.8235  0.0886
10254TIP3   OH252176   1.859   0.873  13.564  0.0297  0.3634  0.1099
10254TIP3    H152177   1.945   0.914  13.567 -0.1074  0.7296 -0.6771
10254TIP3    H252178   1.814   0.918  13.492 -0.2528 -0.9092 -0.5413
10255TIP3   OH252179   5.977   6.157  14.504  0.3536  0.2136 -0.0592
10255TIP3    H152180   5.931   6.119  14.579 -0.9709 -0.9267 -1.3880
10255TIP3    H252181   5.917   6.223  14.470 -0.1429 -0.9301 -1.5084
10256TIP3   OH252182   2.553   0.815   3.016 -0.5965  0.3747  0.0315
10256TIP3    H152183   2.627   0.755   3.006 -0.6270  0.5243 -1.2500
10256TIP3    H252184   2.557   0.871   2.939 -3.2911 -0.9975 -1.2247
10257TIP3   OH252185   5.381   2.968  17.111  0.1480  0.0038  0.0291
10257TIP3    H152186   5.366   3.020  17.032 -0.3681 -0.9695 -0.5380
10257TIP3    H252187   5.294   2.942  17.140  0.1867  1.6864  1.8939
10258TIP3   OH252188   3.227   1.536   1.473  0.3483 -0.4013 -0.6767
10258TIP3    H152189   3.267   1.576   1.396 -0.4784 -0.9755 -1.4255
10258TIP3    H252190   3.242   1.599   1.543  0.5395  0.4433 -1.4535
10259TIP3   OH252191   2.965   4.368  13.083 -0.5200 -0.3600  0.1286
10259TIP3    H152192   3.042   4.352  13.138 -0.1338 -0.2796 -0.3822
10259TIP3    H252193   2.959   4.291  13.027  0.3535  0.5042 -1.1828
10260TIP3   OH252194   5.607   4.919   3.750 -0.2725  0.6243 -0.3901
10260TIP3    H152195   5.695   4.955   3.760  1.1026 -1.1747 -4.1637
10260TIP3    H252196   5.559   4.985   3.700 -1.4987  1.9603  2.3258
10261TIP3   OH252197   4.171   3.585   1.068  0.3959 -0.2207  0.0266
10261TIP3    H152198   4.098   3.644   1.086 -1.2625 -2.3289  0.5892
10261TIP3    H252199   4.210   3.569   1.154  1.7062  1.0425 -0.2931
10262TIP3   OH252200   6.197   4.113   6.143 -0.0334  0.0975 -0.2729
10262TIP3    H152201   6.203   4.073   6.056 -2.7942  2.2051 -1.6258
10262TIP3    H252202   6.271   4.174   6.146  1.5077 -1.6917 -0.0584
10263TIP3   OH252203   0.394   1.912   1.336  0.1944 -0.1087 -0.0987
10263TIP3    H152204   0.336   1.848   1.296 -0.2447  0.2541 -0.0539
10263TIP3    H252205   0.382   1.900   1.430 -0.4595  0.5403 -0.0914
10264TIP3   OH252206   6.108   4.712   4.794  0.0906 -0.2788  0.1053
10264TIP3    H152207   6.066   4.731   4.877  2.6559 -1.3294  1.7762
10264TIP3    H252208   6.103   4.617   4.785 -1.9018 -0.0737 -2.0440
10265TIP3   OH252209   4.518   1.973  14.306  0.2290 -0.1132 -0.0589
10265TIP3    H152210   4.543   1.953  14.397  1.1634 -0.4997 -0.3853
10265TIP3    H252211   4.544   2.065  14.294 -0.3268  0.0818  0.2014
10266TIP3   OH252212   1.908   5.043  13.944 -0.3374 -0.5442 -0.4090
10266TIP3    H152213   1.929   5.024  14.035 -0.4572 -0.5539 -0.3823
10266TIP3    H252214   1.858   4.967  13.914  0.1688 -0.7926 -0.6453
10267TIP3   OH252215   0.277   5.430   2.713  0.1149  0.0541  0.0856
10267TIP3    H152216   0.215   5.410   2.783  1.5577 -1.2377  1.0588
10267TIP3    H252217   0.350   5.472   2.758 -0.4978  2.6991 -1.1995
10268TIP3   OH252218   1.499   4.964   3.470  0.2954  0.5386  0.4174
10268TIP3    H152219   1.566   4.924   3.414  0.0111  1.7063 -0.7991
10268TIP3    H252220   1.546   4.989   3.549  0.8654 -0.4815  0.4226
10269TIP3   OH252221   3.424   2.054   2.768 -0.1580  0.7882  0.2040
10269TIP3    H152222   3.380   1.996   2.706  0.0786  2.5553 -1.6977
10269TIP3    H252223   3.422   2.140   2.727  3.7067  1.2789  0.7098
10270TIP3   OH252224   0.047   2.343  11.892  0.0763 -0.2691 -0.2853
10270TIP3    H152225   0.035   2.256  11.931  0.7888  0.0373  0.6450
10270TIP3    H252226  -0.031   2.356  11.838 -1.0813 -0.6026  1.2466
10271TIP3   OH252227   5.535   1.316  10.969  0.4231 -0.0837  0.1557
10271TIP3    H152228   5.629   1.316  10.986  0.3545 -0.7708  0.5309
10271TIP3    H252229   5.516   1.407  10.945  0.6318  0.8751  3.2029
10272TIP3   OH252230   5.134   3.284   2.814 -0.0615 -0.5284  0.7664
10272TIP3    H152231   5.139   3.250   2.724 -1.1692  1.0104  0.0570
10272TIP3    H252232   5.095   3.213   2.864 -1.0800 -0.8160 -0.3676
10273TIP3   OH252233   4.061   3.274   2.242  0.1285 -0.0706  0.2700
10273TIP3    H152234   4.056   3.364   2.274  1.5283  0.6373 -1.3415
10273TIP3    H252235   4.116   3.279   2.164 -0.6027 -2.1751 -0.4638
10274TIP3   OH252236   0.244   3.428   1.369 -0.1414 -0.6171  0.3976
10274TIP3    H152237   0.308   3.414   1.439 -0.3998 -1.3804  0.4936
10274TIP3    H252238   0.282   3.498   1.316  1.2450 -1.6784 -0.0831
10275TIP3   OH252239   0.470   6.771  13.717  0.3718  0.2135 -0.1462
10275TIP3    H152240   0.537   6.838  13.732  0.1555  0.3659  0.1578
10275TIP3    H252241   0.435   6.753  13.804  1.3706 -1.2946 -0.0194
10276TIP3   OH252242   2.419   0.754   4.325  0.6366  0.2688 -0.0734
10276TIP3    H152243   2.437   0.767   4.231  0.6103 -0.1482 -0.1369
10276TIP3    H252244   2.391   0.663   4.331 -0.3916  0.5858  0.1835
10277TIP3   OH252245   3.745   1.307  12.332  0.5061 -0.2108 -0.1775
10277TIP3    H152246   3.776   1.268  12.250  0.6505 -0.0344 -0.2069
10277TIP3    H252247   3.720   1.232  12.385  2.7304 -0.5077  0.5707
10278TIP3   OH252248   3.079   5.491   0.354  0.2414  0.0551  0.3886
10278TIP3    H152249   2.991   5.527   0.350 -0.8929 -2.4802  0.3312
10278TIP3    H252250   3.092   5.469   0.446 -0.4569 -2.2423  0.0180
10279TIP3   OH252251   4.888   0.680  14.131  0.5163 -0.1074 -0.5115
10279TIP3    H152252   4.936   0.740  14.189 -0.3802 -0.7830  0.9938
10279TIP3    H252253   4.913   0.707  14.043  0.3408  2.3314  0.1098
10280TIP3   OH252254   1.044   1.582   0.001 -0.3146 -0.3217  0.4125
10280TIP3    H152255   1.007   1.625   0.078 -2.8925 -0.6097 -0.5874
10280TIP3    H252256   1.042   1.649  -0.067 -0.5859 -0.8557 -0.1078
10281TIP3   OH252257   1.526   1.859  13.838 -0.2524  0.1841 -0.3235
10281TIP3    H152258   1.595   1.924  13.826 -1.9360  2.1481 -0.1682
10281TIP3    H252259   1.532   1.801  13.763  0.6427  1.2119 -1.0635
10282TIP3   OH252260   4.220   6.467   1.005  0.3074  0.2457  0.0898
10282TIP3    H152261   4.220   6.393   0.944  2.5966  1.0249 -0.9551
10282TIP3    H252262   4.134   6.508   0.993  0.7753  0.5702 -2.9201
10283TIP3   OH252263   5.385   0.882   3.040 -0.5852  0.0858  0.1705
10283TIP3    H152264   5.301   0.843   3.063 -0.5958 -0.9260 -1.4017
10283TIP3    H252265   5.450   0.817   3.067 -0.4560 -0.0457 -0.4335
10284TIP3   OH252266   3.293   1.649   2.337 -0.6797  0.2379  0.4154
10284TIP3    H152267   3.209   1.693   2.328 -1.7641 -1.8966 -0.6052
10284TIP3    H252268   3.273   1.556   2.327  1.7298 -0.3891  0.7252
10285TIP3   OH252269   0.357   1.114   4.180  0.6043 -0.3207 -0.0727
10285TIP3    H152270   0.360   1.047   4.248  0.7318 -1.3895 -1.0981
10285TIP3    H252271   0.307   1.186   4.219 -0.4309 -1.4241  0.7037
10286TIP3   OH252272   0.459   2.165   2.710  0.1504 -0.0673  0.1123
10286TIP3    H152273   0.502   2.115   2.779  2.1192  0.8440 -0.3717
10286TIP3    H252274   0.487   2.123   2.628  1.4433  1.4226 -0.2785
10287TIP3   OH252275   0.641   6.752  12.919 -0.7778  0.2764 -0.7367
10287TIP3    H152276   0.647   6.662  12.887 -2.7474  0.0528 -0.6156
10287TIP3    H252277   0.652   6.806  12.841 -2.5713 -0.1860 -1.3546
10288TIP3   OH252278   4.780   6.475   0.865 -0.2410 -0.5238 -0.3674
10288TIP3    H152279   4.696   6.506   0.831  0.2125 -0.2164 -1.2305
10288TIP3    H252280   4.788   6.385   0.832 -0.1872 -0.5249 -0.3519
10289TIP3   OH252281   0.757   5.466   4.700 -0.4232 -0.4861 -0.6582
10289TIP3    H152282   0.841   5.510   4.688 -0.6287 -0.1398 -0.8392
10289TIP3    H252283   0.703   5.530   4.746 -0.2190 -1.1316  0.5239
10290TIP3   OH252284   2.313   1.749   5.844  0.9493 -0.4125  0.0533
10290TIP3    H152285   2.275   1.663   5.830  0.4626 -0.6911  2.6209
10290TIP3    H252286   2.240   1.803   5.875  1.7727  0.1568  1.0852
10291TIP3   OH252287   2.213   2.967  12.905  0.0564 -0.1685 -0.3089
10291TIP3    H152288   2.198   3.047  12.956  0.7578  1.4392 -2.4758
10291TIP3    H252289   2.235   2.999  12.818  1.8513 -2.7083 -0.8726
10292TIP3   OH252290   5.185   0.868  13.422 -0.3899 -0.5251  0.1003
10292TIP3    H152291   5.168   0.884  13.329  0.4628  0.0044  0.0324
10292TIP3    H252292   5.134   0.935  13.467 -0.3352 -0.4127 -0.0047
10293TIP3   OH252293   3.588   5.614  12.183  0.7626  0.1292 -0.4487
10293TIP3    H152294   3.585   5.651  12.271 -0.7231  1.7282 -1.1147
10293TIP3    H252295   3.499   5.627  12.148  1.5606  0.3972 -2.5197
10294TIP3   OH252296   3.846   5.276  16.099 -0.0898 -0.1431 -0.0065
10294TIP3    H152297   3.905   5.202  16.086  0.2785  0.2521 -0.5803
10294TIP3    H252298   3.900   5.353  16.087 -0.5934  0.2259  0.0579
10295TIP3   OH252299   5.896   1.169  12.348  0.0395  0.1516 -0.2283
10295TIP3    H152300   5.891   1.099  12.283 -1.1946 -0.7369  0.7823
10295TIP3    H252301   5.989   1.192  12.351  0.5093 -1.6210 -0.4110
10296TIP3   OH252302   1.890   3.383   6.178  0.3843  0.5875  0.0908
10296TIP3    H152303   1.972   3.410   6.219  0.0591  0.4623  0.8398
10296TIP3    H252304   1.833   3.460   6.187 -0.1244  0.1162  1.0883
10297TIP3   OH252305   2.199   4.476   6.506 -0.4499 -0.3746 -0.5571
10297TIP3    H152306   2.211   4.569   6.524  0.8861 -0.4888 -0.7781
10297TIP3    H252307   2.115   4.454   6.546 -0.6223  0.8504 -0.2249
10298TIP3   OH252308   2.372   4.039  12.935  0.1327  0.1407  0.3363
10298TIP3    H152309   2.393   4.132  12.932 -0.1462  0.1893 -0.3325
10298TIP3    H252310   2.331   4.021  12.850 -1.3234 -0.2268  1.0745
10299TIP3   OH252311   4.719   3.317   1.432  0.3702  0.1035 -0.2813
10299TIP3    H152312   4.736   3.249   1.498  0.1808 -0.0676 -0.4062
10299TIP3    H252313   4.687   3.268   1.356 -0.6873  0.4048 -0.0526
10300TIP3   OH252314   4.505   6.573  14.559 -0.1848 -0.3572  0.1125
10300TIP3    H152315   4.455   6.556  14.639 -0.0038  1.8284  0.7505
10300TIP3    H252316   4.572   6.636  14.586 -0.6861  1.1383 -1.9372
10301TIP3   OH252317   1.750   1.800   3.295 -0.1593 -0.1481 -0.4294
10301TIP3    H152318   1.764   1.839   3.208  3.6676  2.2149  0.9763
10301TIP3    H252319   1.796   1.717   3.292  0.4835  0.2031 -0.5448
10302TIP3   OH252320   0.272   3.185  11.002  0.4527 -0.0185 -0.1326
10302TIP3    H152321   0.311   3.242  10.935 -1.2546 -0.3790 -1.5219
10302TIP3    H252322   0.182   3.218  11.012  0.0683 -1.2152  0.5218
10303TIP3   OH252323   5.619   0.675  16.435  0.0875  0.1299 -0.3808
10303TIP3    H152324   5.693   0.658  16.376 -0.5828 -0.3034 -1.1231
10303TIP3    H252325   5.658   0.687  16.521  1.0230 -0.0805 -0.7693
10304TIP3   OH252326   2.841   6.554   2.346 -0.8265 -0.0103  0.0357
10304TIP3    H152327   2.833   6.474   2.295 -0.7778  0.2426 -0.3734
10304TIP3    H252328   2.804   6.532   2.432  0.9609 -1.0703  0.5977
10305TIP3   OH252329   3.807   6.624   2.476 -0.1857 -0.3267 -0.0919
10305TIP3    H152330   3.751   6.645   2.550 -0.0826 -0.7400  0.1068
10305TIP3    H252331   3.800   6.529   2.466  1.3021 -0.5428  0.6248
10306TIP3   OH252332   1.110   0.483   5.778  0.4699  0.1549  0.0838
10306TIP3    H152333   1.041   0.457   5.717 -0.0784  0.8490  0.3847
10306TIP3    H252334   1.161   0.404   5.793  0.2665 -0.1612 -0.8281
10307TIP3   OH252335   5.092   2.743   4.596 -0.3387 -0.4087 -0.2812
10307TIP3    H152336   5.102   2.838   4.591 -2.4344 -0.1998 -1.4834
10307TIP3    H252337   5.068   2.717   4.507  0.5945 -2.1311 -0.0588
10308TIP3   OH252338   0.433   1.491   2.528 -0.1615  0.0378 -0.1446
10308TIP3    H152339   0.493   1.431   2.483 -1.4021  0.3821 -2.4012
10308TIP3    H252340   0.455   1.481   2.621  0.8521 -2.5897 -0.5703
10309TIP3   OH252341   6.705   6.052   2.018 -0.1354  0.0803 -0.7701
10309TIP3    H152342   6.616   6.069   2.050  0.1784  1.0309 -0.3627
10309TIP3    H252343   6.693   6.029   1.925 -1.0612 -2.7481 -0.0540
10310TIP3   OH252344   6.471   3.534   0.218  0.0386 -0.3332  0.3967
10310TIP3    H152345   6.497   3.456   0.170  0.1093  0.1675 -0.4015
10310TIP3    H252346   6.380   3.517   0.244 -0.6220  0.0782 -1.4592
10311TIP3   OH252347   2.314   2.609  10.753 -0.7832 -0.1746  0.0184
10311TIP3    H152348   2.397   2.645  10.721 -1.3584  1.2740  0.0750
10311TIP3    H252349   2.311   2.520  10.718  0.8567 -0.3098  0.1432
10312TIP3   OH252350   1.832   5.301   1.904  0.2603  0.0119 -0.1633
10312TIP3    H152351   1.751   5.350   1.921 -1.4892 -2.2725 -1.3397
10312TIP3    H252352   1.863   5.334   1.821 -1.2500 -1.1619 -1.2546
10313TIP3   OH252353   1.727   4.474  17.078  0.6038 -0.2640 -1.0335
10313TIP3    H152354   1.679   4.537  17.024 -0.5870 -1.4902 -1.4541
10313TIP3    H252355   1.778   4.528  17.138 -1.4982  1.1220 -0.3933
10314TIP3   OH252356   3.049   5.121  14.835  0.7017  0.0064 -0.1754
10314TIP3    H152357   3.027   5.091  14.923 -0.4780 -0.0749 -0.4825
10314TIP3    H252358   3.113   5.190  14.849  0.8641 -0.3134  0.7248
10315TIP3   OH252359   1.827   5.843  14.068 -0.6261 -0.2261  0.6228
10315TIP3    H152360   1.870   5.923  14.096 -0.5837 -0.1504  0.3420
10315TIP3    H252361   1.782   5.811  14.147 -0.9875  0.2933  0.6313
10316TIP3   OH252362   2.770   5.674  13.720  0.5131  0.8869  0.8209
10316TIP3    H152363   2.685   5.678  13.765  0.8541  0.6035  1.5009
10316TIP3    H252364   2.756   5.722  13.638 -0.6186 -0.0961  0.4149
10317TIP3   OH252365   4.157   2.803  16.605 -0.2899  0.1827  0.0542
10317TIP3    H152366   4.084   2.742  16.601 -0.2801  0.1457  0.4156
10317TIP3    H252367   4.231   2.754  16.570 -0.7679  0.7425 -1.8887
10318TIP3   OH252368   5.350   6.646   4.244  0.1344 -0.0641 -0.1356
10318TIP3    H152369   5.256   6.641   4.226  0.1408 -0.1679 -0.1393
10318TIP3    H252370   5.390   6.597   4.173  0.3904  2.4380 -1.8348
10319TIP3   OH252371   4.712   5.743   0.365 -0.0460  1.1679  0.6780
10319TIP3    H152372   4.671   5.695   0.438 -0.0230 -0.0588 -0.0733
10319TIP3    H252373   4.657   5.722   0.289  1.4656  0.1640 -0.1938
10320TIP3   OH252374   3.700   1.707   3.598 -0.1074  0.4094  0.0975
10320TIP3    H152375   3.695   1.770   3.670  0.7376  1.9700 -1.1386
10320TIP3    H252376   3.616   1.714   3.554  0.3064  1.4040 -0.5776
10321TIP3   OH252377   6.501   5.557  10.473 -0.4515 -0.0809  0.0224
10321TIP3    H152378   6.561   5.504  10.525  0.2053  1.4028  0.8150
10321TIP3    H252379   6.417   5.551  10.519 -0.5715 -0.9776 -0.2907
10322TIP3   OH252380   5.449   5.224   4.499  0.2617 -0.2134 -0.2983
10322TIP3    H152381   5.465   5.160   4.430  0.7206 -0.3027 -0.1105
10322TIP3    H252382   5.399   5.177   4.565  1.0836 -0.5403  0.0983
10323TIP3   OH252383   0.105   2.582   1.158  0.6325  0.0563 -0.0306
10323TIP3    H152384   0.196   2.557   1.141  0.6956 -0.1205  0.5411
10323TIP3    H252385   0.083   2.644   1.089  0.9353 -0.5055 -0.6423
10324TIP3   OH252386   5.414   3.949  11.634  0.2315  0.3959 -0.3942
10324TIP3    H152387   5.419   3.974  11.727  1.7673  1.3397 -0.6907
10324TIP3    H252388   5.330   3.904  11.626 -0.1720  0.7492  1.3455
10325TIP3   OH252389   3.079   5.171   0.769  0.1854 -0.2224 -0.1287
10325TIP3    H152390   2.988   5.167   0.798  0.1033  0.2046 -0.3174
10325TIP3    H252391   3.083   5.116   0.691  0.1566 -0.4738  0.0451
10326TIP3   OH252392   6.683   1.621   2.608  0.0986 -0.5407 -0.0815
10326TIP3    H152393   6.733   1.549   2.569  1.9263  1.0211 -0.7878
10326TIP3    H252394   6.742   1.657   2.675 -0.7224  0.3867  0.1612
10327TIP3   OH252395   1.465   2.483   0.753  0.1379  0.0765 -0.0270
10327TIP3    H152396   1.391   2.526   0.795  1.7151  0.5508  2.4797
10327TIP3    H252397   1.461   2.513   0.662 -2.1436  0.8556  0.2625
10328TIP3   OH252398   0.304   6.236  12.047 -0.1850  0.6021  0.5578
10328TIP3    H152399   0.260   6.245  12.132 -0.3483  0.4846  0.4884
10328TIP3    H252400   0.235   6.256  11.983 -0.3344 -0.2723  0.4280
10329TIP3   OH252401   0.251   4.673   4.979  0.1830  0.3725 -0.0971
10329TIP3    H152402   0.241   4.588   4.937 -0.6617  1.6558 -2.7019
10329TIP3    H252403   0.168   4.717   4.964  0.4897  1.5751  1.4720
10330TIP3   OH252404   1.225   2.871   2.362 -0.1048 -0.3458 -0.3257
10330TIP3    H152405   1.307   2.822   2.375  0.0556 -0.4391 -1.5825
10330TIP3    H252406   1.246   2.935   2.294 -0.7051  0.5614  0.3284
10331TIP3   OH252407   2.268   1.767  15.661 -0.2943  0.0740 -0.0963
10331TIP3    H152408   2.360   1.794  15.665  0.5948 -2.7738  0.8947
10331TIP3    H252409   2.232   1.792  15.747  0.1076 -0.5054  0.2477
10332TIP3   OH252410   5.375   2.800  16.229  0.5837 -0.3170 -0.0210
10332TIP3    H152411   5.467   2.826  16.220  0.1916  0.9308 -0.6249
10332TIP3    H252412   5.346   2.841  16.310  0.3998 -0.2293 -0.1318
10333TIP3   OH252413   4.492   3.826  12.825 -0.3570  0.4931  0.0170
10333TIP3    H152414   4.567   3.766  12.834  0.3381  1.5817  2.3381
10333TIP3    H252415   4.523   3.894  12.765  0.1891  0.4344  0.2206
10334TIP3   OH252416   6.154   6.135   3.205  0.3755  0.3186  0.2884
10334TIP3    H152417   6.071   6.169   3.239  1.6417  1.8315  2.0400
10334TIP3    H252418   6.142   6.040   3.205 -0.7810  0.4110  2.1430
10335TIP3   OH252419   4.997   1.662  13.706 -0.4097  0.4659 -0.0487
10335TIP3    H152420   4.970   1.662  13.797  0.1955 -2.2721  0.2091
10335TIP3    H252421   5.091   1.643  13.708  0.2520  3.1600 -1.1885
10336TIP3   OH252422   2.770   1.228  13.547  0.6092  0.3842  0.5957
10336TIP3    H152423   2.821   1.165  13.598  0.9855  1.5149  1.6859
10336TIP3    H252424   2.681   1.221  13.582  0.1459 -1.0270 -0.7635
10337TIP3   OH252425   0.361   5.299  15.410  0.4468  0.5096 -0.5051
10337TIP3    H152426   0.398   5.274  15.325  0.9217  0.3520 -0.2546
10337TIP3    H252427   0.328   5.216  15.446  0.3097  0.5655 -0.5002
10338TIP3   OH252428   3.566   6.290  12.314 -0.0758  0.3182 -0.0753
10338TIP3    H152429   3.493   6.350  12.329 -1.2632 -1.2883  0.8917
10338TIP3    H252430   3.534   6.228  12.248  1.1097  0.6746 -1.0307
10339TIP3   OH252431   1.731   2.626  13.980  0.1940 -0.3582 -0.2234
10339TIP3    H152432   1.659   2.610  14.043  1.7836 -0.3889  1.6867
10339TIP3    H252433   1.747   2.541  13.940  0.6498 -0.8868  1.0366
10340TIP3   OH252434   3.371   2.980   1.562 -0.2448 -0.0705  0.5300
10340TIP3    H152435   3.356   3.052   1.623 -2.5411  0.4508 -0.5639
10340TIP3    H252436   3.315   2.999   1.487  3.3137 -0.0445 -2.4218
10341TIP3   OH252437   1.005   2.294  11.619  0.2146  0.0501  0.1015
10341TIP3    H152438   0.954   2.310  11.698 -1.4248 -0.2312 -0.8684
10341TIP3    H252439   1.028   2.381  11.587 -0.4573  0.2158  0.0535
10342TIP3   OH252440   6.773   0.129  11.439 -0.2160  0.2311 -0.3410
10342TIP3    H152441   6.724   0.129  11.357 -4.1752 -0.8998  1.7301
10342TIP3    H252442   6.772   0.221  11.468 -1.4770  0.1959 -0.2170
10343TIP3   OH252443   6.302   3.293  11.519  0.1812  0.0856 -0.2171
10343TIP3    H152444   6.211   3.263  11.522 -0.1804  1.2383  1.3223
10343TIP3    H252445   6.354   3.213  11.526 -0.7211 -0.4811  0.0961
10344TIP3   OH252446   1.668   4.906  14.793  0.1753 -0.3189  0.5395
10344TIP3    H152447   1.654   4.982  14.736  0.5163 -1.2534 -0.8318
10344TIP3    H252448   1.607   4.919  14.866 -2.0999 -0.2947 -1.2604
10345TIP3   OH252449   1.585   6.732  13.819 -0.4384  0.0134 -0.6841
10345TIP3    H152450   1.514   6.797  13.824 -0.1779  0.2519  0.0977
10345TIP3    H252451   1.584   6.688  13.904 -1.5825 -2.0836 -1.7182
10346TIP3   OH252452   0.481   2.722  12.338 -0.4131 -0.1831 -0.3736
10346TIP3    H152453   0.466   2.790  12.272  0.7634  0.4625 -0.0110
10346TIP3    H252454   0.485   2.770  12.421  0.5334 -0.6544 -0.1252
10347TIP3   OH252455   1.759   1.719   1.950 -0.2914 -0.0784  0.0365
10347TIP3    H152456   1.781   1.787   2.014  0.7816 -0.9965  0.6737
10347TIP3    H252457   1.765   1.637   1.999  0.6122 -0.8111 -1.2433
10348TIP3   OH252458   4.870   6.399  16.608 -0.0264 -0.2619 -0.0443
10348TIP3    H152459   4.854   6.305  16.605 -0.5902 -0.1568 -0.6267
10348TIP3    H252460   4.798   6.434  16.661 -0.2849 -0.0717 -0.5150
10349TIP3   OH252461   4.582   6.753   5.385 -0.3341 -0.2711 -0.0631
10349TIP3    H152462   4.653   6.800   5.429  0.7010  0.1873 -2.0981
10349TIP3    H252463   4.607   6.661   5.390  0.2999 -0.1307 -0.5692
10350TIP3   OH252464   5.874   2.532  16.756 -0.0346 -0.4400 -0.2634
10350TIP3    H152465   5.945   2.593  16.736  0.2306 -0.5938  0.1900
10350TIP3    H252466   5.841   2.561  16.841  0.2948 -1.1017  0.0997
10351TIP3   OH252467   1.490   4.154  13.321  0.6007  0.0416  0.5137
10351TIP3    H152468   1.489   4.073  13.270 -0.6463  0.6990 -0.5571
10351TIP3    H252469   1.408   4.154  13.370  0.3204  0.9102  0.0705
10352TIP3   OH252470   1.292   2.022   6.470 -0.0675  0.0181  0.2373
10352TIP3    H152471   1.371   2.036   6.523  1.4851  3.2943 -2.5625
10352TIP3    H252472   1.315   1.951   6.411 -0.1877 -0.7060  1.0426
10353TIP3   OH252473   0.057   5.303  11.947 -0.1642  0.1326  0.0981
10353TIP3    H152474   0.050   5.297  11.852  2.7425 -0.4507 -0.1668
10353TIP3    H252475   0.145   5.336  11.963 -0.6493  0.4439  2.6123
10354TIP3   OH252476   0.286   3.226   6.691 -0.2317 -0.1402 -0.0838
10354TIP3    H152477   0.215   3.163   6.675  0.7467 -0.9379 -1.4197
10354TIP3    H252478   0.249   3.310   6.664 -0.8395 -0.4703 -0.3077
10355TIP3   OH252479   3.355   4.500  13.965 -0.4365  0.6890 -0.2448
10355TIP3    H152480   3.396   4.417  13.943  0.0286  0.6096  0.8232
10355TIP3    H252481   3.345   4.497  14.061 -2.5776  0.8662 -0.4154
10356TIP3   OH252482   5.358   1.187   5.043 -0.2554 -0.8625  0.8835
10356TIP3    H152483   5.323   1.115   5.095  2.2750 -3.5582 -0.7878
10356TIP3    H252484   5.377   1.147   4.958 -0.8518  2.4301 -0.9500
10357TIP3   OH252485   3.856   5.698  13.564 -0.0741  0.0879  0.3408
10357TIP3    H152486   3.788   5.637  13.537 -0.4291  0.7998 -0.4068
10357TIP3    H252487   3.888   5.738  13.483  0.9882  0.0359  0.7077
10358TIP3   OH252488   5.517   3.647   1.706 -0.3101  0.0365 -0.1978
10358TIP3    H152489   5.423   3.662   1.708 -0.8432 -2.8336  1.4540
10358TIP3    H252490   5.547   3.694   1.628 -3.0652  1.0530 -0.7590
10359TIP3   OH252491   5.568   5.206  10.604 -0.4431 -0.6871  0.3594
10359TIP3    H152492   5.581   5.238  10.515  1.4531 -1.4636  0.3197
10359TIP3    H252493   5.636   5.140  10.616  0.5262  0.6372  2.9768
10360TIP3   OH252494   0.433   1.667  11.784 -0.1773 -0.0330 -0.2413
10360TIP3    H152495   0.522   1.642  11.809  0.3239  0.9154 -0.9855
10360TIP3    H252496   0.413   1.743  11.839 -0.6911 -0.4873  0.2084
10361TIP3   OH252497   4.451   0.007   0.804  0.1764  0.7286 -0.2336
10361TIP3    H152498   4.360   0.024   0.779 -0.0058  0.5861  0.3195
10361TIP3    H252499   4.498   0.087   0.778  0.4066 -0.1608 -2.9152
10362TIP3   OH252500   2.963   2.394   5.333  0.0336  0.0430  0.3526
10362TIP3    H152501   3.017   2.331   5.381  0.3609 -0.6701 -0.9113
10362TIP3    H252502   2.874   2.374   5.359  0.3075  1.1940  2.4196
10363TIP3   OH252503   3.539   2.693  15.073  0.0798  0.3345 -0.4726
10363TIP3    H152504   3.606   2.760  15.087  1.5429 -0.9315 -1.0832
10363TIP3    H252505   3.545   2.637  15.150  0.5522 -0.4290 -1.0481
10364TIP3   OH252506   5.233   1.803   4.711 -0.7304 -0.0631  0.6670
10364TIP3    H152507   5.283   1.747   4.652  0.2900  1.5744 -0.0938
10364TIP3    H252508   5.142   1.785   4.689 -0.4211 -0.9871  0.0550
10365TIP3   OH252509   0.390   2.802   3.914  0.3862 -0.1324  0.3772
10365TIP3    H152510   0.470   2.769   3.872 -0.5598 -1.4967 -0.4464
10365TIP3    H252511   0.348   2.724   3.950 -1.0939  0.3864 -0.1361
10366TIP3   OH252512   5.671   3.353   2.171  0.2831  0.1597 -0.0795
10366TIP3    H152513   5.635   3.399   2.095 -0.5373 -0.0890  0.1518
10366TIP3    H252514   5.663   3.416   2.243 -1.6994 -0.6274  0.4447
10367TIP3   OH252515   2.454   0.426   5.002  0.2879  0.0010  0.3877
10367TIP3    H152516   2.523   0.481   4.965 -0.8993  0.9901 -0.4321
10367TIP3    H252517   2.457   0.346   4.950  0.8455  0.0088  0.3989
10368TIP3   OH252518   6.582   1.030   4.429  0.2904 -0.1133  0.5808
10368TIP3    H152519   6.576   0.986   4.344  0.0355  0.8780  0.0674
10368TIP3    H252520   6.550   0.965   4.492 -0.0608 -0.6655 -0.1522
10369TIP3   OH252521   2.316   2.798   0.124 -0.6910  0.2740  0.3133
10369TIP3    H152522   2.319   2.835   0.212  0.5043  0.1162  0.3589
10369TIP3    H252523   2.272   2.864   0.071  0.1954  1.1767  0.6729
10370TIP3   OH252524   3.446   5.776   3.258 -0.1328  0.3070  0.4116
10370TIP3    H152525   3.436   5.703   3.319 -0.1581 -0.0860 -0.0484
10370TIP3    H252526   3.531   5.760   3.217  0.5166  1.3214  1.3157
10371TIP3   OH252527   6.421   4.964   5.401  0.0639  0.0486  0.2937
10371TIP3    H152528   6.354   4.907   5.363  0.4697 -0.6615  0.6240
10371TIP3    H252529   6.489   4.904   5.431  1.0980  0.7856 -0.5044
10372TIP3   OH252530   2.062   5.767  15.416 -0.1078  0.4601 -0.3342
10372TIP3    H152531   2.129   5.701  15.398  0.7689  1.0856  0.5391
10372TIP3    H252532   2.110   5.849  15.427 -0.9743  0.8850  0.5626
10373TIP3   OH252533   0.394   6.543   3.216 -0.2195  0.3048  0.1641
10373TIP3    H152534   0.457   6.506   3.278  0.6005  1.7008  0.2157
10373TIP3    H252535   0.403   6.638   3.227 -0.9734  0.5593 -1.1829
10374TIP3   OH252536   1.757   0.031  12.148 -0.1517  0.1953  0.0214
10374TIP3    H152537   1.793  -0.058  12.140  0.6497  0.5414 -0.2757
10374TIP3    H252538   1.684   0.033  12.087  0.6005  0.1208 -0.9008
10375TIP3   OH252539   4.945   5.141  12.402 -0.0966 -0.1878  0.2492
10375TIP3    H152540   5.025   5.152  12.352 -1.4286  1.2914 -1.7369
10375TIP3    H252541   4.894   5.077  12.352 -1.0005  0.4711  0.2852
10376TIP3   OH252542   5.427   6.519  11.183  0.1321 -0.5923 -0.1480
10376TIP3    H152543   5.387   6.481  11.105  0.1931 -1.6646  0.3396
10376TIP3    H252544   5.512   6.552  11.152  0.8488 -2.4119 -0.2363
10377TIP3   OH252545   0.928   3.367   3.614 -0.2894  0.5208  0.3141
10377TIP3    H152546   0.983   3.293   3.588  0.2031  1.1709 -0.5288
10377TIP3    H252547   0.946   3.378   3.708 -0.1223 -0.2156  0.3776
10378TIP3   OH252548   4.178   3.974   3.044  0.2262 -0.0320  0.5739
10378TIP3    H152549   4.089   3.940   3.032  0.1355  0.1105  0.8344
10378TIP3    H252550   4.229   3.900   3.075  0.9519 -0.9952 -2.5497
10379TIP3   OH252551   1.495   3.669  16.113  0.2989 -0.2178  0.1908
10379TIP3    H152552   1.417   3.637  16.159  0.3454 -0.9973 -0.2650
10379TIP3    H252553   1.507   3.608  16.041 -1.0702  2.2118 -2.2540
10380TIP3   OH252554   4.950   4.091   4.267  0.3101 -0.2757 -0.6151
10380TIP3    H152555   4.920   4.177   4.239 -1.5562 -0.9133 -0.7396
10380TIP3    H252556   4.911   4.079   4.353 -0.6401 -1.5325 -1.1869
10381TIP3   OH252557   3.302   2.698   6.358 -0.1017  0.1310  0.2332
10381TIP3    H152558   3.321   2.757   6.431  0.0402  0.0066  0.2961
10381TIP3    H252559   3.369   2.631   6.363  1.6926  1.6306 -1.6979
10382TIP3   OH252560   0.749   1.015  12.991 -0.2438 -0.0814  0.6958
10382TIP3    H152561   0.801   1.045  13.065 -0.7921  0.2804  0.9360
10382TIP3    H252562   0.755   1.085  12.927 -0.1896 -0.1726  0.6001
10383TIP3   OH252563   6.147   5.120  16.815  0.3048 -0.2331 -1.2245
10383TIP3    H152564   6.223   5.177  16.825 -1.5395  2.2599 -0.5105
10383TIP3    H252565   6.127   5.092  16.904  0.1310 -0.5530 -1.3622
10384TIP3   OH252566   5.716   1.081  11.724 -0.0746 -0.0265 -0.1642
10384TIP3    H152567   5.792   1.023  11.718 -0.0379 -0.0654  0.5751
10384TIP3    H252568   5.648   1.036  11.673  0.2967 -0.1536 -0.5520
10385TIP3   OH252569   4.677   5.346   4.321  0.7268 -0.4445 -0.1169
10385TIP3    H152570   4.690   5.440   4.337 -0.0831 -0.4693  0.7529
10385TIP3    H252571   4.750   5.304   4.367  0.2013 -0.3254  0.8466
10386TIP3   OH252572   0.345   0.895   3.973  0.0309  0.2165 -0.1647
10386TIP3    H152573   0.286   0.863   4.042  1.4094 -0.2168  0.8679
10386TIP3    H252574   0.394   0.967   4.015  0.7241  0.1064 -0.7646
10387TIP3   OH252575   3.912   5.918   5.631 -0.3549  0.0866 -0.2799
10387TIP3    H152576   3.859   5.920   5.711  2.7076  0.5085  1.9135
10387TIP3    H252577   3.944   5.828   5.626 -1.0450 -0.1169 -1.4922
10388TIP3   OH252578   4.532   3.735  16.929 -0.1699 -0.3220 -0.0458
10388TIP3    H152579   4.526   3.724  16.834 -0.1831 -3.3082  0.1953
10388TIP3    H252580   4.625   3.747  16.946 -0.3180  1.7529 -0.5030
10389TIP3   OH252581   0.173   0.257   3.132  0.1517  0.1319  0.0302
10389TIP3    H152582   0.163   0.245   3.226 -0.4499  3.0309  0.4398
10389TIP3    H252583   0.254   0.307   3.123  1.9802 -2.8117 -1.3533
10390TIP3   OH252584   1.656   1.643   1.476  0.0107 -0.3692  0.0469
10390TIP3    H152585   1.741   1.602   1.458 -0.4244 -1.0871 -0.4202
10390TIP3    H252586   1.673   1.736   1.465  0.6953 -0.5146 -0.2512
10391TIP3   OH252587   0.125   4.218   2.039 -0.1951  0.6015  0.1243
10391TIP3    H152588   0.164   4.224   2.127  0.6790 -1.2139 -0.0796
10391TIP3    H252589   0.034   4.194   2.055 -0.5538  2.1575  0.5525
10392TIP3   OH252590   0.486   2.241   1.529  0.3833 -0.9177  0.4738
10392TIP3    H152591   0.519   2.252   1.440 -2.1216 -0.2432 -0.4703
10392TIP3    H252592   0.545   2.292   1.583  1.2891 -0.3579 -0.9791
10393TIP3   OH252593   5.642   1.708  13.122 -0.2859 -0.2305  0.4315
10393TIP3    H152594   5.693   1.788  13.111  1.3935 -1.2387  0.5286
10393TIP3    H252595   5.554   1.731  13.090  0.5945  1.1416 -1.1587
10394TIP3   OH252596   0.667   1.590  13.726  0.7481  0.3699  0.3059
10394TIP3    H152597   0.736   1.544  13.680  0.4852  0.7149 -0.4519
10394TIP3    H252598   0.621   1.639  13.658 -0.7402 -0.4747  0.6504
10395TIP3   OH252599   5.708   6.275  15.368 -0.1798  0.2957  0.0349
10395TIP3    H152600   5.775   6.320  15.420 -0.1618 -0.5070  0.7281
10395TIP3    H252601   5.700   6.328  15.289  2.8942 -0.7149 -1.1430
10396TIP3   OH252602   5.579   5.055  16.257 -0.1134  0.0742  0.0919
10396TIP3    H152603   5.662   5.103  16.254  0.0449 -0.1941  0.1917
10396TIP3    H252604   5.601   4.971  16.296 -0.6418  0.4122  1.1477
10397TIP3   OH252605   4.208   3.941   4.832  0.2785 -0.3061  0.6229
10397TIP3    H152606   4.246   3.854   4.836  1.8799  0.3226 -0.0061
10397TIP3    H252607   4.129   3.930   4.780  0.1312 -1.4784  1.0653
10398TIP3   OH252608   5.207   2.110  12.790 -0.0444 -0.0990  0.3628
10398TIP3    H152609   5.189   2.166  12.714  0.9851 -1.6691 -1.1238
10398TIP3    H252610   5.211   2.170  12.864 -0.5606  1.5728 -0.8986
10399TIP3   OH252611   6.535   4.611  11.987  0.9040  0.1304 -0.1418
10399TIP3    H152612   6.625   4.589  12.009  1.0818  0.3637 -0.6216
10399TIP3    H252613   6.518   4.693  12.033  1.2832  0.6325 -0.8706
10400TIP3   OH252614   3.257   3.170  15.577 -0.1233 -0.4395  0.4216
10400TIP3    H152615   3.336   3.121  15.554  0.4785  1.3342 -1.6688
10400TIP3    H252616   3.210   3.179  15.494 -1.1448  0.8793  1.1020
10401TIP3   OH252617   3.332   6.542   5.401 -0.2822 -0.0604  0.5013
10401TIP3    H152618   3.351   6.595   5.479  1.4369 -0.8131  0.6350
10401TIP3    H252619   3.262   6.484   5.429 -0.0092  0.0011  1.3561
10402TIP3   OH252620   3.851   0.726   1.987 -0.2803 -0.4705 -0.1200
10402TIP3    H152621   3.892   0.672   2.054 -0.6702 -1.2044 -0.4571
10402TIP3    H252622   3.896   0.811   1.993  0.9499 -1.1019 -0.1681
10403TIP3   OH252623   2.951   4.390  16.678 -0.1274 -0.5596  0.2935
10403TIP3    H152624   3.020   4.346  16.628 -0.8681 -1.6888  0.2269
10403TIP3    H252625   2.915   4.455  16.617  1.5472  0.7911  0.6754
10404TIP3   OH252626   0.002   2.410  11.530 -0.3647  0.1861 -0.4725
10404TIP3    H152627  -0.024   2.347  11.463 -0.3001  1.1032 -1.3695
10404TIP3    H252628  -0.068   2.406  11.595 -0.8411 -0.1141 -0.9966
10405TIP3   OH252629   1.416   1.588  15.391 -0.2043  0.3039  0.1470
10405TIP3    H152630   1.498   1.605  15.344  0.5801 -2.1799  0.4528
10405TIP3    H252631   1.374   1.517  15.341 -1.1036  0.0642  1.1985
10406TIP3   OH252632   4.795   2.468  16.480  0.0018  0.3254  0.2028
10406TIP3    H152633   4.768   2.551  16.519  0.6619  0.4646  0.3734
10406TIP3    H252634   4.793   2.406  16.553  0.1788  0.3420  0.2207
10407TIP3   OH252635   0.241   6.646   4.022 -0.3376 -0.8134  0.1208
10407TIP3    H152636   0.327   6.607   4.039  0.0927 -0.0113 -0.1621
10407TIP3    H252637   0.223   6.701   4.098 -0.4415 -0.7004  0.0151
10408TIP3   OH252638   1.131   2.046  16.218 -0.3374  0.4473  0.1769
10408TIP3    H152639   1.174   1.997  16.289 -0.4198  1.2555  0.8022
10408TIP3    H252640   1.159   2.001  16.138 -1.5428 -1.4898  0.7786
10409TIP3   OH252641   4.410   4.705   1.313  0.1295  0.2273  0.4212
10409TIP3    H152642   4.456   4.629   1.278 -0.8755 -0.3948  0.4208
10409TIP3    H252643   4.471   4.778   1.300  0.2616 -0.1878 -1.5160
10410TIP3   OH252644   4.272   0.998   4.930  0.0395  0.2561 -0.4230
10410TIP3    H152645   4.335   1.006   5.002  1.6189  1.1377 -1.8255
10410TIP3    H252646   4.242   0.907   4.934  0.0604  0.2899  1.3385
10411TIP3   OH252647   3.852   1.126   0.472 -0.0196  0.2567 -0.0782
10411TIP3    H152648   3.947   1.116   0.477 -0.0716  0.1730  1.0652
10411TIP3    H252649   3.833   1.202   0.528 -0.7940 -0.9335  1.3332
10412TIP3   OH252650   1.444   4.922   6.229  0.0216  0.2104 -0.0449
10412TIP3    H152651   1.399   5.006   6.222 -3.9554 -1.5832  1.1639
10412TIP3    H252652   1.447   4.889   6.139  0.5458  1.1053 -0.3687
10413TIP3   OH252653   1.646   6.782   2.508  0.0494  0.1334  0.2954
10413TIP3    H152654   1.727   6.833   2.512  0.3424 -0.3821  1.4158
10413TIP3    H252655   1.674   6.693   2.488 -0.2949  0.0770  0.0619
10414TIP3   OH252656   4.210   6.527  13.023 -0.2751  0.1717  0.2401
10414TIP3    H152657   4.222   6.495  12.934 -2.3843  1.2099 -0.4860
10414TIP3    H252658   4.198   6.448  13.076 -3.3336 -0.4798 -1.1704
10415TIP3   OH252659   4.082   3.024  11.594  0.1103  0.2928 -0.5833
10415TIP3    H152660   4.114   2.964  11.527 -0.4861 -1.8092  0.9193
10415TIP3    H252661   4.157   3.082  11.612  0.8913 -0.3481 -1.6765
10416TIP3   OH252662   5.187   3.760  16.172 -0.4253 -1.1670 -0.4357
10416TIP3    H152663   5.276   3.756  16.206 -0.4373 -1.3390 -0.4243
10416TIP3    H252664   5.139   3.811  16.238  0.0544  0.4712 -1.3043
10417TIP3   OH252665   2.812   4.093  11.329  0.0764 -0.4340  0.0187
10417TIP3    H152666   2.800   4.182  11.362 -0.9605 -1.4843  2.6953
10417TIP3    H252667   2.723   4.059  11.317  0.4320 -0.6959 -2.4107
10418TIP3   OH252668   4.410   1.175  11.929 -0.2988 -0.4801  0.5735
10418TIP3    H152669   4.435   1.226  12.006 -0.5318 -0.5120  0.6722
10418TIP3    H252670   4.399   1.086  11.962  0.6065 -0.7034  0.3056
10419TIP3   OH252671   4.379   2.559   1.176  0.7112 -0.0613  0.2774
10419TIP3    H152672   4.436   2.634   1.190 -0.5570  0.7524  1.3082
10419TIP3    H252673   4.392   2.505   1.255  1.3699 -0.7798 -0.3071
10420TIP3   OH252674   2.498   6.492  12.432  0.6414  0.1647  0.1377
10420TIP3    H152675   2.526   6.431  12.364 -0.8372 -1.1130  0.6322
10420TIP3    H252676   2.461   6.437  12.501 -2.5576  1.6442 -0.2354
10421TIP3   OH252677   5.931   2.119   1.461 -0.0523  0.0912  0.5689
10421TIP3    H152678   6.008   2.080   1.501  1.1045  2.3654  0.6957
10421TIP3    H252679   5.966   2.175   1.391 -1.8382 -1.7650 -2.0206
10422TIP3   OH252680   2.572   1.188  11.630 -0.4721  0.3107 -0.0130
10422TIP3    H152681   2.477   1.183  11.622 -0.4281  0.7010 -0.8982
10422TIP3    H252682   2.601   1.097  11.622 -0.7271  0.2690 -0.5333
10423TIP3   OH252683   3.597   5.972  12.215 -0.4874  0.5479 -0.4675
10423TIP3    H152684   3.665   5.928  12.266  0.6752  1.6734 -1.0144
10423TIP3    H252685   3.571   5.907  12.149  1.0601  0.5989 -1.1439
10424TIP3   OH252686   2.966   6.042   5.456 -0.3939  0.2013 -0.3670
10424TIP3    H152687   2.986   5.949   5.453 -0.6841  0.0467  1.6834
10424TIP3    H252688   2.871   6.047   5.464 -0.3067  0.6407  0.4724
10425TIP3   OH252689   2.905   5.040  13.615  0.5023  0.2144  0.5022
10425TIP3    H152690   2.956   5.031  13.695  0.2471 -0.9241  0.5454
10425TIP3    H252691   2.838   5.105  13.637 -0.2411 -0.8794  1.5779
10426TIP3   OH252692   6.656   3.963  14.812 -0.0130  0.2258  0.3697
10426TIP3    H152693   6.697   4.024  14.874  1.3007  0.0658 -0.2958
10426TIP3    H252694   6.600   3.908  14.866  1.0387  0.1393  1.4096
10427TIP3   OH252695   0.283   6.429  11.691  0.2869  0.3596 -0.0017
10427TIP3    H152696   0.224   6.375  11.744  0.1000 -0.6311 -1.1764
10427TIP3    H252697   0.242   6.516  11.692 -0.3101  0.0891  0.5460
10428TIP3   OH252698   1.688   2.857   3.539  0.3696 -0.8017 -0.3131
10428TIP3    H152699   1.776   2.869   3.574 -0.5576  0.8141  1.7044
10428TIP3    H252700   1.630   2.888   3.609 -1.8567 -2.4442 -1.2813
10429TIP3   OH252701   2.202   4.318   0.555 -0.1640 -0.0612 -0.0041
10429TIP3    H152702   2.201   4.397   0.501  1.9401  1.0881  1.5024
10429TIP3    H252703   2.284   4.274   0.533  1.1076  0.7943  2.5941
10430TIP3   OH252704   6.309   5.922   4.018  0.1753 -0.2093  0.1042
10430TIP3    H152705   6.404   5.937   4.012  0.1444  0.5257  1.1509
10430TIP3    H252706   6.271   5.988   3.962  0.2480  0.2424  0.5789
10431TIP3   OH252707   5.363   1.419   3.136  0.0535  0.3097  0.6228
10431TIP3    H152708   5.412   1.344   3.171  0.1378  0.6779  1.3020
10431TIP3    H252709   5.355   1.400   3.042  0.6748 -0.2115  0.6676
10432TIP3   OH252710   3.257   1.280  13.598  0.4769 -0.1693  0.0726
10432TIP3    H152711   3.324   1.339  13.563  0.7784 -0.1147  0.7164
10432TIP3    H252712   3.174   1.316  13.566  0.6862  0.3759  0.1210
10433TIP3   OH252713   2.093   0.752  13.304 -0.0931  0.0153 -0.6013
10433TIP3    H152714   2.122   0.841  13.283  3.2132 -0.7041  0.3596
10433TIP3    H252715   2.049   0.723  13.224 -3.1133  3.0861 -0.2937
10434TIP3   OH252716   3.640   0.606  13.722  0.1753 -0.1348 -0.2074
10434TIP3    H152717   3.583   0.644  13.789  0.5470 -0.8602  0.5237
10434TIP3    H252718   3.608   0.644  13.640  0.5265  1.7427  0.4865
10435TIP3   OH252719   1.907   6.612   5.407  0.4755  0.1350  0.1629
10435TIP3    H152720   1.998   6.580   5.412  0.1939 -1.8986 -3.5418
10435TIP3    H252721   1.854   6.535   5.427 -0.4341  0.8450  0.5426
10436TIP3   OH252722   6.136   4.860   0.855 -0.3194  0.1750 -0.6590
10436TIP3    H152723   6.143   4.767   0.877 -1.6982 -0.0732 -1.1955
10436TIP3    H252724   6.196   4.903   0.915 -0.7794 -0.9129  0.6319
10437TIP3   OH252725   2.013   2.422  11.234  0.0200 -0.0936 -0.5353
10437TIP3    H152726   2.084   2.364  11.264  1.7144  2.9191  1.8860
10437TIP3    H252727   2.045   2.457  11.151  0.9044  0.3583 -0.0285
10438TIP3   OH252728   3.217   1.642   0.404  0.4348 -0.3816  0.0991
10438TIP3    H152729   3.303   1.678   0.385  0.6889 -1.2920 -0.5408
10438TIP3    H252730   3.157   1.716   0.393  1.0246  0.0331 -0.4109
10439TIP3   OH252731   2.677   5.080  11.384  0.2113 -0.2415  0.2901
10439TIP3    H152732   2.678   5.085  11.289 -0.4527  0.2965  0.3036
10439TIP3    H252733   2.588   5.107  11.409  0.0969 -1.1967  1.0193
10440TIP3   OH252734   1.014   1.934   0.322  0.0691 -0.2369 -0.0236
10440TIP3    H152735   1.090   1.882   0.347  0.0318 -0.3436 -0.1333
10440TIP3    H252736   1.017   2.011   0.380  1.0057  0.4339 -0.9249
10441TIP3   OH252737   2.035   5.804  17.052 -0.8975  0.1401 -0.1604
10441TIP3    H152738   2.051   5.845  17.137  0.3169 -1.4548  0.4222
10441TIP3    H252739   2.122   5.794  17.013 -1.4325  0.8665 -1.6300
10442TIP3   OH252740   0.931   2.065   6.247 -0.1932 -0.0691  0.1826
10442TIP3    H152741   1.020   2.071   6.211 -0.5675 -0.3006 -0.8215
10442TIP3    H252742   0.907   1.973   6.236 -0.5510 -0.0130  0.4786
10443TIP3   OH252743   5.586   1.312   2.137  0.2144 -0.6211 -0.2997
10443TIP3    H152744   5.491   1.311   2.144  0.3047 -0.8940  1.1798
10443TIP3    H252745   5.608   1.229   2.094 -0.3156  0.5488 -3.0652
10444TIP3   OH252746   3.415   2.260  11.210  0.2474  0.6038  0.5252
10444TIP3    H152747   3.471   2.182  11.214  0.1446  0.6027  2.8969
10444TIP3    H252748   3.350   2.239  11.143  0.3178 -1.2984  0.9980
10445TIP3   OH252749   4.917   5.004  11.804  0.1561 -0.4075  0.0504
10445TIP3    H152750   4.988   5.037  11.859 -0.8136  2.5029 -0.2705
10445TIP3    H252751   4.925   4.909  11.809  3.4840 -0.2060  0.7261
10446TIP3   OH252752   4.373   6.701  11.671 -0.4438 -0.2103 -0.1154
10446TIP3    H152753   4.368   6.647  11.592  1.5393  0.5668 -0.8350
10446TIP3    H252754   4.467   6.709  11.689 -0.8439 -0.4736  2.4332
10447TIP3   OH252755   4.988   1.633   2.485  0.2321 -0.0420 -0.2530
10447TIP3    H152756   4.919   1.690   2.519  0.5551 -0.8889  2.0839
10447TIP3    H252757   4.941   1.553   2.459  0.0785  0.2518 -0.8764
10448TIP3   OH252758   6.413   1.553  14.467 -0.8794  0.0144 -0.3538
10448TIP3    H152759   6.475   1.504  14.412 -1.0724  0.8004 -1.3166
10448TIP3    H252760   6.329   1.546  14.421 -0.9444  1.0855 -0.4340
10449TIP3   OH252761   5.725   6.110  12.435 -0.1188  0.7331  0.0700
10449TIP3    H152762   5.724   6.104  12.531 -0.1408 -0.4602  0.0145
10449TIP3    H252763   5.646   6.159  12.413  0.5546  2.1649  0.7120
10450TIP3   OH252764   0.502   1.279   5.183  0.8425 -0.3803  0.3960
10450TIP3    H152765   0.443   1.298   5.255  0.6023  1.5685 -0.2354
10450TIP3    H252766   0.456   1.311   5.105  1.2099 -2.1562 -0.5970
10451TIP3   OH252767   1.560   1.668  13.225 -0.4838 -0.0425  0.1362
10451TIP3    H152768   1.637   1.689  13.171  0.1610  0.5271  1.2408
10451TIP3    H252769   1.569   1.575  13.245  0.3166  0.1837  0.8623
10452TIP3   OH252770   0.202   5.713   2.913  0.2937 -0.5898 -0.5331
10452TIP3    H152771   0.200   5.759   2.829 -2.1724 -0.2282 -0.3554
10452TIP3    H252772   0.273   5.649   2.903  1.5857  0.9516 -2.0139
10453TIP3   OH252773   3.014   0.132   4.554 -0.1229 -0.5953  0.2041
10453TIP3    H152774   3.019   0.062   4.619  0.7293  0.1777  1.0093
10453TIP3    H252775   2.921   0.152   4.547 -0.3591 -1.6652  0.1066
10454TIP3   OH252776   6.630   2.206   2.672  0.5865 -0.3481 -0.3384
10454TIP3    H152777   6.711   2.254   2.652  0.5961  0.8193  2.0425
10454TIP3    H252778   6.627   2.205   2.768 -0.4829 -3.4270 -0.3069
10455TIP3   OH252779   6.564   2.825  11.834  0.0739  0.3545  0.1602
10455TIP3    H152780   6.481   2.822  11.786  0.2474  2.2529 -0.3529
10455TIP3    H252781   6.553   2.897  11.896  0.8740 -0.2534  1.0364
10456TIP3   OH252782   5.807   4.369  13.419  0.0995  0.1718  0.4631
10456TIP3    H152783   5.893   4.407  13.436  0.8635 -0.4072 -1.7557
10456TIP3    H252784   5.825   4.285  13.377 -1.5636 -0.4057  0.7975
10457TIP3   OH252785   1.563   3.976   2.437 -0.1808 -0.2586 -0.1435
10457TIP3    H152786   1.608   4.042   2.386  0.8902  0.1777  1.3187
10457TIP3    H252787   1.470   3.997   2.428  0.0971  0.8299 -0.5087
10458TIP3   OH252788   5.835   3.042   4.133  0.1443 -0.2875 -0.0965
10458TIP3    H152789   5.907   3.050   4.070 -2.0082  0.6516 -2.6584
10458TIP3    H252790   5.770   2.988   4.088 -0.5460 -1.6963  2.3881
10459TIP3   OH252791   0.481   2.205  13.070  0.2031 -0.0415  0.2950
10459TIP3    H152792   0.441   2.259  13.003  0.7207  1.6267  1.2667
10459TIP3    H252793   0.575   2.221  13.061  0.4550 -1.4800  0.0539
10460TIP3   OH252794   6.131   6.000   2.659  0.7436 -0.3470  0.1068
10460TIP3    H152795   6.152   5.907   2.648  0.3631 -0.4689  0.3989
10460TIP3    H252796   6.134   6.015   2.754  1.3254  0.0644  0.0289
10461TIP3   OH252797   6.067   0.218  15.709 -0.1951  0.1288  0.0867
10461TIP3    H152798   6.001   0.277  15.746  1.1447  2.1477 -0.5956
10461TIP3    H252799   6.132   0.276  15.671  1.4146 -1.8239 -0.2758
10462TIP3   OH252800   1.708   2.274   4.900 -0.0807 -0.1078 -0.2536
10462TIP3    H152801   1.742   2.351   4.945  0.4281 -0.9567  0.8642
10462TIP3    H252802   1.672   2.308   4.818 -0.2179  1.3679  0.3812
10463TIP3   OH252803   1.448   3.782   0.134  0.1307 -0.2188  0.2325
10463TIP3    H152804   1.508   3.722   0.178  0.3252 -0.6318 -0.5742
10463TIP3    H252805   1.374   3.726   0.108 -1.0395  0.4339  1.9733
10464TIP3   OH252806   4.756   5.579  14.273  0.2344 -0.4294  0.3075
10464TIP3    H152807   4.782   5.559  14.183 -2.2229 -2.4919 -0.0663
10464TIP3    H252808   4.748   5.493  14.315 -1.3373  0.3298  1.6611
10465TIP3   OH252809   1.394   1.451   2.854  0.0414  0.5727 -0.2772
10465TIP3    H152810   1.410   1.544   2.868  0.5185  0.4187  0.2175
10465TIP3    H252811   1.300   1.445   2.840  0.1231  1.2475 -1.2903
10466TIP3   OH252812   4.840   4.989   0.113 -0.4063  0.4433  0.4094
10466TIP3    H152813   4.913   4.931   0.091  0.2280  0.2434  2.7714
10466TIP3    H252814   4.765   4.951   0.068  0.5492 -0.4871 -0.4731
10467TIP3   OH252815   2.349   2.734   4.340 -0.6708 -0.2306 -0.4752
10467TIP3    H152816   2.357   2.718   4.246  0.7648  0.4128 -0.4930
10467TIP3    H252817   2.255   2.747   4.354 -0.8705  0.0424 -1.8875
10468TIP3   OH252818   1.497   0.179   4.615 -0.1306  0.1555 -0.2339
10468TIP3    H152819   1.563   0.195   4.548 -1.2611  0.8705 -1.2152
10468TIP3    H252820   1.501   0.084   4.631  0.9066  0.1509 -0.4872
10469TIP3   OH252821   6.400   4.743   4.734  0.1839  0.4856  0.0344
10469TIP3    H152822   6.314   4.783   4.723 -0.1502 -0.1145  0.3875
10469TIP3    H252823   6.381   4.651   4.753  0.8796  0.4739  0.7347
10470TIP3   OH252824   1.206   5.531  12.014 -0.1564 -0.1798  0.0197
10470TIP3    H152825   1.297   5.549  12.038 -1.0956  2.0060  2.4837
10470TIP3    H252826   1.173   5.476  12.086 -0.5832 -1.7585 -1.3331
10471TIP3   OH252827   4.528   0.721  10.678  0.4507 -0.2689  0.2149
10471TIP3    H152828   4.602   0.753  10.626 -0.0093  0.1610 -0.1885
10471TIP3    H252829   4.536   0.625  10.675  1.2629 -0.2203  0.5845
10472TIP3   OH252830   1.957   3.777  15.350 -0.7991  0.0224  0.1969
10472TIP3    H152831   1.994   3.689  15.363  1.7781  0.9245 -0.4948
10472TIP3    H252832   1.920   3.774  15.261 -2.1212 -0.7611  0.7344
10473TIP3   OH252833   2.029   5.082  16.052 -0.9259 -0.5930  0.8447
10473TIP3    H152834   2.004   5.129  16.131  1.2085  2.3689 -0.0749
10473TIP3    H252835   2.120   5.057  16.067 -0.1907  0.7974 -0.9200
10474TIP3   OH252836   3.650   1.425  14.129 -0.4277  0.1672  0.1306
10474TIP3    H152837   3.606   1.340  14.121 -1.2664  0.6380 -0.4219
10474TIP3    H252838   3.611   1.464  14.207 -0.4933  0.2985  0.0325
10475TIP3   OH252839   2.405   4.409   6.681 -0.2966 -1.0178 -0.0293
10475TIP3    H152840   2.320   4.431   6.645  0.2116 -1.9697 -2.0053
10475TIP3    H252841   2.438   4.491   6.718 -0.6253  0.2855 -2.3923
10476TIP3   OH252842   3.169   4.528  13.760 -0.8380  0.4338 -0.2566
10476TIP3    H152843   3.232   4.549  13.829 -0.1434  3.2598 -1.5719
10476TIP3    H252844   3.114   4.607  13.753  0.3034  1.0999 -4.0582
10477TIP3   OH252845   5.847   3.482   4.679  0.0302  0.5271 -0.4571
10477TIP3    H152846   5.797   3.533   4.743 -0.0898 -0.6227  0.3927
10477TIP3    H252847   5.784   3.420   4.643  0.5573 -0.1590 -0.2278
10478TIP3   OH252848   6.654   5.155  17.055 -0.1063  0.1670 -0.0741
10478TIP3    H152849   6.708   5.088  17.015 -0.0556  1.0577 -1.5761
10478TIP3    H252850   6.634   5.122  17.142  2.8440 -0.2028  0.5442
10479TIP3   OH252851   4.296   4.514   2.419  0.6219  0.1833  0.2777
10479TIP3    H152852   4.210   4.509   2.377  0.8521  0.2672 -0.2112
10479TIP3    H252853   4.288   4.586   2.482 -0.0516 -0.6293  1.1508
10480TIP3   OH252854   5.320   6.110  14.513 -0.4484 -0.3659  0.5993
10480TIP3    H152855   5.249   6.128  14.452 -1.4608  0.7137  2.0172
10480TIP3    H252856   5.364   6.194  14.525  0.9286 -0.9575 -0.0331
10481TIP3   OH252857   5.738   2.327   3.294 -0.0573  0.0412  0.0172
10481TIP3    H152858   5.735   2.417   3.262  0.6201  1.3652  3.2570
10481TIP3    H252859   5.832   2.308   3.302 -0.2075 -0.5909  0.2917
10482TIP3   OH252860   6.534   3.703  12.482 -0.0410 -0.5281  0.3046
10482TIP3    H152861   6.495   3.790  12.494  1.0504  0.1571 -0.7995
10482TIP3    H252862   6.461   3.642  12.492 -1.1891  0.6333 -0.6444
10483TIP3   OH252863   6.334   0.198  15.199 -0.1897 -0.7057 -0.4004
10483TIP3    H152864   6.314   0.291  15.203  0.0945 -0.5108 -2.6786
10483TIP3    H252865   6.249   0.156  15.185 -0.5751 -1.0095  2.3232
10484TIP3   OH252866   6.375   0.981   2.344 -0.1462 -0.2612 -0.6736
10484TIP3    H152867   6.425   0.909   2.381  0.7649  0.5637 -0.2592
10484TIP3    H252868   6.407   1.059   2.389 -1.7400  0.3143 -0.4597
10485TIP3   OH252869   1.215   0.318  15.352  0.1725 -0.4094 -0.2725
10485TIP3    H152870   1.220   0.240  15.297 -0.1290 -0.9066  0.3958
10485TIP3    H252871   1.299   0.363  15.338 -0.8289  0.8304 -3.0926
10486TIP3   OH252872   5.823   5.270   6.254 -0.3435 -0.3095 -0.4156
10486TIP3    H152873   5.727   5.268   6.248 -0.3048 -0.3960 -1.0197
10486TIP3    H252874   5.841   5.340   6.317 -0.8042 -0.3553 -0.2228
10487TIP3   OH252875   6.312   2.955  12.400 -0.1158  0.2410 -0.0023
10487TIP3    H152876   6.309   2.870  12.355 -1.3055  0.1751  0.1766
10487TIP3    H252877   6.405   2.976  12.404  0.3775 -1.8475  1.3964
10488TIP3   OH252878   4.622   3.666   3.220 -0.3012  0.0310 -0.1774
10488TIP3    H152879   4.578   3.581   3.220 -0.2057 -0.0551 -2.1112
10488TIP3    H252880   4.713   3.646   3.244 -0.3129 -0.3889 -0.4833
10489TIP3   OH252881   4.892   0.043  11.985 -0.5864 -0.0203  0.1925
10489TIP3    H152882   4.888   0.025  11.891  0.9806 -0.5414  0.1929
10489TIP3    H252883   4.875   0.137  11.992 -0.3361  0.0954 -0.6520
10490TIP3   OH252884   5.386   4.171   4.304 -0.1678  0.0591  0.0289
10490TIP3    H152885   5.328   4.159   4.229  0.1856 -2.2875  0.0336
10490TIP3    H252886   5.354   4.250   4.348 -1.8551  0.1490 -1.2694
10491TIP3   OH252887   6.251   2.607   5.719  0.2976 -0.5657  0.5291
10491TIP3    H152888   6.276   2.671   5.786 -0.0974  0.0015  0.1407
10491TIP3    H252889   6.332   2.586   5.674  0.5885 -1.0254  1.2382
10492TIP3   OH252890   2.769   1.579  16.395 -0.5585 -0.4145 -0.0637
10492TIP3    H152891   2.816   1.656  16.429  1.7925 -1.5605 -0.5281
10492TIP3    H252892   2.726   1.542  16.472  0.1444  0.1197  0.6129
10493TIP3   OH252893   1.428   3.459   5.297 -0.0764  0.4103 -1.0927
10493TIP3    H152894   1.339   3.430   5.317 -0.1957 -0.6207 -2.8969
10493TIP3    H252895   1.448   3.525   5.363 -1.6855 -0.2812  0.1332
10494TIP3   OH252896   5.262   0.405   2.514 -0.0152 -0.1247 -0.0767
10494TIP3    H152897   5.345   0.369   2.483 -0.2594 -0.2721 -0.5507
10494TIP3    H252898   5.223   0.447   2.438 -0.7225 -0.6917 -0.0374
10495TIP3   OH252899   1.708   1.706  11.467 -0.4384 -0.4804 -0.3363
10495TIP3    H152900   1.645   1.699  11.539  0.0964 -0.7453  0.1152
10495TIP3    H252901   1.776   1.764  11.500 -0.8187  0.4316 -1.1046
10496TIP3   OH252902   0.358   6.215   4.923 -0.2791 -0.3191  0.4175
10496TIP3    H152903   0.404   6.289   4.883 -3.0778  1.1426 -0.3912
10496TIP3    H252904   0.406   6.197   5.004  2.5348  0.0201 -1.0512
10497TIP3   OH252905   4.411   1.654   6.033 -0.6020  0.2458 -0.6154
10497TIP3    H152906   4.467   1.705   5.975 -2.2864  0.5259 -2.1234
10497TIP3    H252907   4.368   1.591   5.974 -2.0527  0.2503  0.3990
10498TIP3   OH252908   4.307   4.319   2.813 -0.0840 -0.4635  0.2084
10498TIP3    H152909   4.274   4.276   2.892 -2.8952 -0.7531 -1.0092
10498TIP3    H252910   4.321   4.248   2.751  0.5192 -0.0780 -0.1069
10499TIP3   OH252911   5.651   0.095   3.589  0.1652 -0.0476 -0.0530
10499TIP3    H152912   5.689   0.050   3.514  0.0206  0.8857 -0.6908
10499TIP3    H252913   5.727   0.129   3.637  0.3433 -1.7327  0.9655
10500TIP3   OH252914   6.119   3.381  13.551  0.4366  0.0115 -0.1779
10500TIP3    H152915   6.112   3.387  13.646  1.4795  0.4347 -0.1207
10500TIP3    H252916   6.054   3.444  13.518  0.4543  0.2615  0.2607
10501TIP3   OH252917   0.506   4.232  13.930  0.5491 -0.3145 -0.1492
10501TIP3    H152918   0.460   4.292  13.989 -0.7407 -1.0136 -0.4112
10501TIP3    H252919   0.593   4.222  13.969  0.0394 -0.0106  1.1192
10502TIP3   OH252920   0.688   3.314  13.573  0.8341 -0.5696  0.3315
10502TIP3    H152921   0.754   3.258  13.533  0.6706 -0.3380 -0.2689
10502TIP3    H252922   0.623   3.328  13.504  1.2529  0.9789  0.2224
10503TIP3   OH252923   6.623   2.202  13.030 -0.1674  0.4844 -0.0981
10503TIP3    H152924   6.601   2.286  13.069  0.8554 -0.2336  2.2106
10503TIP3    H252925   6.564   2.140  13.073 -0.6396 -0.0457 -1.4803
10504TIP3   OH252926   2.845   1.992   4.697 -0.4417  0.1057  0.6134
10504TIP3    H152927   2.878   1.958   4.780  0.1747  0.3085  0.4554
10504TIP3    H252928   2.770   2.046   4.722  0.2580  0.8653  1.1302
10505TIP3   OH252929   2.533   2.647   2.474  0.4342 -0.1349  0.0848
10505TIP3    H152930   2.445   2.647   2.511  0.3820  2.1513  0.0906
10505TIP3    H252931   2.521   2.668   2.381  0.9785  0.5949  0.1669
10506TIP3   OH252932   6.230   6.403   0.654 -0.1730  0.0117 -0.5021
10506TIP3    H152933   6.288   6.469   0.615  0.2595 -1.2588 -2.1191
10506TIP3    H252934   6.143   6.442   0.649  0.2919  1.2004  0.2814
10507TIP3   OH252935   5.814   5.765   4.979  0.7731  0.0103  0.5565
10507TIP3    H152936   5.838   5.823   4.906 -0.1519 -0.0601  0.1903
10507TIP3    H252937   5.887   5.774   5.041  1.2278  0.6204 -0.0488
10508TIP3   OH252938   6.119   0.236  13.859 -0.0756 -0.0548  0.3690
10508TIP3    H152939   6.096   0.322  13.895  0.7443 -0.1863  1.2662
10508TIP3    H252940   6.210   0.221  13.888 -1.0571 -2.4134  2.6831
10509TIP3   OH252941   1.626   1.387  16.654  0.3597  0.2307  0.0911
10509TIP3    H152942   1.540   1.362  16.690  1.1461 -1.9256  0.6113
10509TIP3    H252943   1.662   1.448  16.719 -1.1103  1.9546 -0.6003
10510TIP3   OH252944   3.302   5.204   2.125  0.1466  1.0979 -0.1920
10510TIP3    H152945   3.231   5.168   2.072 -2.2010  1.3839  2.5303
10510TIP3    H252946   3.293   5.299   2.115  0.8147  1.1206 -0.6236
10511TIP3   OH252947   6.749   1.352  15.062  0.5122  0.2216 -0.4129
10511TIP3    H152948   6.812   1.351  14.991 -1.5501  2.4282 -2.4426
10511TIP3    H252949   6.671   1.309  15.026  0.2873 -1.2042  1.5540
10512TIP3   OH252950   4.780   1.990  14.602 -0.9603  0.2640 -0.3223
10512TIP3    H152951   4.698   1.943  14.585 -0.7346  0.0521 -0.8371
10512TIP3    H252952   4.753   2.082  14.613 -1.2459  0.2230 -0.6692
10513TIP3   OH252953   4.935   4.804   0.699 -0.2059 -0.1884  0.0394
10513TIP3    H152954   4.915   4.896   0.685 -0.6775  0.0488  1.9703
10513TIP3    H252955   4.854   4.766   0.732  0.3287 -1.0163  0.4449
10514TIP3   OH252956   3.867   4.172  14.234 -0.7920  0.3034  0.1115
10514TIP3    H152957   3.908   4.105  14.288 -0.6275 -0.4566 -0.9276
10514TIP3    H252958   3.940   4.213  14.187 -1.0864 -0.1755 -0.7768
10515TIP3   OH252959   6.218   0.570  16.592 -0.7514  0.3536 -0.2417
10515TIP3    H152960   6.244   0.508  16.661 -0.7914 -1.1871 -1.5699
10515TIP3    H252961   6.284   0.559  16.524 -1.5541  0.7494 -1.0986
10516TIP3   OH252962   1.692   0.981   0.350 -0.2111 -0.0410 -0.5226
10516TIP3    H152963   1.759   0.918   0.377  0.4529  0.3239 -1.2836
10516TIP3    H252964   1.740   1.049   0.303 -0.9803  0.7867 -0.1545
10517TIP3   OH252965   2.877   3.432   5.233 -0.8214  0.5622  0.0100
10517TIP3    H152966   2.873   3.396   5.145 -1.9176  0.7517 -0.0289
10517TIP3    H252967   2.969   3.459   5.244 -0.8286  1.1816 -1.3247
10518TIP3   OH252968   3.472   4.303   5.333  0.4382 -0.3336 -0.4210
10518TIP3    H152969   3.429   4.240   5.275  0.6935 -1.7212  0.8708
10518TIP3    H252970   3.520   4.361   5.273  1.2284 -2.1162 -1.5953
10519TIP3   OH252971   5.457   5.559  15.568  0.2153 -0.2288 -0.0189
10519TIP3    H152972   5.548   5.579  15.544  0.1017 -0.1886 -0.4120
10519TIP3    H252973   5.410   5.558  15.485 -0.4355  1.2497  0.2943
10520TIP3   OH252974   2.404   0.244  15.082 -0.1050  0.3563 -0.7697
10520TIP3    H152975   2.377   0.232  15.173 -0.5224 -0.4826 -0.9909
10520TIP3    H252976   2.476   0.307  15.086 -0.5028  0.7672  0.0811
10521TIP3   OH252977   4.659   3.209  13.215  0.2660 -0.0366 -0.4425
10521TIP3    H152978   4.643   3.204  13.309 -1.8569 -0.6911 -0.8002
10521TIP3    H252979   4.748   3.174  13.204  1.5230  2.2257  1.5179
10522TIP3   OH252980   4.282   5.854  16.803 -0.0305  0.2408 -0.0624
10522TIP3    H152981   4.231   5.817  16.731  1.6836  0.0712 -1.2481
10522TIP3    H252982   4.366   5.809  16.799  1.1397  2.2619  0.2159
10523TIP3   OH252983   0.853   4.071   0.457 -0.0993 -0.7847  0.2564
10523TIP3    H152984   0.889   4.095   0.543  0.7921 -2.2539  0.3260
10523TIP3    H252985   0.785   4.137   0.440  0.8772  0.5449  1.2985
10524TIP3   OH252986   0.241   2.294   0.991  0.2183  0.0416  0.2040
10524TIP3    H152987   0.292   2.227   0.946  0.2379  0.5527 -0.5386
10524TIP3    H252988   0.257   2.277   1.084 -0.8318 -1.8068  0.0890
10525TIP3   OH252989   4.804   4.424  15.307  0.3282 -0.1042  0.4554
10525TIP3    H152990   4.853   4.419  15.389  0.5073 -0.0024  0.3537
10525TIP3    H252991   4.737   4.356  15.316  2.3332 -2.3872 -0.6454
10526TIP3   OH252992   5.851   2.650  15.500 -0.2603  0.4411 -0.0169
10526TIP3    H152993   5.757   2.634  15.494 -0.2885  0.7487 -0.4271
10526TIP3    H252994   5.885   2.623  15.415  0.1084 -0.2287  0.3396
10527TIP3   OH252995   3.058   5.946   3.648 -0.2960  0.0924 -0.3682
10527TIP3    H152996   2.991   5.961   3.715 -0.4105  1.2335 -0.7126
10527TIP3    H252997   3.082   6.034   3.619 -0.5047 -0.3832 -2.0848
10528TIP3   OH252998   2.534   0.424  12.014  0.7386 -0.6704  0.4501
10528TIP3    H152999   2.530   0.520  12.014  0.8753 -0.6494 -0.3746
10528TIP3    H253000   2.449   0.396  12.048  0.2419 -0.2446 -0.3929
10529TIP3   OH253001   3.543   5.996  16.745 -0.1826  0.2639  0.3540
10529TIP3    H153002   3.577   6.059  16.809 -0.6848  1.0914 -0.1766
10529TIP3    H253003   3.619   5.970  16.694 -0.3458  2.4884 -1.1588
10530TIP3   OH253004   6.260   2.930  10.289  0.5577  0.1809  0.1650
10530TIP3    H153005   6.185   2.880  10.321 -0.5202  2.5040  1.4597
10530TIP3    H253006   6.311   2.951  10.367  1.0795  0.9492 -0.3617
10531TIP3   OH253007   3.111   4.300   6.185  0.5535  0.2857 -0.0846
10531TIP3    H153008   3.184   4.256   6.229  1.3545  2.1810  0.5740
10531TIP3    H253009   3.151   4.374   6.141 -0.6806  0.0680 -1.6454
10532TIP3   OH253010   0.638   1.634   0.063  0.8683 -0.6979 -0.0252
10532TIP3    H153011   0.661   1.544   0.084  0.3892 -0.8140  0.0221
10532TIP3    H253012   0.716   1.685   0.085  1.8241 -1.3214 -1.7792
10533TIP3   OH253013   4.668   0.982   5.684  0.0602  0.5320 -0.0182
10533TIP3    H153014   4.637   0.994   5.774 -1.5043  0.2064 -0.4882
10533TIP3    H253015   4.681   1.071   5.652  0.8922  0.6494  0.5899
10534TIP3   OH253016   3.244   3.965  11.785  0.0060  0.0490 -0.3203
10534TIP3    H153017   3.236   3.885  11.733 -1.7788  0.1442 -0.2566
10534TIP3    H253018   3.222   3.937  11.874  0.7948  0.3469 -0.0211
10535TIP3   OH253019   0.233   1.660  15.658  0.0093  0.0261 -0.4363
10535TIP3    H153020   0.249   1.590  15.721  0.5723 -1.4580 -2.1434
10535TIP3    H253021   0.176   1.620  15.592  0.7795  0.9830 -1.7299
10536TIP3   OH253022   1.476   1.294   4.085 -0.1688  0.1581 -0.2815
10536TIP3    H153023   1.394   1.343   4.076  0.4601  1.5239  1.0920
10536TIP3    H253024   1.545   1.359   4.074  0.7356 -0.7084  0.0582
10537TIP3   OH253025   4.768   4.451   1.435  0.1418  0.2249  0.3865
10537TIP3    H153026   4.800   4.361   1.427 -1.5415 -0.3012 -0.9300
10537TIP3    H253027   4.820   4.501   1.373 -0.4031 -0.2969 -0.5134
10538TIP3   OH253028   2.288   4.191   5.910 -0.0879  0.3713 -0.3628
10538TIP3    H153029   2.205   4.220   5.948 -0.5581  0.0650 -1.1210
10538TIP3    H253030   2.355   4.240   5.957 -0.5709 -0.6492  1.5002
10539TIP3   OH253031   3.204   1.920  11.139 -1.0895 -0.2346  0.3558
10539TIP3    H153032   3.216   1.825  11.148  0.3235 -0.0784  0.3773
10539TIP3    H253033   3.147   1.930  11.063 -0.7472 -1.0833 -0.0307
10540TIP3   OH253034   5.227   4.222   6.065  0.1261  0.4445  0.3743
10540TIP3    H153035   5.320   4.228   6.084  0.3291  1.6418 -0.8453
10540TIP3    H253036   5.187   4.290   6.120  0.4576  2.4424 -1.7228
10541TIP3   OH253037   5.632   5.089   0.879  0.2524 -0.0249 -0.2614
10541TIP3    H153038   5.559   5.072   0.820 -0.7969 -0.0525  1.0044
10541TIP3    H253039   5.709   5.054   0.833 -0.3822  0.7275 -1.9646
10542TIP3   OH253040   2.848   5.508   2.813 -0.7122  0.0502 -0.2406
10542TIP3    H153041   2.920   5.566   2.839 -1.2507  1.5447 -1.9209
10542TIP3    H253042   2.891   5.425   2.790  0.4933  0.8951 -1.1407
10543TIP3   OH253043   6.414   1.747  12.017 -0.1986 -0.6538 -0.8136
10543TIP3    H153044   6.486   1.726  11.959 -0.6444 -0.0709 -1.6083
10543TIP3    H253045   6.377   1.827  11.981  1.3854  1.5471  2.0031
10544TIP3   OH253046   3.882   0.502   1.725  0.2941 -0.3403 -1.0616
10544TIP3    H153047   3.958   0.507   1.783 -0.2442  0.1727 -0.3869
10544TIP3    H253048   3.919   0.484   1.638  1.2190  0.4872 -0.8484
10545TIP3   OH253049   0.537   3.390   4.417 -0.1080  0.6375  0.1853
10545TIP3    H153050   0.599   3.384   4.489  0.4588 -0.3138 -0.3628
10545TIP3    H253051   0.458   3.346   4.449 -1.0017  2.8636  1.3228
10546TIP3   OH253052   4.888   6.259  12.111 -0.2247 -0.0717 -0.1964
10546TIP3    H153053   4.860   6.225  12.196 -0.2337 -0.5479 -0.3887
10546TIP3    H253054   4.973   6.300  12.128 -0.5309  0.4281  0.1750
10547TIP3   OH253055   1.671   5.228   0.517 -0.0786  0.3115 -0.2378
10547TIP3    H153056   1.707   5.248   0.604 -1.0153 -1.5262  0.6398
10547TIP3    H253057   1.601   5.292   0.506 -0.6744 -0.1165  0.8707
10548TIP3   OH253058   0.334   2.261  11.957  0.1973 -0.1677 -0.0410
10548TIP3    H153059   0.258   2.316  11.938 -0.0150  0.2471  1.8230
10548TIP3    H253060   0.297   2.178  11.988  0.5248 -1.1408 -2.0762
10549TIP3   OH253061   6.113   2.713   5.255  0.0978  0.5525  0.0766
10549TIP3    H153062   6.199   2.689   5.290  0.4705 -1.0240 -1.7205
10549TIP3    H253063   6.052   2.693   5.326  1.1003  0.5567  0.9668
10550TIP3   OH253064   5.094   2.144   0.839  0.1216 -0.2170 -0.0625
10550TIP3    H153065   5.102   2.202   0.914  1.5748  0.5815 -0.7894
10550TIP3    H253066   5.012   2.097   0.853 -1.0959  1.9633  0.6002
10551TIP3   OH253067   0.806   3.560   6.645  0.5659 -0.1484  0.1218
10551TIP3    H153068   0.765   3.474   6.633  0.9481 -0.8889  3.1792
10551TIP3    H253069   0.900   3.542   6.640  0.8147 -0.6902  3.8977
10552TIP3   OH253070   4.007   2.987  13.954  0.6922 -0.7189  0.3674
10552TIP3    H153071   3.940   3.054  13.956  1.7260  0.3992 -0.8133
10552TIP3    H253072   3.963   2.907  13.983 -0.7544  0.2855  1.0170
10553TIP3   OH253073   6.410   0.030  13.686  0.0200 -0.1485 -0.1477
10553TIP3    H153074   6.398   0.125  13.690 -1.3080 -0.3431  1.3119
10553TIP3    H253075   6.489   0.013  13.738 -0.5215  0.0535  0.7621
10554TIP3   OH253076   0.032   5.716   0.256  0.2808  0.5698 -0.0086
10554TIP3    H153077   0.020   5.628   0.219 -1.5942 -0.6145  3.0071
10554TIP3    H253078   0.061   5.699   0.346  1.2624  3.1155  0.2149
10555TIP3   OH253079   1.105   0.985  12.929 -0.8031  0.4384 -0.0899
10555TIP3    H153080   1.182   0.999  12.983 -0.3582  0.3894 -0.7047
10555TIP3    H253081   1.063   1.071  12.924 -0.2614  0.6850 -0.5430
10556TIP3   OH253082   4.238   2.356   1.002 -0.2733 -0.3085 -0.0719
10556TIP3    H153083   4.144   2.354   0.988 -0.5246 -0.5162  1.4167
10556TIP3    H253084   4.253   2.439   1.047  0.2867 -0.1832 -0.4827
10557TIP3   OH253085   0.265   0.844  12.823 -0.5466 -0.3201  0.2510
10557TIP3    H153086   0.224   0.830  12.908  0.5279 -1.2281  0.6546
10557TIP3    H253087   0.197   0.883  12.769 -1.2261  0.3664  1.5472
10558TIP3   OH253088   1.063   3.302  16.228  0.4454 -0.5470  0.2397
10558TIP3    H153089   1.111   3.220  16.227 -1.8864 -1.9829 -0.8720
10558TIP3    H253090   1.023   3.308  16.141  1.1225  2.1526  0.0247
10559TIP3   OH253091   4.426   5.938   3.159 -0.2950  0.6445 -0.0052
10559TIP3    H153092   4.470   5.871   3.106 -1.0308  0.5290 -0.4796
10559TIP3    H253093   4.333   5.922   3.146 -0.5786 -0.5354  2.7732
10560TIP3   OH253094   1.016   6.355   5.108 -0.0358  0.2573 -0.6328
10560TIP3    H153095   1.097   6.306   5.094 -0.0853  0.0717 -0.2844
10560TIP3    H253096   1.010   6.413   5.032 -0.8392 -1.4353 -1.9325
10561TIP3   OH253097   1.715   5.913   1.747  0.6129  0.4480  0.1587
10561TIP3    H153098   1.687   5.972   1.817 -0.9126 -0.1637  0.0896
10561TIP3    H253099   1.717   5.968   1.669 -1.1231  0.3751  0.0292
10562TIP3   OH253100   5.528   1.625  15.776 -0.1629 -0.4215 -0.3556
10562TIP3    H153101   5.442   1.585  15.758 -0.8742  0.4261  1.0160
10562TIP3    H253102   5.529   1.704  15.721  0.4552 -1.2616 -1.6139
10563TIP3   OH253103   6.690   0.829   3.237 -0.2253  0.2769  0.2188
10563TIP3    H153104   6.709   0.873   3.154  2.0364 -0.7518  0.1137
10563TIP3    H253105   6.678   0.737   3.214  1.9568 -0.3112  1.0823
10564TIP3   OH253106   6.376   6.504   4.135 -0.2629  0.4997 -0.0925
10564TIP3    H153107   6.463   6.484   4.170  0.1052 -0.4197 -1.4363
10564TIP3    H253108   6.331   6.420   4.133 -1.3962  1.0590  1.0855
10565TIP3   OH253109   5.225   1.177   0.003  0.0565  0.3987  0.0562
10565TIP3    H153110   5.143   1.194   0.050  0.3938  0.0734  0.7777
10565TIP3    H253111   5.260   1.098   0.044  0.2716 -0.0096 -0.8824
10566TIP3   OH253112   1.693   1.642  13.941  0.4234 -0.3129  0.0482
10566TIP3    H153113   1.736   1.726  13.957  1.1537 -0.4239 -1.1780
10566TIP3    H253114   1.640   1.657  13.862 -0.0058 -0.8119  0.2343
10567TIP3   OH253115   0.749   2.124  16.899 -0.6982 -0.2367 -0.6555
10567TIP3    H153116   0.749   2.107  16.805 -1.0051  0.2100 -0.7409
10567TIP3    H253117   0.742   2.038  16.939 -1.0133 -0.3972 -1.0489
10568TIP3   OH253118   0.337   2.768  12.777  0.2086  0.3725 -0.6250
10568TIP3    H153119   0.342   2.766  12.873  0.8460  1.0850 -0.6340
10568TIP3    H253120   0.244   2.784  12.759  0.0269 -0.1023 -0.1371
10569TIP3   OH253121   2.830   1.532  15.000 -0.0239 -0.3304  0.2468
10569TIP3    H153122   2.874   1.485  15.071 -0.8070 -3.1712 -1.0053
10569TIP3    H253123   2.737   1.517  15.014 -0.2508  0.0734 -0.7342
10570TIP3   OH253124   5.877   6.725   2.026 -0.2979  0.1155 -0.8973
10570TIP3    H153125   5.871   6.763   2.114 -2.9109 -0.5886 -0.6661
10570TIP3    H253126   5.958   6.759   1.990  0.3201  1.2711  1.4024
10571TIP3   OH253127   2.276   4.432   5.187 -0.2570 -0.1791  0.1321
10571TIP3    H153128   2.317   4.361   5.236 -1.3654 -2.4950 -2.0764
10571TIP3    H253129   2.204   4.462   5.243 -0.0359 -1.0908  0.9196
10572TIP3   OH253130   4.000   4.742   0.137 -0.0483  0.3733 -0.1281
10572TIP3    H153131   4.060   4.695   0.194  1.4453  0.7371 -1.3238
10572TIP3    H253132   3.924   4.685   0.128  0.2693 -0.2669  1.1273
10573TIP3   OH253133   5.392   3.761   3.689  0.3651  0.1936  0.3171
10573TIP3    H153134   5.409   3.854   3.674 -0.9437  0.4334  0.2414
10573TIP3    H253135   5.321   3.759   3.754  1.0994 -0.7716  1.1327
10574TIP3   OH253136   3.807   1.174   3.532 -0.2067 -0.3716  0.0259
10574TIP3    H153137   3.832   1.266   3.541  0.3344 -0.4984 -0.1728
10574TIP3    H253138   3.889   1.126   3.526 -0.4661 -0.9795  1.0591
10575TIP3   OH253139   1.283   0.923  14.077 -0.0815  1.0243 -0.3156
10575TIP3    H153140   1.198   0.880  14.075 -0.2884  1.3975  0.1906
10575TIP3    H253141   1.262   1.016  14.080  0.2006  1.1380  3.4824
10576TIP3   OH253142   3.468   4.634  13.020  1.0241 -0.1065 -0.1372
10576TIP3    H153143   3.467   4.573  12.947  0.3206 -0.9651  0.5657
10576TIP3    H253144   3.495   4.582  13.095 -0.9469  0.0574  0.7592
10577TIP3   OH253145   0.755   3.824   4.270  0.0953 -0.2332  0.5903
10577TIP3    H153146   0.737   3.755   4.207 -2.1217  0.1434  0.7362
10577TIP3    H253147   0.692   3.893   4.250  0.7166  0.7847  1.9120
10578TIP3   OH253148   2.843   3.890   4.753 -0.0028 -0.0887  0.2586
10578TIP3    H153149   2.908   3.896   4.823 -0.7223  2.2399  0.7964
10578TIP3    H253150   2.782   3.822   4.783  2.0081 -2.2450 -0.2063
10579TIP3   OH253151   6.116   1.360   2.259 -0.0044  0.2930  0.0386
10579TIP3    H153152   6.102   1.441   2.309  2.0476  2.3111 -2.3646
10579TIP3    H253153   6.045   1.302   2.286 -1.7790  2.9978  1.6401
10580TIP3   OH253154   5.651   4.996  15.549 -0.0336  0.8884 -0.0802
10580TIP3    H153155   5.700   5.041  15.481  0.1787 -0.0491 -0.5698
10580TIP3    H253156   5.589   4.940  15.502 -0.7805  1.1930  0.5162
10581TIP3   OH253157   2.988   2.530  10.944 -0.2544 -0.8203 -0.0407
10581TIP3    H153158   3.065   2.582  10.965 -1.0521  0.0035  0.9538
10581TIP3    H253159   3.014   2.440  10.961 -0.1000 -0.3968  2.3202
10582TIP3   OH253160   3.419   5.939  15.692  0.6101 -0.2071  0.3031
10582TIP3    H153161   3.330   5.950  15.659  0.5595 -2.1856 -0.3890
10582TIP3    H253162   3.465   5.894  15.621  1.5643 -1.1347  1.4716
10583TIP3   OH253163   3.890   1.885  12.981 -0.0629 -0.0028  0.2531
10583TIP3    H153164   3.847   1.854  12.901 -0.9694  0.8600  0.3887
10583TIP3    H253165   3.966   1.828  12.991 -0.5930 -0.8804 -0.5774
10584TIP3   OH253166   5.858   3.506   4.302  1.0685  0.0124  0.1479
10584TIP3    H153167   5.811   3.424   4.308  0.2915  0.5049  1.0673
10584TIP3    H253168   5.809   3.567   4.358  0.8698  1.4650 -1.4999
10585TIP3   OH253169   1.461   5.169  11.746  0.5003 -0.0700 -0.0821
10585TIP3    H153170   1.383   5.151  11.798  1.1154 -0.3570  0.7678
10585TIP3    H253171   1.461   5.264  11.734 -0.5742 -0.1732 -1.0680
10586TIP3   OH253172   0.937   0.028  11.123  0.0791  1.0976 -0.1143
10586TIP3    H153173   0.965   0.035  11.214  0.9577 -0.9337 -0.1728
10586TIP3    H253174   1.015   0.051  11.072  1.4527 -3.0419 -0.2701
10587TIP3   OH253175   2.874   1.964   0.178 -0.1518  0.1181  0.1229
10587TIP3    H153176   2.855   1.874   0.151 -0.9917  0.9567 -2.3185
10587TIP3    H253177   2.890   2.011   0.096 -0.2805  2.3341  1.3028
10588TIP3   OH253178   0.543   3.940   0.883  0.2985 -0.5141 -0.2310
10588TIP3    H153179   0.569   3.849   0.865  0.4044 -0.6680  0.6545
10588TIP3    H253180   0.524   3.941   0.977 -0.8668  0.1066 -0.4686
10589TIP3   OH253181   2.743   1.063  11.316 -0.0590  0.2563 -0.3258
10589TIP3    H153182   2.762   1.019  11.399 -2.6995  0.4422  0.4548
10589TIP3    H253183   2.768   0.999  11.249  0.1036 -0.7524  0.6595
10590TIP3   OH253184   1.574   1.334  11.271 -0.1472  0.3064 -0.9417
10590TIP3    H153185   1.528   1.250  11.269 -1.3503  0.8665  0.6623
10590TIP3    H253186   1.607   1.341  11.361  0.1343  1.4568 -1.1171
10591TIP3   OH253187   4.348   6.487  16.548 -0.3609  0.1483 -0.1205
10591TIP3    H153188   4.412   6.552  16.579 -1.8961  0.8724  1.7338
10591TIP3    H253189   4.381   6.404  16.583  0.5514  0.1992 -0.8096
10592TIP3   OH253190   1.725   0.807   1.033  0.3348 -0.2986  0.2561
10592TIP3    H153191   1.660   0.798   1.102  0.1049  0.0020  0.0817
10592TIP3    H253192   1.695   0.882   0.981  0.6759 -0.3225  0.0194
10593TIP3   OH253193   0.909   4.921   4.468  0.0501  0.2004  0.3630
10593TIP3    H153194   0.956   4.880   4.542 -0.0187  0.0978  0.3499
10593TIP3    H253195   0.959   5.000   4.449  1.7197 -1.1881 -1.3135
10594TIP3   OH253196   0.172   1.066   3.340  0.2638 -0.5346  0.2124
10594TIP3    H153197   0.124   1.034   3.263  0.6514  1.2664 -0.8182
10594TIP3    H253198   0.200   0.986   3.385 -0.9197 -1.6286 -0.9048
10595TIP3   OH253199   4.013   1.210  15.247  0.2496  0.0143 -0.1822
10595TIP3    H153200   3.954   1.154  15.196  0.2450 -0.5186  0.4020
10595TIP3    H253201   4.049   1.270  15.182 -0.3541 -0.1424 -0.6835
10596TIP3   OH253202   3.073   6.625  16.136 -0.0198 -0.6116  0.1160
10596TIP3    H153203   3.048   6.556  16.074  0.9025 -1.3275  0.5187
10596TIP3    H253204   3.133   6.582  16.197  0.2816  0.4587  0.5984
10597TIP3   OH253205   3.521   1.362  16.427  0.2959  0.6226  0.0219
10597TIP3    H153206   3.501   1.429  16.361 -1.7927 -0.2039 -0.2857
10597TIP3    H253207   3.461   1.290  16.406  1.3381 -0.6891  1.3255
10598TIP3   OH253208   0.731   2.159  10.468 -0.0291 -0.0531 -0.3816
10598TIP3    H153209   0.735   2.064  10.468  0.2298 -0.0952  1.8956
10598TIP3    H253210   0.648   2.181  10.510  0.7701  0.6833  0.8873
10599TIP3   OH253211   6.084   6.578  11.614  0.2543  0.3099 -0.0315
10599TIP3    H153212   6.138   6.505  11.644 -0.3931  0.4568  1.5589
10599TIP3    H253213   6.132   6.656  11.643 -0.6387  0.4457  1.1136
10600TIP3   OH253214   2.260   1.840  17.122 -0.0107  0.1672 -0.1215
10600TIP3    H153215   2.276   1.836  17.028  3.2629 -1.7566  0.3573
10600TIP3    H253216   2.219   1.757  17.144 -0.1769  0.3393  0.2358
10601TIP3   OH253217   6.222   6.122  16.627  0.0747 -0.6336 -0.0395
10601TIP3    H153218   6.269   6.132  16.545  0.0095  0.2559  0.0275
10601TIP3    H253219   6.236   6.030  16.651  0.7347 -0.6983 -0.6452
10602TIP3   OH253220   0.637   3.822  12.025  0.5060  0.4201 -0.0637
10602TIP3    H153221   0.654   3.816  12.119 -0.3182 -0.0765  0.0579
10602TIP3    H253222   0.718   3.791  11.984 -0.0236 -1.9221  0.5041
10603TIP3   OH253223   3.366   3.574   5.580  0.0684 -0.3888  1.3691
10603TIP3    H153224   3.401   3.651   5.534  0.5549  0.0369  2.4016
10603TIP3    H253225   3.300   3.538   5.521 -1.3688  1.7912  1.5169
10604TIP3   OH253226   4.439   4.178  13.735  0.3710  0.0908  0.1978
10604TIP3    H153227   4.428   4.100  13.789  1.6016  0.5453  1.1456
10604TIP3    H253228   4.533   4.197  13.739  0.4535  0.3166 -1.8782
10605TIP3   OH253229   3.260   3.066   4.120 -0.0637  0.1465 -0.0598
10605TIP3    H153230   3.202   2.996   4.088 -0.1502  0.5926 -0.8755
10605TIP3    H253231   3.205   3.115   4.182 -0.1727 -0.1720  0.1011
10606TIP3   OH253232   2.145   6.035   2.142 -0.1879 -0.1537  0.4619
10606TIP3    H153233   2.235   6.004   2.152  0.5271  1.0742 -1.6668
10606TIP3    H253234   2.094   5.957   2.121  1.0540 -0.4062 -1.8518
10607TIP3   OH253235   2.389   0.988   3.841 -0.2710 -0.4613 -0.1513
10607TIP3    H153236   2.331   0.912   3.844  1.1996 -1.5955  0.6995
10607TIP3    H253237   2.330   1.063   3.828 -1.9899 -1.4772  1.3511
10608TIP3   OH253238   6.395   0.038   2.964 -0.0491  0.6337 -0.0951
10608TIP3    H153239   6.324   0.061   3.024  0.4407  1.1429  0.3026
10608TIP3    H253240   6.472   0.030   3.020 -0.1737 -2.0027 -0.2037
10609TIP3   OH253241   2.660   5.774  14.412 -0.4476 -0.4515  0.1506
10609TIP3    H153242   2.648   5.860  14.452  2.5546 -0.3099  0.9786
10609TIP3    H253243   2.638   5.787  14.320  1.6881  1.7458 -0.1435
10610TIP3   OH253244   3.539   5.053  14.656 -0.0549 -0.3467  0.0111
10610TIP3    H153245   3.554   5.082  14.746 -0.1278  3.7259 -1.1227
10610TIP3    H253246   3.443   5.049  14.648 -0.0451 -1.1621  0.1903
10611TIP3   OH253247   3.170   1.341  13.185  0.2005 -0.1799  0.1629
10611TIP3    H153248   3.258   1.374  13.164  0.0357  0.7528  0.8725
10611TIP3    H253249   3.126   1.335  13.100  0.8268 -0.2989 -0.1619
10612TIP3   OH253250   2.086   6.653   4.954 -0.6166 -0.4315 -0.2207
10612TIP3    H153251   2.180   6.666   4.942 -0.6168 -0.7672 -0.6253
10612TIP3    H253252   2.051   6.656   4.865 -1.2865  1.8996  0.0436
10613TIP3   OH253253   5.017   0.554   0.669 -0.0023 -0.6400 -0.0934
10613TIP3    H153254   5.074   0.486   0.633 -1.2167 -1.4594 -0.5350
10613TIP3    H253255   4.957   0.507   0.726 -0.9589  0.0334 -0.5224
10614TIP3   OH253256   2.643   3.788  14.898 -0.2483  0.0350 -0.6944
10614TIP3    H153257   2.564   3.841  14.888  0.3104  0.9614 -0.3336
10614TIP3    H253258   2.704   3.822  14.832 -0.2750 -0.9384 -1.2460
10615TIP3   OH253259   6.133   3.156  11.842 -0.3473 -0.1202 -0.1324
10615TIP3    H153260   6.227   3.139  11.837 -0.2870  0.0451  0.4253
10615TIP3    H253261   6.094   3.071  11.859 -0.1195  0.1050  1.7299
10616TIP3   OH253262   4.864   2.866   2.018  0.3406  0.0882 -0.0572
10616TIP3    H153263   4.866   2.784   1.969 -2.7189  0.1822 -0.5144
10616TIP3    H253264   4.887   2.933   1.953  0.3646 -0.1665 -0.3134
10617TIP3   OH253265   1.200   5.889   5.350 -0.4078 -0.3580  0.2810
10617TIP3    H153266   1.130   5.907   5.413  0.0049 -0.5092  0.7939
10617TIP3    H253267   1.229   5.800   5.371 -0.2757 -0.4135 -0.1333
10618TIP3   OH253268   3.134   5.911  11.526 -0.0623  0.0300 -0.0452
10618TIP3    H153269   3.190   5.967  11.579  1.2751 -1.5793  0.3448
10618TIP3    H253270   3.076   5.971  11.480  1.6185  1.7622 -0.0236
10619TIP3   OH253271   5.322   5.480   6.548  0.0732  0.4475 -0.2081
10619TIP3    H153272   5.397   5.438   6.506  1.3756  0.5841  1.8490
10619TIP3    H253273   5.298   5.419   6.619  0.2456  1.8327  1.0905
10620TIP3   OH253274   1.461   1.799   4.082 -0.0943 -0.5810  0.0097
10620TIP3    H153275   1.427   1.887   4.098  1.8106  0.0054  1.1404
10620TIP3    H253276   1.441   1.782   3.990  0.2060  1.3920 -0.4741
10621TIP3   OH253277   1.476   0.559   0.508 -0.1977 -0.0318  0.6864
10621TIP3    H153278   1.488   0.468   0.538  0.4017  0.4137  1.8689
10621TIP3    H253279   1.430   0.551   0.425 -1.4371 -1.3709  1.4613
10622TIP3   OH253280   5.979   0.581   3.473 -0.5745 -0.5391  0.5157
10622TIP3    H153281   5.979   0.540   3.386  1.2594  2.1216 -0.8796
10622TIP3    H253282   5.894   0.625   3.478  0.2020  1.2820 -1.0584
10623TIP3   OH253283   6.325   1.282  16.319  0.3572 -0.6676 -0.2177
10623TIP3    H153284   6.388   1.291  16.390 -0.2557 -0.8381  0.3550
10623TIP3    H253285   6.242   1.263  16.362 -0.2463  0.2574 -0.9223
10624TIP3   OH253286   5.317   1.252  13.750  0.1307  0.0864  0.1729
10624TIP3    H153287   5.351   1.259  13.661 -2.1372 -1.3989 -0.9146
10624TIP3    H253288   5.357   1.172  13.785  1.5535  1.0291  0.8161
10625TIP3   OH253289   3.827   3.969  13.446 -0.2610 -0.5051 -0.0283
10625TIP3    H153290   3.883   3.924  13.383 -0.6295 -1.6340  0.4289
10625TIP3    H253291   3.739   3.965  13.408 -0.2563  0.0423 -0.0970
10626TIP3   OH253292   4.685   2.477  14.973  0.7387 -1.0245 -0.5251
10626TIP3    H153293   4.611   2.533  14.997 -1.1965 -2.9459 -1.5986
10626TIP3    H253294   4.742   2.533  14.922  0.6519  0.8266  1.2831
10627TIP3   OH253295   1.370   2.748   3.196 -0.0695 -0.1192  0.4805
10627TIP3    H153296   1.278   2.761   3.176 -0.6487  0.1961  2.9571
10627TIP3    H253297   1.417   2.792   3.125 -1.8223  0.5207 -0.3343
10628TIP3   OH253298   3.543   3.479   2.687  0.5402 -0.2571 -0.7310
10628TIP3    H153299   3.476   3.411   2.686 -0.9905  1.1570  0.1046
10628TIP3    H253300   3.615   3.442   2.737 -0.4950 -1.0735  0.1981
10629TIP3   OH253301   4.796   5.620  15.855  0.0700 -0.5267 -0.2011
10629TIP3    H153302   4.737   5.557  15.815 -1.1608  0.3373  0.1965
10629TIP3    H253303   4.766   5.705  15.822  1.5674 -0.1172 -0.5720
10630TIP3   OH253304   4.300   3.286  13.254  0.6100 -0.6562  0.1870
10630TIP3    H153305   4.298   3.195  13.224 -1.0477 -0.3706 -0.6457
10630TIP3    H253306   4.320   3.337  13.176  0.0642 -0.1880  0.3492
10631TIP3   OH253307   5.703   1.614  13.377  0.1478  0.1324  0.3308
10631TIP3    H153308   5.662   1.634  13.293 -0.0384  1.1877  0.6642
10631TIP3    H253309   5.793   1.589  13.354 -0.0911 -0.2473 -0.2291
10632TIP3   OH253310   1.064   5.646  13.620 -0.6120  0.0917  0.4078
10632TIP3    H153311   1.052   5.574  13.558  1.5225 -0.1765  0.2106
10632TIP3    H253312   1.082   5.722  13.565  2.5464 -0.3940  0.5709
10633TIP3   OH253313   4.103   1.007   0.120  0.0500  0.6477 -1.1289
10633TIP3    H153314   4.139   1.078   0.066  0.0407  1.6492  0.1468
10633TIP3    H253315   4.086   0.937   0.057 -2.8911  2.8215 -3.0687
10634TIP3   OH253316   0.791   3.064   6.090 -0.3415  0.0967  0.3456
10634TIP3    H153317   0.772   2.973   6.067  0.4785 -0.0406  0.2054
10634TIP3    H253318   0.746   3.077   6.174 -0.8626 -0.2841  0.1336
10635TIP3   OH253319   4.149   1.084   0.403 -0.2217  0.5798 -0.3149
10635TIP3    H153320   4.245   1.083   0.402 -0.2193 -0.0635 -0.1265
10635TIP3    H253321   4.124   1.058   0.314 -0.2204  0.4991 -0.2917
10636TIP3   OH253322   3.331   2.020   6.121 -0.3928  0.1200  0.5086
10636TIP3    H153323   3.414   1.987   6.155 -0.8366 -0.2506  1.2606
10636TIP3    H253324   3.280   1.941   6.103 -0.5926  0.3481  0.0632
10637TIP3   OH253325   5.331   3.875   1.607  0.4627  0.3977 -0.4806
10637TIP3    H153326   5.254   3.818   1.610 -0.3801  1.2968 -2.8170
10637TIP3    H253327   5.381   3.845   1.531  1.0407  1.4983 -0.5643
10638TIP3   OH253328   4.892   4.973  16.111  0.4147 -0.6042 -0.3570
10638TIP3    H153329   4.814   4.958  16.057 -0.0949  1.1084 -0.1494
10638TIP3    H253330   4.934   4.887  16.116 -0.1977 -1.0870 -2.4047
10639TIP3   OH253331   5.261   0.094  14.901 -0.0113  0.5551  0.5664
10639TIP3    H153332   5.253   0.182  14.862  0.7216  0.0012 -0.9167
10639TIP3    H253333   5.234   0.106  14.992 -1.7315  1.9371 -0.0589
10640TIP3   OH253334   1.458   1.916  13.197 -0.2107 -0.3831 -0.4976
10640TIP3    H153335   1.497   1.828  13.201  1.5858  0.2248 -2.5843
10640TIP3    H253336   1.365   1.902  13.217  0.5470 -2.2423  2.4884
10641TIP3   OH253337   3.419   2.222  13.523  0.0342 -0.6208 -0.2145
10641TIP3    H153338   3.423   2.139  13.476 -0.7905 -0.4970 -0.5108
10641TIP3    H253339   3.510   2.251  13.527  0.1247 -0.6473 -1.7092
10642TIP3   OH253340   5.044   4.370   3.654 -0.0360  0.0242 -0.0851
10642TIP3    H153341   5.116   4.433   3.661  1.0210 -1.1357 -0.1300
10642TIP3    H253342   5.080   4.299   3.600 -1.1234 -0.7137  0.1286
10643TIP3   OH253343   5.324   4.985  12.612 -0.4837 -0.3078  0.2677
10643TIP3    H153344   5.354   4.943  12.693 -0.7169  1.2917  1.2136
10643TIP3    H253345   5.373   4.939  12.543 -0.7686 -2.1547  1.2179
10644TIP3   OH253346   1.214   2.855   0.580 -0.6140  0.2325  0.3068
10644TIP3    H153347   1.147   2.790   0.558  0.0958  0.2671 -2.3648
10644TIP3    H253348   1.170   2.916   0.639 -2.2422 -0.9556  0.4029
10645TIP3   OH253349   5.095   3.617   0.183 -0.0758  0.5378 -0.1434
10645TIP3    H153350   5.185   3.628   0.153  0.4720 -0.9265  0.8319
10645TIP3    H253351   5.042   3.624   0.104  0.9336  0.9554 -0.7983
10646TIP3   OH253352   6.437   2.838  12.143  0.4954 -0.1028 -0.6474
10646TIP3    H153353   6.396   2.924  12.137  2.0753  0.8161  0.9512
10646TIP3    H253354   6.369   2.777  12.112 -0.9013  1.6240 -1.1338
10647TIP3   OH253355   1.809   5.938  11.907 -0.3236 -0.5289  0.7150
10647TIP3    H153356   1.772   6.022  11.880 -3.0348 -1.4524  1.2784
10647TIP3    H253357   1.872   5.960  11.976 -0.9436  1.0397  0.8148
10648TIP3   OH253358   6.660   6.761   5.963  0.3160 -0.5549  0.2920
10648TIP3    H153359   6.641   6.810   6.043 -0.1662  1.5202 -1.0247
10648TIP3    H253360   6.623   6.815   5.892  1.4740 -1.8946 -1.4106
10649TIP3   OH253361   4.570   0.212   1.635 -0.0327  0.0742 -0.1265
10649TIP3    H153362   4.658   0.225   1.670 -0.3587  1.5261  0.2262
10649TIP3    H253363   4.580   0.145   1.568  1.1176 -0.6921  0.7793
10650TIP3   OH253364   4.546   0.042   1.422 -0.4271 -0.1424  0.0555
10650TIP3    H153365   4.511  -0.043   1.451  2.2723 -0.8420  1.5700
10650TIP3    H253366   4.562   0.031   1.328 -0.1963 -1.2886  0.2198
10651TIP3   OH253367   6.329   0.339   4.837 -0.1277 -0.5752  0.1881
10651TIP3    H153368   6.297   0.281   4.906 -2.3831 -0.3352 -0.5893
10651TIP3    H253369   6.271   0.415   4.840  1.3447  0.6317 -0.3273
10652TIP3   OH253370   5.558   0.668   1.657 -0.3563 -0.8035 -0.1529
10652TIP3    H153371   5.474   0.705   1.627 -0.3935  0.8952  1.7903
10652TIP3    H253372   5.540   0.575   1.669 -1.9653 -0.4878  0.1759
10653TIP3   OH253373   4.937   2.767   3.278  0.6763  0.0118 -0.1206
10653TIP3    H153374   5.018   2.720   3.294  0.4156 -0.3438  0.1725
10653TIP3    H253375   4.868   2.706   3.303  0.3461  1.2470  2.2991
10654TIP3   OH253376   6.255   1.093  14.871 -0.0008 -0.6482  0.1854
10654TIP3    H153377   6.271   1.123  14.960 -3.2501 -1.3085  1.1496
10654TIP3    H253378   6.198   1.017  14.881 -2.1865  0.4450 -2.4315
10655TIP3   OH253379   4.893   5.710   3.295 -0.3604 -0.0672 -0.0318
10655TIP3    H153380   4.988   5.707   3.280  0.0199 -0.7539  2.1824
10655TIP3    H253381   4.866   5.618   3.294 -1.3660  0.1730 -2.2919
10656TIP3   OH253382   4.497   0.909  13.688  0.1176 -0.4710  0.1087
10656TIP3    H153383   4.463   0.930  13.602 -1.4240  1.0444  1.0291
10656TIP3    H253384   4.592   0.923  13.681 -0.0366  0.0437 -1.2011
10657TIP3   OH253385   2.995   6.643  13.818  0.3638 -0.0770 -0.3094
10657TIP3    H153386   2.944   6.568  13.788  2.8398 -1.8630 -0.3991
10657TIP3    H253387   3.032   6.680  13.737  1.6092 -0.7204 -0.0644
10658TIP3   OH253388   6.563   1.964  14.225 -0.1868  0.0795 -0.4761
10658TIP3    H153389   6.655   1.989  14.232  0.0475 -0.5638 -1.1313
10658TIP3    H253390   6.536   1.946  14.315  0.4246 -0.0327 -0.3082
10659TIP3   OH253391   0.213   2.404   1.601  0.1608  0.3216  0.3257
10659TIP3    H153392   0.264   2.436   1.526 -1.3284  1.4014 -0.2898
10659TIP3    H253393   0.169   2.325   1.568  1.3789 -0.6102  0.8563
10660TIP3   OH253394   6.358   4.124   0.745  0.2748 -0.2316 -0.1692
10660TIP3    H153395   6.395   4.125   0.657  0.6144  0.2772 -0.0230
10660TIP3    H253396   6.282   4.182   0.740  0.6695  0.3041  0.0331
10661TIP3   OH253397   4.117   4.589   3.279 -0.3468 -0.1386  0.3640
10661TIP3    H153398   4.078   4.505   3.305 -0.3376  0.3980  2.1908
10661TIP3    H253399   4.042   4.646   3.263 -0.3990  0.4820  2.5179
10662TIP3   OH253400   1.155   5.352  16.769 -0.5649  0.3975  0.1821
10662TIP3    H153401   1.106   5.283  16.725  1.3265 -1.8152  1.3244
10662TIP3    H253402   1.175   5.415  16.700 -1.2116 -0.8422 -1.1945
10663TIP3   OH253403   2.188   6.321   2.731 -0.2561 -0.4487  1.0163
10663TIP3    H153404   2.123   6.357   2.672  0.3696  0.5109  0.8846
10663TIP3    H253405   2.211   6.236   2.693 -0.0877  0.0205  0.0425
10664TIP3   OH253406   2.633   6.012  13.789 -0.3185 -0.0724 -0.4732
10664TIP3    H153407   2.635   6.070  13.865 -1.8869 -0.1213 -0.3596
10664TIP3    H253408   2.580   6.059  13.725 -0.4550 -0.7915 -0.8940
10665TIP3   OH253409   5.951   4.862  10.862 -0.0900 -0.4820  0.0923
10665TIP3    H153410   5.920   4.947  10.832 -1.7697 -0.8149  0.7697
10665TIP3    H253411   6.015   4.882  10.930  0.7867  0.2234 -0.9048
10666TIP3   OH253412   6.582   1.208   3.179  0.4954 -0.8149 -0.5432
10666TIP3    H153413   6.492   1.200   3.210  0.0880 -1.0109 -1.7204
10666TIP3    H253414   6.634   1.220   3.258 -0.8002  1.6430  0.0507
10667TIP3   OH253415   4.881   5.097   0.894  0.0411 -0.4088  0.6038
10667TIP3    H153416   4.833   5.162   0.842 -0.8272 -0.3777  1.4140
10667TIP3    H253417   4.855   5.013   0.856  0.6666 -0.3160 -0.0365
10668TIP3   OH253418   1.439   4.065   2.106 -0.0558  0.1004  0.7067
10668TIP3    H153419   1.503   4.090   2.039 -0.3829  0.0719  0.3801
10668TIP3    H253420   1.461   3.974   2.126  0.5634  0.3611  1.2405
10669TIP3   OH253421   2.166   1.465   3.114 -0.5146  0.0075  0.1128
10669TIP3    H153422   2.083   1.449   3.071 -0.4388  0.9488 -0.4047
10669TIP3    H253423   2.215   1.383   3.103 -1.1643 -0.3652 -0.0428
10670TIP3   OH253424   2.165   0.448  12.057 -0.7164 -0.7575 -0.1686
10670TIP3    H153425   2.100   0.386  12.089  0.4826 -1.2807  1.4006
10670TIP3    H253426   2.117   0.530  12.045 -1.4034 -0.6936  2.4568
10671TIP3   OH253427   5.346   1.062  16.468  0.0025 -0.2444 -0.5602
10671TIP3    H153428   5.320   1.027  16.383 -0.3796 -0.5488 -0.3226
10671TIP3    H253429   5.392   0.989  16.511 -1.0505 -0.5781  0.0542
10672TIP3   OH253430   1.751   3.658   1.800 -0.8373  0.3240  0.0464
10672TIP3    H153431   1.787   3.570   1.803 -1.3444  0.1268  0.5800
10672TIP3    H253432   1.759   3.691   1.890  1.8283  1.8621 -0.6571
10673TIP3   OH253433   2.781   2.424   6.118  0.0675  0.9218 -0.3926
10673TIP3    H153434   2.698   2.471   6.130 -0.7106 -0.5358  0.2641
10673TIP3    H253435   2.801   2.389   6.204 -0.7582 -2.0469 -1.2767
10674TIP3   OH253436   4.361   0.334   0.675  0.1198 -0.0027  0.3636
10674TIP3    H153437   4.360   0.262   0.612 -3.8017 -0.5765  0.8461
10674TIP3    H253438   4.428   0.309   0.739  0.2661 -2.2071 -0.5647
10675TIP3   OH253439   2.109   5.648  14.871 -0.3922 -0.4323 -0.1926
10675TIP3    H153440   2.147   5.685  14.791 -1.6410  0.0698 -0.5816
10675TIP3    H253441   2.072   5.564  14.843  0.3054 -0.8576  0.1511
10676TIP3   OH253442   2.517   1.863  14.112  0.2250  0.1152  0.1603
10676TIP3    H153443   2.471   1.890  14.192  0.1560  1.6383 -0.3588
10676TIP3    H253444   2.462   1.894  14.041  0.5773 -0.7140 -0.4901
10677TIP3   OH253445   4.365   1.508  16.715 -0.7364  0.3399  0.5631
10677TIP3    H153446   4.374   1.422  16.675 -2.0608 -0.0356  1.0106
10677TIP3    H253447   4.273   1.531  16.702 -0.8389  0.8831  2.0334
10678TIP3   OH253448   1.619   6.198  12.247 -0.1693 -1.2295  0.1387
10678TIP3    H153449   1.611   6.137  12.173  1.1179 -1.5982  0.2752
10678TIP3    H253450   1.712   6.194  12.271 -0.2069  0.2227  0.6436
10679TIP3   OH253451   0.167   0.251   5.913 -0.3304  0.0597 -0.3539
10679TIP3    H153452   0.083   0.289   5.935  0.1973  0.9549  0.1742
10679TIP3    H253453   0.182   0.186   5.982 -0.4671  0.0887 -0.2962
10680TIP3   OH253454   2.954   1.480   2.321 -0.5651  0.3550 -0.4330
10680TIP3    H153455   2.864   1.489   2.353 -0.4505 -0.3853  0.1354
10680TIP3    H253456   2.997   1.426   2.387  0.3407  0.8149 -0.6309
10681TIP3   OH253457   4.521   6.323   3.086 -0.7617 -0.2215  0.2259
10681TIP3    H153458   4.433   6.299   3.114  0.0399 -2.1084  1.3611
10681TIP3    H253459   4.544   6.258   3.020 -0.2877  0.3852 -0.2188
10682TIP3   OH253460   0.432   0.402  15.658 -0.0418 -0.0003  0.2341
10682TIP3    H153461   0.421   0.427  15.750  1.5240  2.1380 -0.0866
10682TIP3    H253462   0.505   0.339  15.660  0.0635  0.1249  0.4518
10683TIP3   OH253463   3.735   6.184   4.041 -0.2108 -0.7205  0.5731
10683TIP3    H153464   3.692   6.130   3.975  2.7240 -2.0509 -0.3754
10683TIP3    H253465   3.709   6.144   4.125 -3.0650  0.3185  0.3089
10684TIP3   OH253466   0.777   1.240   5.302 -0.1602  0.4648 -0.0652
10684TIP3    H153467   0.739   1.168   5.354  0.7011  1.0460  1.4378
10684TIP3    H253468   0.737   1.319   5.338  0.3885  0.8746 -0.3411
10685TIP3   OH253469   4.329   6.012   1.617 -0.7700 -0.4255  0.0033
10685TIP3    H153470   4.375   6.060   1.547 -1.3946 -2.2120 -1.7328
10685TIP3    H253471   4.377   6.034   1.697  0.2174  1.4047 -1.0273
10686TIP3   OH253472   6.732   0.396   2.400 -0.4948  0.5111 -0.0568
10686TIP3    H153473   6.652   0.354   2.433  0.2058  0.6728  1.9960
10686TIP3    H253474   6.781   0.419   2.479  1.5636  0.4799 -1.2613
10687TIP3   OH253475   5.484   6.711  15.051 -0.6020 -0.4300 -0.6603
10687TIP3    H153476   5.428   6.718  14.974 -2.2636  0.8740  0.5936
10687TIP3    H253477   5.463   6.626  15.089 -1.3178 -0.1914 -0.5156
10688TIP3   OH253478   3.366   6.110   5.373  0.2432  0.1498  0.1049
10688TIP3    H153479   3.452   6.098   5.414  0.9066  1.8947 -0.7110
10688TIP3    H253480   3.371   6.062   5.291  0.8192  1.1003 -0.4250
10689TIP3   OH253481   3.943   0.999   5.240  0.3111  0.5271  0.1228
10689TIP3    H153482   3.887   1.071   5.211 -0.3988  0.3268  0.9444
10689TIP3    H253483   3.907   0.921   5.197  0.5890  0.5408 -0.1407
10690TIP3   OH253484   0.385   0.485  14.298  0.1255 -0.6960  0.1623
10690TIP3    H153485   0.456   0.526  14.249  1.1345 -0.5223  1.7041
10690TIP3    H253486   0.403   0.391  14.294  0.8587 -0.6162  1.1006
10691TIP3   OH253487   1.486   1.944  11.616  0.0975 -0.1442 -0.2451
10691TIP3    H153488   1.491   2.021  11.560 -1.7347  2.8487  3.2826
10691TIP3    H253489   1.558   1.955  11.678 -1.9261  0.5226  2.1447
10692TIP3   OH253490   5.587   3.847  16.465  0.9126  0.8239 -0.3554
10692TIP3    H153491   5.603   3.760  16.500  1.1243  1.6049  1.6209
10692TIP3    H253492   5.659   3.863  16.404  1.4929  0.0475  0.1221
10693TIP3   OH253493   6.633   1.320  15.553  0.7207 -0.0233 -0.0709
10693TIP3    H153494   6.541   1.340  15.569  0.5928 -0.9122  0.3633
10693TIP3    H253495   6.636   1.292  15.461  0.6730  0.5940 -0.2672
10694TIP3   OH253496   0.297   0.649  16.996  0.0183  0.8416 -0.4129
10694TIP3    H153497   0.376   0.679  17.042 -1.2398  0.3334  2.3098
10694TIP3    H253498   0.233   0.718  17.012 -1.4154 -0.8272  1.6008
10695TIP3   OH253499   0.881   2.902   3.041 -0.3974  0.6142  0.3941
10695TIP3    H153500   0.848   2.822   3.082 -0.5136  0.0076 -0.8443
10695TIP3    H253501   0.916   2.953   3.114 -1.8328  0.1865  1.4298
10696TIP3   OH253502   1.473   4.944  16.928 -0.1143 -0.3103  0.1526
10696TIP3    H153503   1.538   4.875  16.923 -0.9160 -1.0382 -0.4027
10696TIP3    H253504   1.484   4.994  16.848 -1.1130 -1.2422 -0.5849
10697TIP3   OH253505   6.469   3.423  14.363  0.5526  0.1001 -0.2416
10697TIP3    H153506   6.447   3.361  14.433  1.9833 -0.0724  0.1074
10697TIP3    H253507   6.400   3.412  14.298  1.2954 -2.6547 -0.6974
10698TIP3   OH253508   5.590   0.048   3.905 -0.1045 -0.0648  0.1886
10698TIP3    H153509   5.612  -0.044   3.889 -1.0913 -0.4329  0.8555
10698TIP3    H253510   5.670   0.085   3.942  0.9433 -0.1500 -1.8996
10699TIP3   OH253511   4.974   3.232  12.687  0.0177  0.5429  0.3850
10699TIP3    H153512   4.933   3.215  12.772  0.5971  0.4282  0.6480
10699TIP3    H253513   5.061   3.193  12.694  0.0240  0.4240 -0.3089
10700TIP3   OH253514   2.797   6.451   0.851 -0.3763 -0.4977 -0.2777
10700TIP3    H153515   2.755   6.489   0.928 -1.2136 -0.0246 -0.9574
10700TIP3    H253516   2.772   6.508   0.779 -0.3182 -1.4215 -1.0507
10701TIP3   OH253517   2.087   0.212  11.641 -0.4473  0.1939 -0.1100
10701TIP3    H153518   2.139   0.134  11.660 -1.1979 -0.5752 -1.0764
10701TIP3    H253519   2.058   0.243  11.727  0.0476 -0.4661  0.3047
10702TIP3   OH253520   4.956   6.668   5.686  0.4661 -0.1504 -0.0189
10702TIP3    H153521   4.966   6.573   5.676  1.3615 -0.2134  1.2340
10702TIP3    H253522   5.015   6.690   5.758 -0.9697  1.1243  0.7979
10703TIP3   OH253523   0.533   6.557   1.244  0.3342 -0.5572  0.0350
10703TIP3    H153524   0.533   6.520   1.332 -1.9963  1.3249  0.9353
10703TIP3    H253525   0.508   6.484   1.188 -2.0750 -0.9486  1.4744
10704TIP3   OH253526   2.139   0.263   2.921 -0.5988  0.1204  0.3619
10704TIP3    H153527   2.230   0.254   2.949  0.0510  0.5760 -1.5103
10704TIP3    H253528   2.089   0.227   2.994  1.0796 -0.3863  1.3256
10705TIP3   OH253529   4.747   0.736   5.737 -0.4076 -0.0570 -0.2538
10705TIP3    H153530   4.706   0.819   5.715 -0.0058 -0.0851 -1.1754
10705TIP3    H253531   4.741   0.684   5.656  0.0795 -0.6103  0.0547
10706TIP3   OH253532   1.868   2.267   3.975  0.0141 -0.3390 -0.0834
10706TIP3    H153533   1.824   2.299   4.054 -0.1863 -0.6103 -0.0861
10706TIP3    H253534   1.838   2.177   3.965  0.9002 -0.6638  0.1503
10707TIP3   OH253535   0.810   0.344   4.073  0.3823 -0.3281 -0.0894
10707TIP3    H153536   0.780   0.292   4.147 -1.0305 -0.4302 -0.6979
10707TIP3    H253537   0.905   0.347   4.082  0.2522 -0.5308  1.5827
10708TIP3   OH253538   5.964   2.735   2.095  0.2787 -0.0331 -0.4583
10708TIP3    H153539   5.913   2.657   2.076 -2.0877  0.8847  1.5830
10708TIP3    H253540   5.920   2.805   2.048  0.4749  0.5527  0.2084
10709TIP3   OH253541   5.044   3.828  14.456  0.3604  0.4785 -0.9643
10709TIP3    H153542   5.053   3.843  14.550  0.0631  0.8483 -0.9921
10709TIP3    H253543   5.038   3.916  14.418 -0.1704  0.3195 -1.2623
10710TIP3   OH253544   6.696   5.603  16.256  0.0101  0.1417 -0.1075
10710TIP3    H153545   6.743   5.653  16.323 -2.3504 -0.6496  2.3249
10710TIP3    H253546   6.738   5.517  16.257  0.0782  0.1787  0.2494
10711TIP3   OH253547   1.909   4.550  11.211  0.2112  0.2547  0.0074
10711TIP3    H153548   1.872   4.632  11.180 -0.3748  0.1596  0.4383
10711TIP3    H253549   2.004   4.564  11.207  0.1677  0.2195 -1.8447
10712TIP3   OH253550   1.786   2.123  11.605 -0.4808  0.7036  0.7639
10712TIP3    H153551   1.872   2.160  11.589 -0.1218 -0.4297 -0.0899
10712TIP3    H253552   1.736   2.143  11.525 -0.0442 -1.2278 -0.0499
10713TIP3   OH253553   0.353   0.226   2.310  0.2718  0.0350  0.2307
10713TIP3    H153554   0.410   0.179   2.371  0.3909  0.4700  0.4671
10713TIP3    H253555   0.413   0.264   2.246  0.1378 -0.4966 -0.2148
10714TIP3   OH253556   1.179   4.959  16.794  0.1888  0.3642 -0.1941
10714TIP3    H153557   1.249   5.025  16.796  1.4636 -0.9157 -0.7254
10714TIP3    H253558   1.203   4.897  16.863 -0.1786 -0.3228 -0.6782
10715TIP3   OH253559   2.615   1.811   2.636 -0.1379 -0.0955 -0.3621
10715TIP3    H153560   2.579   1.739   2.689 -0.9242  0.5387 -0.0146
10715TIP3    H253561   2.538   1.859   2.605  0.3979  1.3172  0.4254
10716TIP3   OH253562   0.314   1.879   2.969  0.2467  0.2787 -0.2267
10716TIP3    H153563   0.298   1.891   2.876 -1.8661 -0.5343 -0.0234
10716TIP3    H253564   0.277   1.957   3.010 -1.4100 -0.6345  0.0986
10717TIP3   OH253565   5.828   5.248  16.972  0.0231  0.5725 -0.1732
10717TIP3    H153566   5.901   5.203  16.928 -0.8035  0.9971 -2.0742
10717TIP3    H253567   5.759   5.253  16.906 -1.9866 -0.2936  1.7271
10718TIP3   OH253568   2.474   6.411   2.384  0.4011  0.4324  0.4461
10718TIP3    H153569   2.405   6.346   2.373  2.1191 -1.5890  1.1399
10718TIP3    H253570   2.483   6.422   2.479 -0.1124  2.0255  0.3497
10719TIP3   OH253571   4.087   4.362   7.075 -0.4003 -0.1606  0.3210
10719TIP3    H153572   4.092   4.456   7.057  1.3013 -0.4087 -0.7872
10719TIP3    H253573   4.058   4.323   6.993 -0.0458 -0.6823  0.4334
10720TIP3   OH253574   4.327   3.830  13.061  0.2026 -0.3276  0.2059
10720TIP3    H153575   4.374   3.835  12.977  1.0559 -2.4108  0.4875
10720TIP3    H253576   4.396   3.829  13.127 -0.2753 -1.7562  0.7245
10721TIP3   OH253577   1.412   5.361  15.923  0.0333 -0.1241  0.3969
10721TIP3    H153578   1.371   5.348  16.008 -1.2041  0.2042 -0.1308
10721TIP3    H253579   1.341   5.350  15.860  0.3230  2.3202 -0.4522
10722TIP3   OH253580   1.303   2.218   3.335  0.2970 -0.1711 -0.1088
10722TIP3    H153581   1.241   2.221   3.407 -0.5132 -2.4684 -0.6259
10722TIP3    H253582   1.377   2.168   3.369  0.5263 -0.0483 -0.4232
10723TIP3   OH253583   1.016   4.345   4.516 -0.4204 -0.5654 -0.1736
10723TIP3    H153584   0.951   4.307   4.574 -0.0503 -0.6684  0.1781
10723TIP3    H253585   0.990   4.316   4.428  0.6036 -2.7997  0.1953
10724TIP3   OH253586   5.054   0.286   0.932  0.0754  0.4263  0.3736
10724TIP3    H153587   5.137   0.316   0.969 -0.3310 -1.6627  3.2900
10724TIP3    H253588   4.988   0.343   0.971 -0.0664  0.6666 -0.2047
10725TIP3   OH253589   5.416   3.628   1.143 -0.1554  0.2936  0.6695
10725TIP3    H153590   5.347   3.629   1.209 -1.0433  0.6944 -0.2394
10725TIP3    H253591   5.465   3.709   1.159 -0.5704  0.5560  0.6252
10726TIP3   OH253592   5.748   3.335  12.589  0.4991 -0.3356  0.0573
10726TIP3    H153593   5.807   3.319  12.662  0.5620 -0.3038  0.0128
10726TIP3    H253594   5.662   3.344  12.630  0.3818 -1.2698  0.0354
10727TIP3   OH253595   0.102   6.780  13.191  0.3686 -0.6342 -0.4019
10727TIP3    H153596   0.167   6.714  13.164  0.1206 -1.5393  1.0704
10727TIP3    H253597   0.149   6.834  13.255  0.1175 -0.3736 -0.4389
10728TIP3   OH253598   1.878   2.772  13.780 -0.0534  0.1375  0.0495
10728TIP3    H153599   1.863   2.866  13.771 -1.0332 -0.0322 -0.2132
10728TIP3    H253600   1.805   2.741  13.832  0.3466 -0.4674  0.2601
10729TIP3   OH253601   0.075   1.322  16.728 -0.3233  0.3551  0.2043
10729TIP3    H153602   0.120   1.372  16.796 -0.3128  1.0088 -0.2733
10729TIP3    H253603  -0.006   1.370  16.712 -0.0006  0.6120 -0.7365
10730TIP3   OH253604   6.084   2.017   0.893  0.2588 -0.5107  0.3495
10730TIP3    H153605   6.110   1.933   0.857  0.1759 -0.4861  0.2348
10730TIP3    H253606   5.995   2.032   0.861 -0.3332 -1.1092  1.6507
10731TIP3   OH253607   6.213   0.509  14.853  0.6184 -0.5046 -0.3738
10731TIP3    H153608   6.134   0.543  14.812 -0.6923 -1.4950  1.1996
10731TIP3    H253609   6.248   0.584  14.902 -0.6474 -0.5937  0.7445
10732TIP3   OH253610   5.466   0.216   5.609 -0.8584  0.3663  0.4145
10732TIP3    H153611   5.471   0.244   5.701 -0.7455 -0.4858  0.6734
10732TIP3    H253612   5.387   0.163   5.604 -0.3226 -0.4329  0.2575
10733TIP3   OH253613   3.443   6.778   4.769 -0.5441 -0.0797  0.6090
10733TIP3    H153614   3.354   6.751   4.792 -0.6975 -0.0908  0.0150
10733TIP3    H253615   3.455   6.747   4.680  0.2201 -0.4699  0.8385
10734TIP3   OH253616   4.937   5.220   1.153  0.7656  0.0095 -0.8958
10734TIP3    H153617   4.949   5.133   1.191  1.5082 -0.0840 -1.3182
10734TIP3    H253618   4.872   5.207   1.084 -0.8772  0.2584  0.5660
10735TIP3   OH253619   3.199   5.324   6.008  0.0135 -0.7296  0.7543
10735TIP3    H153620   3.149   5.402   6.034 -1.2498 -0.9674 -0.7782
10735TIP3    H253621   3.239   5.348   5.924 -0.2058 -1.6213  0.3769
10736TIP3   OH253622   4.760   1.257   2.851  0.2327  0.1828  0.1967
10736TIP3    H153623   4.765   1.238   2.757  2.1557  2.4806 -0.2715
10736TIP3    H253624   4.850   1.245   2.882 -0.4612 -0.9956  1.8878
10737TIP3   OH253625   6.121   1.642  12.785 -0.1181  0.6588  0.4825
10737TIP3    H153626   6.180   1.627  12.859 -1.6213 -1.1188  1.4070
10737TIP3    H253627   6.156   1.586  12.715  0.6162  1.4309  0.2109
10738TIP3   OH253628   0.682   2.476  10.416 -0.0835  0.2887 -0.4477
10738TIP3    H153629   0.771   2.458  10.386  0.3090  2.1591 -0.5150
10738TIP3    H253630   0.629   2.471  10.337  0.1870  0.5366 -0.6472
10739TIP3   OH253631   2.088   3.510  16.549  0.5238 -0.1973  0.2591
10739TIP3    H153632   2.010   3.560  16.576  2.0168  3.1943 -1.1013
10739TIP3    H253633   2.160   3.553  16.595  1.7708 -2.5693  0.6552
10740TIP3   OH253634   3.003   2.408  16.144 -0.0863  0.0133  0.2280
10740TIP3    H153635   2.993   2.456  16.226 -3.0810  0.6714 -0.4144
10740TIP3    H253636   3.001   2.316  16.169  0.5958  0.2089  1.0180
10741TIP3   OH253637   2.048   1.566  11.617 -0.0099 -0.8271 -0.2039
10741TIP3    H153638   2.132   1.549  11.659 -0.0412  0.4452  0.4032
10741TIP3    H253639   1.984   1.516  11.669  0.2621 -1.1646 -0.1916
10742TIP3   OH253640   2.399   5.769   0.185 -0.7696  0.2805 -0.5386
10742TIP3    H153641   2.461   5.777   0.112  1.3905 -1.5915  0.9483
10742TIP3    H253642   2.399   5.856   0.226  0.1327  0.5853 -1.1440
10743TIP3   OH253643   6.705   1.873   3.499  0.1231 -0.1402 -0.1858
10743TIP3    H153644   6.748   1.911   3.576  0.0933 -0.4641 -0.0082
10743TIP3    H253645   6.685   1.949   3.443  1.0596 -0.0017 -0.3478
10744TIP3   OH253646   0.183   1.948   5.784 -0.0352  0.0015  0.1214
10744TIP3    H153647   0.242   1.899   5.842 -0.2411 -1.5092 -0.8845
10744TIP3    H253648   0.236   1.968   5.707 -0.9760 -2.1676 -1.1988
10745TIP3   OH253649   3.192   6.195   3.133  0.0907  0.3112 -0.3907
10745TIP3    H153650   3.169   6.191   3.226 -0.0190  1.8295 -0.3267
10745TIP3    H253651   3.279   6.156   3.128 -0.6395 -1.5300  0.0262
10746TIP3   OH253652   1.147   1.825  11.401  0.6174 -0.0844  0.4381
10746TIP3    H153653   1.161   1.885  11.327 -2.4759 -2.3697 -2.3099
10746TIP3    H253654   1.080   1.869  11.454  2.4070  1.2899  1.6680
10747TIP3   OH253655   4.972   3.954   4.528  1.0061  0.1320 -0.5345
10747TIP3    H153656   4.979   3.860   4.509 -0.1924 -0.3237  1.0508
10747TIP3    H253657   5.062   3.986   4.522  1.3930 -1.0422 -1.4324
10748TIP3   OH253658   0.753   5.167   5.006  0.6058 -0.2112 -0.0583
10748TIP3    H153659   0.692   5.220   4.953  1.9558 -1.0552 -2.6237
10748TIP3    H253660   0.713   5.080   5.007  1.1375 -0.4691 -0.6965
10749TIP3   OH253661   4.453   4.104  12.514  0.6509  0.5736  0.1647
10749TIP3    H153662   4.435   4.041  12.444  1.1818  0.7282 -0.1144
10749TIP3    H253663   4.519   4.061  12.569  0.6359  0.6772  0.2659
10750TIP3   OH253664   2.774   5.186   0.287  0.1902  0.2785 -0.4045
10750TIP3    H153665   2.722   5.256   0.247  0.3357  1.0456  0.7007
10750TIP3    H253666   2.750   5.189   0.380  2.8052  1.2222  0.3273
10751TIP3   OH253667   3.922   5.037   2.661 -0.8119  0.0606  0.1128
10751TIP3    H153668   3.842   4.993   2.635 -0.6367 -0.1954  0.0007
10751TIP3    H253669   3.893   5.120   2.699 -1.1203  0.0232 -0.0399
10752TIP3   OH253670   5.882   5.049  12.653  0.2678  0.1476 -0.4466
10752TIP3    H153671   5.877   5.082  12.743 -0.3372  0.5737 -0.6299
10752TIP3    H253672   5.949   4.981  12.657 -1.2542 -1.3800  0.8263
10753TIP3   OH253673   3.137   5.467   5.767 -0.2395 -0.1428  0.1381
10753TIP3    H153674   3.191   5.498   5.694  0.1157  1.6642  1.1144
10753TIP3    H253675   3.103   5.546   5.807 -2.3566 -1.1915  0.5416
10754TIP3   OH253676   0.769   1.516   1.398 -0.1041  0.7163  0.0100
10754TIP3    H153677   0.805   1.461   1.467  0.5575 -1.8755 -2.2008
10754TIP3    H253678   0.824   1.595   1.399  0.4187  0.3679  1.8320
10755TIP3   OH253679   4.299   5.296   2.398 -0.1961 -0.5303 -0.2711
10755TIP3    H153680   4.220   5.243   2.411  0.1826 -0.8316  0.9888
10755TIP3    H253681   4.368   5.232   2.381  0.1163 -0.3986  0.4705
10756TIP3   OH253682   1.635   5.762   0.160 -0.1901  0.2511 -0.2234
10756TIP3    H153683   1.687   5.748   0.081 -1.7873  1.5162 -1.5707
10756TIP3    H253684   1.684   5.829   0.209  0.8176 -0.5553 -0.0929
10757TIP3   OH253685   1.646   2.249   3.371  0.4333 -0.1507 -0.0439
10757TIP3    H153686   1.595   2.314   3.418  1.8357  0.9793 -0.0056
10757TIP3    H253687   1.737   2.276   3.383  0.9427 -0.8060 -1.9310
10758TIP3   OH253688   6.532   2.050  15.988  0.5084 -0.1932  0.0241
10758TIP3    H153689   6.449   2.092  15.965  0.0735 -2.3093 -2.9270
10758TIP3    H253690   6.591   2.122  16.007 -1.4765  1.4603  0.2809
10759TIP3   OH253691   2.510   4.117  13.499 -0.1487  0.2347 -0.2985
10759TIP3    H153692   2.523   4.210  13.520  0.0523  0.2534 -0.4957
10759TIP3    H253693   2.598   4.082  13.491 -0.2214  0.1089 -0.5768
10760TIP3   OH253694   5.911   2.068  11.773  0.1516 -0.1016 -0.1737
10760TIP3    H153695   5.873   2.059  11.686 -0.5362 -2.7231  0.2942
10760TIP3    H253696   5.906   1.980  11.810  1.9826  0.5809  1.8947
10761TIP3   OH253697   5.084   3.794  14.749  0.2209 -0.0946 -0.2583
10761TIP3    H153698   5.108   3.885  14.736 -0.9368 -0.0764 -2.8839
10761TIP3    H253699   5.166   3.745  14.738  0.3966  0.4706 -1.6312
10762TIP3   OH253700   6.154   3.450  10.544 -0.3839 -0.3583 -0.5364
10762TIP3    H153701   6.098   3.444  10.466  1.0496 -0.5238 -1.5984
10762TIP3    H253702   6.120   3.382  10.603  0.3700 -2.3987 -2.3023
10763TIP3   OH253703   0.780   4.796   5.729 -0.1712  0.2096 -0.4043
10763TIP3    H153704   0.793   4.752   5.813 -1.0727  0.4097 -0.1523
10763TIP3    H253705   0.756   4.726   5.669 -0.6468  0.2174 -0.2281
10764TIP3   OH253706   3.858   1.982  15.275  0.2795 -0.0851  0.5965
10764TIP3    H153707   3.861   2.008  15.367 -0.6428 -0.1424  0.6571
10764TIP3    H253708   3.768   1.950  15.262 -0.0126  1.1446 -0.6473
10765TIP3   OH253709   5.237   5.412  16.404 -0.0050 -0.2011  0.4284
10765TIP3    H153710   5.184   5.444  16.332  1.3979  1.6694  0.1541
10765TIP3    H253711   5.316   5.377  16.363 -0.1137 -1.0906  0.9471
10766TIP3   OH253712   3.655   4.430  15.996 -0.1577  0.2834  0.8947
10766TIP3    H153713   3.636   4.428  16.089 -0.0373  2.0159  1.0010
10766TIP3    H253714   3.627   4.517  15.968  0.3171 -0.0062 -0.5628
10767TIP3   OH253715   4.785   2.277   4.862  0.5181 -0.2972  0.1561
10767TIP3    H153716   4.740   2.341   4.808  0.2649 -1.9803 -1.7693
10767TIP3    H253717   4.872   2.314   4.877  0.9061 -0.1339 -2.2043
10768TIP3   OH253718   1.294   0.380   0.312  0.2305 -0.7851 -0.1414
10768TIP3    H153719   1.226   0.408   0.250 -1.1070 -2.2125  0.6390
10768TIP3    H253720   1.376   0.392   0.263 -0.2320  3.2246 -0.3375
10769TIP3   OH253721   1.616   4.756  12.160  0.6558  0.0057 -0.3951
10769TIP3    H153722   1.605   4.751  12.254  0.7647  1.0256 -0.3117
10769TIP3    H253723   1.540   4.710  12.124  0.3584  0.0376  0.1882
10770TIP3   OH253724   4.446   2.119  15.702  0.2683 -0.5544 -0.0931
10770TIP3    H153725   4.433   2.057  15.774  0.8904  0.4801  0.9525
10770TIP3    H253726   4.519   2.083  15.652  1.9126  0.2585  1.6179
10771TIP3   OH253727   3.075   5.220  11.639  0.5163 -0.4532 -0.6772
10771TIP3    H153728   3.053   5.300  11.592 -0.2772 -0.3857 -0.2158
10771TIP3    H253729   3.110   5.161  11.572  1.1212  0.2767 -1.0150
10772TIP3   OH253730   3.813   5.600   1.009  0.5061 -0.1517 -0.5428
10772TIP3    H153731   3.810   5.670   0.943 -1.0251 -1.5763 -2.0506
10772TIP3    H253732   3.836   5.646   1.090 -1.4220  2.2979 -1.2478
10773TIP3   OH253733   2.739   0.005  16.685 -0.3617  0.2708 -0.3737
10773TIP3    H153734   2.832   0.025  16.674 -0.2155 -0.4612 -0.5456
10773TIP3    H253735   2.738  -0.072  16.742 -0.8599  0.2548 -0.4018
10774TIP3   OH253736   4.578   3.171   1.235  0.1427 -0.3599 -0.4681
10774TIP3    H153737   4.520   3.096   1.224  1.2870 -1.2697 -0.5462
10774TIP3    H253738   4.538   3.241   1.183 -0.7337 -1.0302 -0.7111
10775TIP3   OH253739   1.547   4.760  14.590  0.0034 -0.1542  0.9860
10775TIP3    H153740   1.608   4.693  14.559 -2.1220 -2.3436  1.2366
10775TIP3    H253741   1.572   4.774  14.682  0.0008 -1.1893  1.1553
10776TIP3   OH253742   5.904   1.154   0.010  0.3198 -0.5319  0.7428
10776TIP3    H153743   5.979   1.212  -0.009 -1.1593  1.5353  0.8115
10776TIP3    H253744   5.943   1.068   0.021  2.4154 -0.0873 -1.9077
10777TIP3   OH253745   4.310   6.217   2.071  0.0288  0.0236 -0.0027
10777TIP3    H153746   4.215   6.203   2.069 -0.2471  1.5799  0.3295
10777TIP3    H253747   4.325   6.285   2.005  1.2304 -1.6823 -1.5646
10778TIP3   OH253748   2.072   2.928   6.195 -0.2828  0.3996 -0.1145
10778TIP3    H153749   2.009   2.983   6.242 -0.8162 -1.4315  1.4002
10778TIP3    H253750   2.142   2.989   6.170 -1.9285  2.2134 -0.5973
10779TIP3   OH253751   1.662   4.878   3.245  0.3327  0.6111 -0.2503
10779TIP3    H153752   1.697   4.800   3.286  1.7276  0.7389 -1.1260
10779TIP3    H253753   1.735   4.914   3.195  0.2856  3.4543  1.4907
10780TIP3   OH253754   0.485   0.296   0.427 -0.0118 -0.5760  0.6723
10780TIP3    H153755   0.496   0.208   0.462  1.0422 -0.4176  0.7773
10780TIP3    H253756   0.460   0.282   0.335  2.2214 -1.0287  0.0740
10781TIP3   OH253757   1.865   6.219  12.403 -0.2854 -0.0707  0.2096
10781TIP3    H153758   1.867   6.310  12.373  0.7642  0.2780  1.2799
10781TIP3    H253759   1.953   6.186  12.384  0.3859  0.1237  2.6652
10782TIP3   OH253760   6.336   3.518  12.471  0.6745 -0.0385 -0.0007
10782TIP3    H153761   6.290   3.479  12.397 -0.9045  2.4474 -0.4391
10782TIP3    H253762   6.379   3.444  12.514  0.8812 -1.6832 -2.8143
10783TIP3   OH253763   3.540   1.283   0.404  0.7409  0.3246  0.3591
10783TIP3    H153764   3.448   1.307   0.396  0.2517 -1.5843 -0.2913
10783TIP3    H253765   3.582   1.318   0.326 -0.2474 -1.9913 -1.3360
10784TIP3   OH253766   5.561   3.678   3.343  0.1371 -0.3450 -0.2218
10784TIP3    H153767   5.520   3.627   3.412 -1.1727 -0.7243 -1.2393
10784TIP3    H253768   5.493   3.738   3.314  1.4553  1.6015  0.5215
10785TIP3   OH253769   6.611   4.468  16.939  0.2452  0.0713  0.6207
10785TIP3    H153770   6.542   4.405  16.961  1.1010 -1.0625  0.1826
10785TIP3    H253771   6.564   4.545  16.908 -0.8532 -0.0712  1.8368
10786TIP3   OH253772   2.567   4.504   2.313 -0.3338 -0.2126 -0.0158
10786TIP3    H153773   2.570   4.522   2.219 -0.6049 -0.4180 -0.0641
10786TIP3    H253774   2.484   4.544   2.342 -1.4282 -2.1790 -0.2915
10787TIP3   OH253775   4.767   0.056   5.554  0.2543 -0.2259 -0.3949
10787TIP3    H153776   4.811  -0.008   5.610 -0.4749 -2.5761 -2.3476
10787TIP3    H253777   4.761   0.135   5.608  3.1505 -1.0670  1.3799
10788TIP3   OH253778   2.785   6.380  11.582  0.0936  0.4936 -0.4030
10788TIP3    H153779   2.732   6.458  11.600 -0.7595 -0.2420  0.4281
10788TIP3    H253780   2.872   6.401  11.615  0.0823  1.3825 -0.9244
10789TIP3   OH253781   3.761   5.084   0.924  0.6221 -0.3144  0.5039
10789TIP3    H153782   3.709   5.151   0.881  1.5724 -1.0025 -1.8969
10789TIP3    H253783   3.698   5.021   0.957 -0.1923 -1.5016 -2.9527
10790TIP3   OH253784   2.419   3.066  14.903 -0.8849 -0.0406 -0.0323
10790TIP3    H153785   2.387   2.976  14.892  0.0714 -0.3510 -0.3926
10790TIP3    H253786   2.451   3.070  14.992 -0.1161 -0.3309 -0.2902
10791TIP3   OH253787   1.404   3.059  16.511 -0.1747  0.6710 -0.1553
10791TIP3    H153788   1.390   3.153  16.522 -0.7404  0.6361 -0.5069
10791TIP3    H253789   1.460   3.034  16.584 -3.0091  0.6134  2.1988
10792TIP3   OH253790   3.317   2.264  14.084  0.7082  0.9288  0.3304
10792TIP3    H153791   3.240   2.321  14.074  0.4618  0.4253 -0.8160
10792TIP3    H253792   3.288   2.197  14.145 -0.2127  0.0536 -1.0048
10793TIP3   OH253793   6.555   3.405   5.154  0.0272 -0.6378 -0.0730
10793TIP3    H153794   6.634   3.363   5.187  0.0655 -0.3826  0.1672
10793TIP3    H253795   6.572   3.499   5.163  0.1529 -0.5467 -1.0853
10794TIP3   OH253796   0.900   0.355  12.206  0.5079 -0.3685 -0.5845
10794TIP3    H153797   0.829   0.416  12.189  0.0439  0.7245  4.0332
10794TIP3    H253798   0.976   0.395  12.164 -0.9394 -0.1238 -3.1882
10795TIP3   OH253799   6.304   2.356  13.675 -0.1799 -0.1983  0.1656
10795TIP3    H153800   6.323   2.352  13.769 -0.6770  2.2897  0.4391
10795TIP3    H253801   6.389   2.362  13.633  0.0913 -2.1169  0.3317
10796TIP3   OH253802   4.989   5.911  10.363 -0.3046 -0.4823 -0.6940
10796TIP3    H153803   4.959   5.828  10.326 -0.1800  0.2239 -2.4706
10796TIP3    H253804   5.081   5.896  10.385 -0.3746 -0.9044 -0.6769
10797TIP3   OH253805   2.708   2.369   2.126 -0.2783  0.1640 -0.0669
10797TIP3    H153806   2.627   2.415   2.146 -0.5228 -0.1525 -0.3178
10797TIP3    H253807   2.699   2.343   2.035  0.4848  0.8908 -0.3590
10798TIP3   OH253808   5.833   5.006   3.198 -0.0762 -0.2658  0.0792
10798TIP3    H153809   5.799   5.094   3.180 -0.3342 -0.1841  0.9118
10798TIP3    H253810   5.912   4.999   3.144 -0.8463 -0.0806 -1.1165
10799TIP3   OH253811   0.015   5.031   2.816  0.0036  0.0173 -0.0331
10799TIP3    H153812   0.094   4.986   2.787  0.0338 -0.2248  0.4121
10799TIP3    H253813   0.043   5.122   2.831  0.2870 -0.1587  0.5038
10800TIP3   OH253814   1.533   1.655   2.209 -0.5732 -0.4430  0.7491
10800TIP3    H153815   1.623   1.621   2.213  0.5477  2.3565  1.5673
10800TIP3    H253816   1.518   1.670   2.115 -0.1276 -0.7751  0.6199
10801TIP3   OH253817   1.528   3.158  14.797 -0.6074 -0.3917  0.3896
10801TIP3    H153818   1.578   3.099  14.854  1.6543  1.2204  0.2071
10801TIP3    H253819   1.475   3.099  14.743 -1.1054 -2.0659  2.5331
10802TIP3   OH253820   1.078   6.425   4.581 -0.7122 -0.0901 -0.4946
10802TIP3    H153821   1.078   6.440   4.487 -1.9538 -0.2396 -0.5334
10802TIP3    H253822   0.990   6.447   4.609 -0.6414 -0.9640  0.4818
10803TIP3   OH253823   1.550   3.494  17.020  0.3338  0.7661 -0.0996
10803TIP3    H153824   1.477   3.435  17.037  1.0993  0.1169  1.0692
10803TIP3    H253825   1.510   3.580  17.007 -0.6151  0.4415  0.6527
10804TIP3   OH253826   4.936   1.260  14.590  0.3674 -0.2027  0.2708
10804TIP3    H153827   4.865   1.212  14.547  1.2626 -0.6235 -0.7856
10804TIP3    H253828   5.002   1.272  14.522  0.8763  1.1047  0.9541
10805TIP3   OH253829   3.622   2.243  13.732 -0.0766 -0.9446  0.3090
10805TIP3    H153830   3.705   2.229  13.778 -0.5193 -3.1605  0.5851
10805TIP3    H253831   3.561   2.271  13.800 -0.2804 -2.4348  0.7990
10806TIP3   OH253832   6.388   5.585   0.537  0.5163 -0.7681 -0.1002
10806TIP3    H153833   6.327   5.603   0.608 -0.3527 -1.0645 -0.7544
10806TIP3    H253834   6.338   5.531   0.476  1.3853 -0.8747 -0.7348
10807TIP3   OH253835   3.119   6.238   2.139 -0.1937  0.2311 -0.1233
10807TIP3    H153836   3.175   6.314   2.120  0.5356 -0.3107 -0.2080
10807TIP3    H253837   3.145   6.173   2.073 -2.1698  0.5577 -1.3001
10808TIP3   OH253838   5.067   4.846  13.369 -0.6491 -0.1617 -0.3595
10808TIP3    H153839   5.099   4.756  13.374  1.6105  0.5982  0.2891
10808TIP3    H253840   5.115   4.884  13.296 -1.1668  0.6676 -0.2756
10809TIP3   OH253841   0.532   3.849  15.453 -0.2989  0.2675 -0.0274
10809TIP3    H153842   0.467   3.878  15.516 -1.8852 -1.3547 -0.8353
10809TIP3    H253843   0.504   3.887  15.370  0.0035 -0.1625 -0.3297
10810TIP3   OH253844   5.852   3.747   5.377 -0.4114 -0.3049 -0.4735
10810TIP3    H153845   5.862   3.678   5.311 -0.6386 -1.2823  0.4907
10810TIP3    H253846   5.760   3.773   5.370 -0.0654  0.7651 -1.6297
10811TIP3   OH253847   4.566   5.685   1.894  0.4556 -0.7179 -0.3670
10811TIP3    H153848   4.604   5.625   1.958 -0.9517 -0.1671  1.0790
10811TIP3    H253849   4.545   5.764   1.945  1.4807  0.6927 -2.0348
10812TIP3   OH253850   0.913   6.175  14.148  0.5964 -0.1007  0.0203
10812TIP3    H153851   0.827   6.217  14.140  0.5775 -0.4324 -2.0322
10812TIP3    H253852   0.971   6.246  14.176 -0.0032  0.5874 -0.4257
10813TIP3   OH253853   0.429   6.266   1.475  0.0976 -1.0161 -0.1240
10813TIP3    H153854   0.342   6.297   1.498  0.3182 -1.5436  1.5807
10813TIP3    H253855   0.488   6.332   1.511  0.4330 -1.3346 -0.0858
10814TIP3   OH253856   6.554   3.802  10.551  0.3010 -0.5600 -0.7954
10814TIP3    H153857   6.470   3.841  10.577  0.7523  0.3757 -0.6826
10814TIP3    H253858   6.552   3.800  10.456  0.0594 -0.7443 -0.7846
10815TIP3   OH253859   1.714   5.778   0.671  0.0016  1.1550  0.5599
10815TIP3    H153860   1.695   5.757   0.579  0.2843  1.6977  0.3760
10815TIP3    H253861   1.667   5.710   0.721  1.8195 -0.6511 -0.0473
10816TIP3   OH253862   0.815   1.385   6.327  0.3985  0.4079  0.0495
10816TIP3    H153863   0.781   1.463   6.371  3.1996  1.6987  0.1192
10816TIP3    H253864   0.791   1.396   6.235  1.9563  2.1421 -0.1977
10817TIP3   OH253865   2.411   1.677   0.338  0.4081 -0.5561 -0.1565
10817TIP3    H153866   2.464   1.677   0.258  0.1282  1.3943 -0.3758
10817TIP3    H253867   2.469   1.640   0.405  1.5853  0.2345 -0.6990
10818TIP3   OH253868   5.687   5.971   0.277 -0.3487  0.7085  0.2591
10818TIP3    H153869   5.626   5.922   0.223  1.7625 -1.4423 -0.3323
10818TIP3    H253870   5.698   5.918   0.356 -0.0967  1.6286  0.8647
10819TIP3   OH253871   0.600   3.914  15.899 -0.5959  0.5867  0.1271
10819TIP3    H153872   0.568   3.824  15.896 -1.5752  0.9132  0.4015
10819TIP3    H253873   0.598   3.937  15.992  0.8421  0.4856  0.1969
10820TIP3   OH253874   4.502   4.530   2.736  0.2709  0.4803 -0.3635
10820TIP3    H153875   4.553   4.508   2.814 -1.0293  0.3074  0.4570
10820TIP3    H253876   4.446   4.454   2.721  1.0794  0.1524 -1.9870
10821TIP3   OH253877   1.451   3.481  12.203 -0.1237  0.2752  0.1887
10821TIP3    H153878   1.459   3.546  12.273  0.3298 -0.0107  0.4070
10821TIP3    H253879   1.380   3.423  12.232  0.5696 -0.2860  0.7735
10822TIP3   OH253880   0.476   0.350   1.365 -0.4454 -0.2985 -0.2659
10822TIP3    H153881   0.551   0.292   1.365  0.1116  0.3358  1.3959
10822TIP3    H253882   0.455   0.363   1.273  1.6523 -0.2891 -0.7981
10823TIP3   OH253883   2.294   2.700  15.811  0.1468 -0.0137 -0.0931
10823TIP3    H153884   2.339   2.744  15.883  0.4912 -0.2753 -0.1443
10823TIP3    H253885   2.235   2.765  15.775  0.2002  0.2137  0.2297
10824TIP3   OH253886   4.184   1.063  14.498 -0.0168 -0.6717  0.3921
10824TIP3    H153887   4.187   1.148  14.453 -2.5261 -0.4000  0.5949
10824TIP3    H253888   4.131   1.008  14.440  0.6902 -1.7906  0.7905
10825TIP3   OH253889   5.747   5.220  16.670  0.1202 -0.0962  0.1072
10825TIP3    H153890   5.835   5.219  16.634 -0.8339 -0.2641 -2.4393
10825TIP3    H253891   5.724   5.313  16.676  0.0510 -0.0868 -0.3290
10826TIP3   OH253892   2.723   1.735   4.674 -0.1949 -0.0727  0.2982
10826TIP3    H153893   2.792   1.672   4.697  1.5443  1.0795 -1.3805
10826TIP3    H253894   2.770   1.818   4.663 -1.5759  0.4807 -2.2260
10827TIP3   OH253895   2.580   4.244  13.176 -0.8404 -0.0475 -0.8051
10827TIP3    H153896   2.616   4.157  13.159 -0.7676 -0.2544  0.3036
10827TIP3    H253897   2.572   4.285  13.090  1.3270 -0.2777 -1.1776
10828TIP3   OH253898   4.197   2.486  12.220  0.2978 -0.0220 -0.1534
10828TIP3    H153899   4.276   2.442  12.188  2.1604  2.1202  1.1718
10828TIP3    H253900   4.203   2.478  12.315 -1.6041 -0.5778 -0.0488
10829TIP3   OH253901   2.980   0.526  16.784 -0.1131 -0.2756 -0.5642
10829TIP3    H153902   2.977   0.481  16.700  1.5382 -0.8805 -0.3407
10829TIP3    H253903   3.070   0.514  16.815 -1.1497 -1.8637  2.2558
10830TIP3   OH253904   2.384   6.621  15.006  0.2722 -0.2269  0.3177
10830TIP3    H153905   2.442   6.590  15.076 -1.2433 -1.7750  0.9603
10830TIP3    H253906   2.412   6.573  14.928  0.5346 -0.1558  0.3670
10831TIP3   OH253907   6.025   2.545   1.496  0.2292  0.5467  0.1592
10831TIP3    H153908   6.105   2.558   1.446  0.1170 -0.1513 -0.2127
10831TIP3    H253909   5.956   2.588   1.445  0.1068 -0.2043 -0.3189
10832TIP3   OH253910   2.081   0.071   1.858 -0.5542 -0.2853  0.0596
10832TIP3    H153911   2.094   0.089   1.951 -2.4403  1.8429 -0.0154
10832TIP3    H253912   1.986   0.071   1.847 -0.3728  1.5540 -2.1907
10833TIP3   OH253913   0.559   4.732  11.682  0.1127 -0.4297 -0.3854
10833TIP3    H153914   0.650   4.741  11.711  0.8543 -3.1985 -1.5255
10833TIP3    H253915   0.512   4.801  11.729  2.1583 -1.1287  3.0149
10834TIP3   OH253916   2.011   4.726  10.913 -0.0612 -0.0524 -0.4008
10834TIP3    H153917   1.985   4.657  10.851  1.8353 -1.7178  0.5367
10834TIP3    H253918   1.934   4.741  10.967  0.6480 -5.0450  2.5486
10835TIP3   OH253919   5.644   6.298  12.095  0.4443  0.4232 -0.1168
10835TIP3    H153920   5.661   6.214  12.138  0.5193 -0.0643 -1.0607
10835TIP3    H253921   5.631   6.275  12.003 -0.3056  1.3655 -0.2584
10836TIP3   OH253922   4.365   4.833   2.050  0.1841  0.6624 -0.1027
10836TIP3    H153923   4.403   4.778   1.981  0.2642  0.6054 -0.0135
10836TIP3    H253924   4.355   4.919   2.009  0.2226  0.6264 -0.1885
10837TIP3   OH253925   4.180   6.083   5.574  0.1409  0.3203 -0.1565
10837TIP3    H153926   4.261   6.038   5.550 -0.5383 -0.2996 -1.3284
10837TIP3    H253927   4.112   6.041   5.522 -0.8829  1.1309  0.4807
10838TIP3   OH253928   5.109   2.395  16.494 -0.1372 -0.0115  0.2478
10838TIP3    H153929   5.045   2.345  16.544 -2.2930  0.9826 -1.3827
10838TIP3    H253930   5.176   2.331  16.470 -1.9973 -1.7878 -0.4444
10839TIP3   OH253931   1.307   6.264   3.641 -0.0986 -0.1818 -0.4841
10839TIP3    H153932   1.273   6.181   3.608 -2.2906 -0.0779  1.2762
10839TIP3    H253933   1.375   6.239   3.704  0.8351 -0.5213 -1.5959
10840TIP3   OH253934   3.944   5.129  12.692 -0.2268  0.4494 -0.0663
10840TIP3    H153935   4.031   5.092  12.705 -0.3913 -0.2856 -0.9648
10840TIP3    H253936   3.887   5.077  12.748 -0.2361  0.2560 -0.2523
10841TIP3   OH253937   5.673   6.641  10.686 -0.0998 -0.0346 -0.4618
10841TIP3    H153938   5.761   6.623  10.654 -0.5024 -0.5891 -1.2976
10841TIP3    H253939   5.617   6.632  10.609 -0.8360  0.7820 -0.0450
10842TIP3   OH253940   4.911   6.233  13.093 -0.0934  0.4465  0.0118
10842TIP3    H153941   4.912   6.212  13.187  0.9430  0.7603  0.0769
10842TIP3    H253942   4.916   6.328  13.090 -1.5733  0.5391 -0.3507
10843TIP3   OH253943   0.202   6.417   3.598  0.0521  0.0349  0.1701
10843TIP3    H153944   0.279   6.473   3.586  0.9754 -1.0428  0.9135
10843TIP3    H253945   0.236   6.328   3.595 -1.1244 -0.4558  0.8138
10844TIP3   OH253946   2.905   5.564   3.472  0.1306 -0.5183 -0.0205
10844TIP3    H153947   2.899   5.549   3.566 -0.4876  0.2374  0.0707
10844TIP3    H253948   2.976   5.628   3.463  0.3872 -0.8082 -0.1044
10845TIP3   OH253949   4.031   5.978  16.480  0.1111  0.4517 -0.3053
10845TIP3    H153950   4.036   5.972  16.385  0.4038  2.0688 -0.4236
10845TIP3    H253951   4.073   5.897  16.511 -1.4598 -0.8901 -1.5165
10846TIP3   OH253952   2.966   5.844   2.630 -0.2876  0.2993  0.2649
10846TIP3    H153953   2.948   5.937   2.615  0.4454  0.2166 -1.2763
10846TIP3    H253954   2.986   5.809   2.543  0.8173 -1.0045  1.0122
10847TIP3   OH253955   6.186   2.732   4.024 -0.5116  0.5998 -0.4003
10847TIP3    H153956   6.208   2.811   4.074  0.2318  0.6209 -0.7463
10847TIP3    H253957   6.106   2.700   4.066  0.3659  0.3213  1.1617
10848TIP3   OH253958   2.382   2.176  15.313 -0.0745  0.2434 -0.0985
10848TIP3    H153959   2.287   2.159  15.307 -0.0860 -0.2352  1.2171
10848TIP3    H253960   2.413   2.166  15.222 -1.1995 -0.1171 -0.4666
10849TIP3   OH253961   3.625   0.372   4.516  0.0125  0.2574 -0.2452
10849TIP3    H153962   3.560   0.307   4.540  1.2421 -1.0620 -0.3641
10849TIP3    H253963   3.630   0.367   4.420 -0.2713  0.9137 -0.2972
10850TIP3   OH253964   0.675   1.150  12.705 -0.3404  0.2931 -0.0860
10850TIP3    H153965   0.696   1.222  12.764 -1.7339 -0.7398  1.7722
10850TIP3    H253966   0.618   1.189  12.639  1.8451  1.6256 -1.2884
10851TIP3   OH253967   2.557   0.478  14.280 -0.1488  0.1022  0.7027
10851TIP3    H153968   2.619   0.545  14.254 -1.2588  0.0369 -2.5322
10851TIP3    H253969   2.603   0.427  14.347  1.8139  2.2313  1.1053
10852TIP3   OH253970   3.383   6.078   4.514 -0.1975 -0.0090 -0.3708
10852TIP3    H153971   3.386   6.103   4.421 -0.2496 -0.1622 -0.4132
10852TIP3    H253972   3.341   5.992   4.514  0.6047 -0.4082 -0.2867
10853TIP3   OH253973   3.169   1.081   3.373 -0.3228 -0.0262 -0.4985
10853TIP3    H153974   3.130   1.037   3.448 -0.3208  1.3320  0.3250
10853TIP3    H253975   3.123   1.165   3.368  0.6209  0.4667 -1.1823
10854TIP3   OH253976   2.881   6.751   6.044 -0.0720 -0.1479  0.3534
10854TIP3    H153977   2.801   6.750   5.992  1.0391 -0.9837 -1.4365
10854TIP3    H253978   2.857   6.705   6.125 -2.1127  2.0909  1.1257
10855TIP3   OH253979   1.703   5.845  11.149  0.4928  0.2654  0.1676
10855TIP3    H153980   1.668   5.793  11.077  0.9868  1.2105 -0.7882
10855TIP3    H253981   1.679   5.935  11.127 -4.1795  0.3069  3.9247
10856TIP3   OH253982   1.201   1.025  16.555 -0.2777 -0.0882  0.2770
10856TIP3    H153983   1.118   0.998  16.593 -0.1027 -0.7574  0.1926
10856TIP3    H253984   1.183   1.109  16.513 -0.4715  0.7091  1.8723
10857TIP3   OH253985   0.952   2.414  10.356 -0.2670 -0.3949  0.1420
10857TIP3    H153986   0.975   2.322  10.367  1.3016 -0.4322 -2.4798
10857TIP3    H253987   1.033   2.462  10.375 -0.7307  0.3323  0.3123
10858TIP3   OH253988   2.336   3.096   4.377  0.2215  0.1291  0.1958
10858TIP3    H153989   2.370   3.020   4.424  1.4754 -1.1398 -2.5917
10858TIP3    H253990   2.242   3.078   4.367  0.5919 -1.4002 -0.9239
10859TIP3   OH253991   3.470   5.638   3.858 -0.5151 -0.1474  0.2180
10859TIP3    H153992   3.426   5.714   3.896  0.1195 -0.1628  0.9937
10859TIP3    H253993   3.556   5.636   3.899  0.2735 -0.0707 -1.3414
10860TIP3   OH253994   1.172   5.417   1.962  0.8069 -0.2803 -0.5926
10860TIP3    H153995   1.186   5.405   1.868 -0.1243 -1.7846 -0.5756
10860TIP3    H253996   1.126   5.501   1.969  0.2289 -0.5047 -1.5531
10861TIP3   OH253997   4.650   4.075  16.503 -0.2834  0.5464 -0.1554
10861TIP3    H153998   4.654   4.074  16.408 -1.7476 -2.7864 -0.3482
10861TIP3    H253999   4.557   4.067  16.524  0.0791 -0.0381  1.4706
10862TIP3   OH254000   1.048   3.949  11.967  0.5037 -0.4268  0.6245
10862TIP3    H154001   1.099   3.869  11.980  1.2099  0.1469  1.4710
10862TIP3    H254002   1.078   3.983  11.882  1.0056 -0.4786  0.7768
10863TIP3   OH254003   3.861   2.785  11.569 -0.2394 -0.2403  0.2403
10863TIP3    H154004   3.785   2.728  11.576 -0.8542  0.6089  0.6747
10863TIP3    H254005   3.869   2.825  11.656 -0.9808  1.7701 -0.5403
10864TIP3   OH254006   1.306   1.457   0.145  0.1127  0.0421 -0.6477
10864TIP3    H154007   1.211   1.460   0.129  0.2426 -0.8719 -1.7245
10864TIP3    H254008   1.343   1.426   0.062  1.2258 -1.0657  0.2305
10865TIP3   OH254009   5.640   0.815   1.002 -0.2754 -0.1867  0.3368
10865TIP3    H154010   5.551   0.812   1.037 -0.6151 -1.7049 -0.5739
10865TIP3    H254011   5.636   0.765   0.921  1.2259  0.4752 -0.1905
10866TIP3   OH254012   5.904   6.431   3.545 -0.0006  0.4804  0.1734
10866TIP3    H154013   5.932   6.342   3.524 -0.0759  0.1934  1.2402
10866TIP3    H254014   5.826   6.420   3.600 -0.6665  1.2293 -0.5828
10867TIP3   OH254015   3.665   1.721   2.671 -0.0619 -0.1458  0.0596
10867TIP3    H154016   3.669   1.811   2.640  1.2715 -0.3773 -0.4837
10867TIP3    H254017   3.692   1.726   2.763 -0.3386  0.0417  0.1336
10868TIP3   OH254018   0.519   0.174   5.961 -0.3678 -0.3823 -0.1166
10868TIP3    H154019   0.436   0.129   5.977 -0.6569 -0.2732 -1.2179
10868TIP3    H254020   0.501   0.265   5.983  0.1067 -0.6848  1.7354
10869TIP3   OH254021   2.256   3.192  13.551 -0.1250 -1.1148 -0.1455
10869TIP3    H154022   2.267   3.251  13.626 -2.6946 -0.7912  0.0619
10869TIP3    H254023   2.336   3.139  13.550  1.6316  1.3180  0.5594
10870TIP3   OH254024   0.879   2.279   3.319  0.1198  0.3502  0.4105
10870TIP3    H154025   0.909   2.228   3.244  0.5611  0.0796  0.7637
10870TIP3    H254026   0.821   2.346   3.281 -0.5787 -0.4905 -0.0415
10871TIP3   OH254027   5.192   3.107  12.111  0.4342  0.5811  0.0750
10871TIP3    H154028   5.239   3.181  12.073  0.2621  0.5617 -0.1812
10871TIP3    H254029   5.174   3.132  12.201 -2.7678  2.4212 -0.9009
10872TIP3   OH254030   0.835   4.456  14.002 -0.2574 -0.4239  0.5695
10872TIP3    H154031   0.905   4.508  14.041 -0.8848 -0.3305  1.6221
10872TIP3    H254032   0.755   4.506  14.021 -0.6658 -0.7781 -0.1689
10873TIP3   OH254033   3.044   1.084   5.037  0.4202  0.0274 -0.3755
10873TIP3    H154034   3.140   1.085   5.042  0.6885 -2.5609 -2.4346
10873TIP3    H254035   3.016   1.065   5.126  2.0902 -2.3702 -0.2488
10874TIP3   OH254036   3.173   0.416  11.299  0.1030  0.1502 -0.1733
10874TIP3    H154037   3.156   0.510  11.304 -0.2907  0.0326  1.5208
10874TIP3    H254038   3.126   0.380  11.374  1.4093 -1.2041  0.0456
10875TIP3   OH254039   2.994   4.653   0.676 -0.1968 -0.0147  0.3231
10875TIP3    H154040   3.021   4.602   0.752 -1.2606 -1.6137 -0.3129
10875TIP3    H254041   2.946   4.728   0.713  3.5636  2.1480  1.4034
10876TIP3   OH254042   4.973   3.142  12.944  0.1652  0.0586 -0.0487
10876TIP3    H154043   4.925   3.085  13.003  0.4832 -0.0034  0.1533
10876TIP3    H254044   5.033   3.191  13.001 -0.8579  1.3936 -0.0715
10877TIP3   OH254045   0.283   2.576   4.040  0.0477 -0.0703 -0.4326
10877TIP3    H154046   0.237   2.557   4.122  0.0360  1.3628 -0.0819
10877TIP3    H254047   0.333   2.496   4.022 -1.4826 -1.1587 -0.0958
10878TIP3   OH254048   2.223   6.777  10.841  0.1315  0.2972  0.5116
10878TIP3    H154049   2.252   6.768  10.750  1.6821  2.4071  0.7177
10878TIP3    H254050   2.154   6.843  10.838  0.3990  0.5957  0.9011
10879TIP3   OH254051   4.130   4.848  14.964  0.0753 -0.7703 -0.6122
10879TIP3    H154052   4.094   4.873  14.879 -2.0922  0.7131  0.6441
10879TIP3    H254053   4.090   4.764  14.983  0.1501 -0.8572 -0.8389
10880TIP3   OH254054   0.761   3.267  10.849  0.1731 -0.5818 -0.1127
10880TIP3    H154055   0.707   3.331  10.803 -0.3206 -1.1939 -0.4046
10880TIP3    H254056   0.762   3.190  10.791  0.1518 -1.1011  0.5603
10881TIP3   OH254057   1.095   6.227   0.441  0.0182  0.1364  0.3122
10881TIP3    H154058   1.145   6.267   0.370 -1.9093  2.3502  0.1002
10881TIP3    H254059   1.027   6.175   0.398 -0.6991  0.8887  0.5145
10882TIP3   OH254060   1.099   4.044  11.484 -0.0137  0.2889  0.0101
10882TIP3    H154061   1.123   3.956  11.453 -0.8366  0.1475 -0.2644
10882TIP3    H254062   1.031   4.073  11.423  0.1228  1.0477  0.2107
10883TIP3   OH254063   2.658   0.346  11.550  0.2204  1.3352 -0.5348
10883TIP3    H154064   2.684   0.275  11.491 -2.1611 -0.4867  0.4335
10883TIP3    H254065   2.702   0.324  11.633 -0.0435  1.3292 -0.3967
10884TIP3   OH254066   3.353   6.246   0.568 -0.7153  0.3349 -0.0609
10884TIP3    H154067   3.375   6.153   0.576 -1.1005  0.1945 -0.6168
10884TIP3    H254068   3.337   6.259   0.475  0.7805  1.2800 -0.2217
10885TIP3   OH254069   2.252   1.772   0.767 -0.3970  0.0435  0.3237
10885TIP3    H154070   2.248   1.702   0.702  0.9686  0.3567 -0.1295
10885TIP3    H254071   2.345   1.781   0.786 -0.7002  0.6042  1.6301
10886TIP3   OH254072   0.276   3.919  16.648  0.7826  0.4024  0.0014
10886TIP3    H154073   0.307   3.829  16.646  0.3993  0.2740 -0.3270
10886TIP3    H254074   0.186   3.912  16.679  1.0779  0.7692  0.9591
10887TIP3   OH254075   2.377   2.643   1.224  0.0750 -0.1135 -0.5917
10887TIP3    H154076   2.414   2.555   1.229  2.3058  0.6023 -2.8431
10887TIP3    H254077   2.440   2.699   1.270  0.3133  0.7368 -1.9142
10888TIP3   OH254078   0.543   2.839  11.880  0.1072 -0.2686  0.2004
10888TIP3    H154079   0.455   2.874  11.899 -0.0880 -0.1953 -0.7893
10888TIP3    H254080   0.599   2.917  11.876 -0.0966 -0.1655 -0.7871
10889TIP3   OH254081   4.725   5.627   4.275 -0.0782 -0.1280  0.3377
10889TIP3    H154082   4.779   5.614   4.197 -1.0233  1.0568 -0.5550
10889TIP3    H254083   4.778   5.683   4.332  1.0204 -1.7848  1.0267
10890TIP3   OH254084   1.067   1.111   5.195 -1.0834 -0.3228  0.0374
10890TIP3    H154085   0.972   1.118   5.203 -1.1485  1.4563 -1.5598
10890TIP3    H254086   1.101   1.179   5.253 -0.8166 -0.3799 -0.0499
10891TIP3   OH254087   0.482   0.622  12.491  0.0604 -0.1873 -0.0874
10891TIP3    H154088   0.401   0.577  12.470 -1.2196  0.9978  1.9049
10891TIP3    H254089   0.454   0.708  12.522  2.0095  0.0007  1.3481
10892TIP3   OH254090   3.406   1.146   0.137 -0.3369  0.4096 -0.5491
10892TIP3    H154091   3.464   1.173   0.066 -1.2701  1.9755 -0.7706
10892TIP3    H254092   3.373   1.228   0.173 -0.4703 -0.3836  1.2156
10893TIP3   OH254093   1.491   6.006  12.480 -0.0196 -0.1261 -0.2664
10893TIP3    H154094   1.499   6.088  12.529 -0.8592 -0.6834  0.8352
10893TIP3    H254095   1.491   6.033  12.388  1.1040  0.9773  0.0237
10894TIP3   OH254096   6.697   5.864   4.409  0.1481  0.3797 -0.0634
10894TIP3    H154097   6.688   5.893   4.500 -0.2159  0.0401  0.0120
10894TIP3    H254098   6.754   5.787   4.415 -1.6554 -1.0111  0.1635
10895TIP3   OH254099   3.508   1.014  16.998 -0.6351  0.1149  0.5036
10895TIP3    H154100   3.440   0.969  17.048  0.3255 -0.0684  1.6689
10895TIP3    H254101   3.507   1.104  17.031 -1.0818  0.4130 -0.2958
10896TIP3   OH254102   0.187   1.804  12.906 -0.8958  0.6141  0.4023
10896TIP3    H154103   0.111   1.839  12.953 -1.1424  1.3982 -0.5295
10896TIP3    H254104   0.170   1.827  12.814 -0.2256 -0.4896 -0.0106
10897TIP3   OH254105   5.568   5.389   1.960  0.0456  0.2100 -0.0355
10897TIP3    H154106   5.541   5.415   1.872  1.2841  0.8512 -0.2390
10897TIP3    H254107   5.562   5.293   1.960  2.7396 -0.0366 -1.7663
10898TIP3   OH254108   1.847   2.362   5.295  0.2457 -0.5096 -0.1682
10898TIP3    H154109   1.939   2.357   5.269  0.5386  1.3021  0.3576
10898TIP3    H254110   1.821   2.451   5.271 -1.1007 -0.6975  0.5269
10899TIP3   OH254111   1.276   6.620  16.387  0.2701  0.0851 -0.0304
10899TIP3    H154112   1.369   6.603  16.403  0.2021  0.4741  0.8354
10899TIP3    H254113   1.259   6.703  16.432 -0.6706 -0.3718  0.4889
10900TIP3   OH254114   5.213   6.373   0.136 -0.1972 -0.6634 -0.1062
10900TIP3    H154115   5.280   6.318   0.094  0.7420 -0.1870  0.7329
10900TIP3    H254116   5.262   6.448   0.170 -1.2327 -0.0936  0.1485
10901TIP3   OH254117   1.478   0.862   2.985 -0.0749  0.0863  0.3838
10901TIP3    H154118   1.531   0.932   2.946  0.5882 -0.8471 -0.4406
10901TIP3    H254119   1.457   0.804   2.911 -2.4588  0.5464  0.6543
10902TIP3   OH254120   0.416   2.309  15.128  0.1133  0.0301 -0.3593
10902TIP3    H154121   0.416   2.226  15.176 -0.8726  0.0202 -0.3563
10902TIP3    H254122   0.505   2.342  15.138  0.8340 -1.5119 -1.2219
10903TIP3   OH254123   3.812   4.649   2.533  0.6115  0.4363 -0.0809
10903TIP3    H154124   3.759   4.728   2.523  1.5447  1.1767  0.6759
10903TIP3    H254125   3.777   4.606   2.611 -1.8039 -1.4765 -2.0485
10904TIP3   OH254126   4.054   2.478   1.331 -0.6221 -0.3695  0.0273
10904TIP3    H154127   4.049   2.503   1.423 -1.6005 -3.5906  0.9807
10904TIP3    H254128   4.057   2.561   1.284 -0.5243  1.4049  2.9009
10905TIP3   OH254129   2.877   0.170   1.690  0.1363  0.0495 -0.0420
10905TIP3    H154130   2.966   0.162   1.724  0.5673 -0.2844 -1.1830
10905TIP3    H254131   2.877   0.253   1.643 -0.2088  0.1314  0.1044
10906TIP3   OH254132   5.713   0.095   0.006 -0.0309  0.0844 -0.3209
10906TIP3    H154133   5.800   0.081   0.042 -0.1844  1.4192  0.6206
10906TIP3    H254134   5.719   0.178  -0.041 -1.2807  1.3177  1.5452
10907TIP3   OH254135   0.918   3.852   1.887 -0.5351  0.0927  0.0094
10907TIP3    H154136   0.908   3.786   1.818 -1.8234  1.2336 -0.9424
10907TIP3    H254137   0.897   3.935   1.844 -4.4583  0.5854  2.3922
10908TIP3   OH254138   4.359   4.557  11.950  0.0064  0.1982  0.3793
10908TIP3    H154139   4.335   4.469  11.979  1.8766 -0.5229 -0.0583
10908TIP3    H254140   4.330   4.561  11.859 -0.5164  0.2108  0.5475
10909TIP3   OH254141   5.668   2.919  14.933 -0.2456  0.0410 -0.3652
10909TIP3    H154142   5.739   2.975  14.902 -1.5762  0.3516 -3.1296
10909TIP3    H254143   5.713   2.845  14.975  1.5778  1.7720  0.9326
10910TIP3   OH254144   6.539   2.774   2.410 -0.0162 -0.0632 -0.5923
10910TIP3    H154145   6.469   2.810   2.466 -0.6465 -0.9386 -0.7932
10910TIP3    H254146   6.580   2.706   2.464  1.0498  0.8142 -0.2782
10911TIP3   OH254147   6.017   6.329  10.808  0.0971  0.0390 -0.4869
10911TIP3    H154148   6.083   6.398  10.803  0.9475 -0.8222 -1.5849
10911TIP3    H254149   5.946   6.368  10.858 -0.5272  2.6152 -3.1195
10912TIP3   OH254150   4.972   5.837   1.295  0.7109 -0.1680 -0.1134
10912TIP3    H154151   4.929   5.916   1.261  0.7956  0.3775  1.0184
10912TIP3    H254152   4.906   5.794   1.348  0.6936 -0.8355 -0.6609
10913TIP3   OH254153   2.725   1.136   0.642  0.6681 -0.1721 -0.3907
10913TIP3    H154154   2.701   1.225   0.668  0.7687 -0.6430  1.4981
10913TIP3    H254155   2.784   1.148   0.567  0.9639  1.3788  0.0412
10914TIP3   OH254156   3.061   1.426  14.407  0.4865 -0.3165 -0.1570
10914TIP3    H154157   3.026   1.338  14.424  0.8008 -0.3760  0.1987
10914TIP3    H254158   3.000   1.485  14.452  0.4682 -0.3755 -0.1052
10915TIP3   OH254159   1.179   2.649  14.591 -0.3213  0.0660  0.4291
10915TIP3    H154160   1.238   2.722  14.572  0.9618 -0.9267  0.5390
10915TIP3    H254161   1.112   2.655  14.522 -0.8532  1.9377  1.0272
10916TIP3   OH254162   2.169   4.085   1.173 -0.1332 -0.7228  0.2122
10916TIP3    H154163   2.136   4.030   1.102 -1.8396  0.4844  0.0206
10916TIP3    H254164   2.235   4.141   1.132 -0.0679 -1.0152 -0.0868
10917TIP3   OH254165   1.436   3.360   2.303 -0.0194 -0.0336 -0.3637
10917TIP3    H154166   1.491   3.341   2.226 -0.2571 -0.0738 -0.5230
10917TIP3    H254167   1.499   3.384   2.371  0.1742  0.3592 -0.6731
10918TIP3   OH254168   5.038   2.743  14.761  0.0945  0.2990  0.1195
10918TIP3    H154169   5.016   2.657  14.726  0.0925  0.2876  0.1495
10918TIP3    H254170   4.993   2.805  14.702 -0.4103  0.2626  0.4579
10919TIP3   OH254171   2.263   2.357  11.724 -0.4213 -0.0449  0.1101
10919TIP3    H154172   2.338   2.300  11.714 -0.9426 -0.6633 -0.3392
10919TIP3    H254173   2.282   2.432  11.668  0.1866  0.1559  0.5702
10920TIP3   OH254174   2.482   5.990  15.241 -0.3558  0.1395  0.4559
10920TIP3    H154175   2.544   6.034  15.299 -1.3081  0.9748  0.8647
10920TIP3    H254176   2.443   6.061  15.190 -0.9180 -0.3815  0.1466
10921TIP3   OH254177   5.519   0.013  13.150 -0.1666  0.8577  0.6623
10921TIP3    H154178   5.599  -0.040  13.147 -0.6208  0.1072  1.3810
10921TIP3    H254179   5.459  -0.037  13.205 -1.2326  1.2860 -0.0892
10922TIP3   OH254180   1.411   1.262   0.761 -0.1086 -0.3971 -0.0535
10922TIP3    H154181   1.359   1.185   0.784 -0.6635 -0.4172 -1.2552
10922TIP3    H254182   1.352   1.314   0.706  1.5305 -1.0431 -2.5878
10923TIP3   OH254183   5.501   4.524  16.483  0.5755  0.3122  0.6327
10923TIP3    H154184   5.535   4.600  16.436  0.3016 -0.5011 -0.9540
10923TIP3    H254185   5.578   4.483  16.522  1.2037 -0.3659 -1.2103
10924TIP3   OH254186   4.936   2.277  12.971 -0.1501 -0.1051 -0.0303
10924TIP3    H154187   4.927   2.213  12.902  1.0683  0.2829 -0.5798
10924TIP3    H254188   5.027   2.307  12.965 -0.1315  0.2369  1.4673
10925TIP3   OH254189   2.559   5.885   5.200 -0.1705  0.6927  0.2537
10925TIP3    H154190   2.560   5.843   5.286  1.2058  1.4586  0.6523
10925TIP3    H254191   2.476   5.859   5.161  1.0856 -3.4722 -0.0891
10926TIP3   OH254192   3.379   3.360   1.701  0.4034  0.1198  0.5238
10926TIP3    H154193   3.315   3.297   1.669  3.5634 -3.0739 -0.1673
10926TIP3    H254194   3.447   3.306   1.743  3.4001  3.0227 -0.1770
10927TIP3   OH254195   1.505   3.174   4.745 -0.0444  0.2462 -0.2165
10927TIP3    H154196   1.483   3.161   4.837 -1.4769  0.4603 -0.5169
10927TIP3    H254197   1.564   3.102   4.724 -2.1377 -1.6303  0.0592
10928TIP3   OH254198   6.058   5.243  15.497 -0.5488  0.0869 -0.2966
10928TIP3    H154199   6.084   5.270  15.409 -1.1307  0.5872 -0.3267
10928TIP3    H254200   6.044   5.326  15.543  0.5215 -0.1659  0.5099
10929TIP3   OH254201   3.348   2.710   0.577  1.0982 -0.1644  0.1373
10929TIP3    H154202   3.307   2.761   0.507  1.0965  0.4794  0.5919
10929TIP3    H254203   3.290   2.723   0.652  0.7675 -1.3495  0.0995
10930TIP3   OH254204   6.331   4.015   2.650  0.3042 -0.0320  0.6922
10930TIP3    H154205   6.422   4.046   2.649 -0.1588  1.3955  1.1965
10930TIP3    H254206   6.302   4.024   2.559 -0.1481  2.1356  0.9930
10931TIP3   OH254207   2.408   1.142   2.712  0.2189  0.3340  0.0446
10931TIP3    H154208   2.471   1.175   2.776  0.1530 -1.4418  1.1106
10931TIP3    H254209   2.456   1.073   2.665 -0.8218 -0.9729  0.8095
10932TIP3   OH254210   3.494   0.865  16.207 -0.2634 -0.3027 -0.0111
10932TIP3    H154211   3.445   0.783  16.197  0.8950 -0.7692 -3.3469
10932TIP3    H254212   3.428   0.934  16.192 -0.8107 -0.7121  0.4699
10933TIP3   OH254213   3.556   6.659   4.427 -0.1106  1.1495  0.1401
10933TIP3    H154214   3.508   6.613   4.358  0.8730  0.4649 -0.1068
10933TIP3    H254215   3.639   6.682   4.386  0.6491  0.3891  1.1982
10934TIP3   OH254216   2.079   3.866   1.931  0.1999  0.3231  0.1819
10934TIP3    H154217   2.066   3.909   1.847  1.7281  1.6503  0.5711
10934TIP3    H254218   1.991   3.846   1.962 -0.5267  2.0503 -0.6196
10935TIP3   OH254219   0.201   4.807   2.780 -0.0400 -0.1699 -0.2947
10935TIP3    H154220   0.294   4.789   2.794  1.1279  2.2233 -3.6750
10935TIP3    H254221   0.167   4.728   2.738  1.0369 -0.3413 -0.8892
10936TIP3   OH254222   0.676   0.286  11.603  0.1438 -0.2124  0.1166
10936TIP3    H154223   0.611   0.354  11.622  0.7113  0.2296  0.4865
10936TIP3    H254224   0.628   0.222  11.549 -0.7152 -0.1019  0.7221
10937TIP3   OH254225   1.497   3.502  12.570  0.0988  0.2602 -0.0671
10937TIP3    H154226   1.484   3.411  12.544 -1.4594  0.5563 -0.4465
10937TIP3    H254227   1.509   3.499  12.665  0.9212 -0.3963 -0.1799
10938TIP3   OH254228   5.968   3.023   2.695  0.0040  0.4508 -0.3843
10938TIP3    H154229   6.017   3.010   2.776 -1.6088  1.0348  0.7350
10938TIP3    H254230   5.881   3.050   2.723 -0.7053  0.3706 -2.3171
10939TIP3   OH254231   2.600   2.663   1.613  0.2455  0.3405  0.4155
10939TIP3    H154232   2.539   2.593   1.639  0.1228  0.2228 -0.1740
10939TIP3    H254233   2.687   2.628   1.633  0.1213  0.5851  1.4444
10940TIP3   OH254234   4.197   5.193   0.071  0.3662 -0.0258  0.0004
10940TIP3    H154235   4.214   5.099   0.078 -2.7673 -0.7206 -0.3303
10940TIP3    H254236   4.159   5.204  -0.016  1.8811  1.8305 -0.4824
10941TIP3   OH254237   2.489   1.572   2.784 -0.4973  0.3090 -0.3204
10941TIP3    H154238   2.438   1.521   2.721 -0.8909 -0.5257  0.6364
10941TIP3    H254239   2.424   1.603   2.848 -0.1285  1.2488 -0.3949
10942TIP3   OH254240   1.221   6.281  12.170  0.1618  0.4799  0.5589
10942TIP3    H154241   1.175   6.227  12.105  1.0763 -0.0797  0.3610
10942TIP3    H254242   1.205   6.236  12.254  2.3514 -1.1677  0.1930
10943TIP3   OH254243   5.551   2.867  11.808  0.1886 -0.3390  0.1310
10943TIP3    H154244   5.516   2.950  11.840 -1.3402 -0.6339 -0.6869
10943TIP3    H254245   5.578   2.886  11.718 -2.3761 -1.2336 -0.9075
10944TIP3   OH254246   5.101   3.348  15.065 -0.2910 -0.5844  0.6898
10944TIP3    H154247   5.077   3.332  14.973 -0.5075 -1.3346  0.8657
10944TIP3    H254248   5.097   3.261  15.105 -2.0061 -0.0292  1.8316
10945TIP3   OH254249   2.908   3.071  13.473 -0.4620 -0.1529 -0.2706
10945TIP3    H154250   2.972   3.127  13.428 -0.1824 -2.0822 -2.4745
10945TIP3    H254251   2.833   3.067  13.414 -0.8638 -1.2948  0.2858
10946TIP3   OH254252   6.727   4.090  12.346  0.3853  0.5954 -0.1464
10946TIP3    H154253   6.741   4.172  12.300  1.9511 -0.5467 -1.8372
10946TIP3    H254254   6.669   4.040  12.290  0.4509  0.0667  0.2465
10947TIP3   OH254255   0.642   2.557   2.788 -0.0440 -0.4983  0.1649
10947TIP3    H154256   0.671   2.602   2.868 -0.6325 -1.0761  0.7212
10947TIP3    H254257   0.618   2.628   2.728 -0.8305 -0.0512  0.9737
10948TIP3   OH254258   6.694   1.727   6.200  0.3736  0.0336  0.2330
10948TIP3    H154259   6.718   1.769   6.118 -1.0240  0.9102  0.2347
10948TIP3    H254260   6.769   1.673   6.223  0.9565  0.1140 -1.3942
10949TIP3   OH254261   1.146   4.607   2.922  0.2625  0.1533 -1.2005
10949TIP3    H154262   1.157   4.519   2.885  1.8914  0.2106 -0.9244
10949TIP3    H254263   1.207   4.662   2.873 -1.1753  1.2917 -1.7818
10950TIP3   OH254264   0.681   6.134   6.194 -0.3100 -0.3338 -0.5605
10950TIP3    H154265   0.656   6.090   6.113 -0.4082  0.7715 -1.1544
10950TIP3    H254266   0.599   6.156   6.237 -0.3121  0.5026 -0.9660
10951TIP3   OH254267   0.689   6.537   0.743 -0.2233 -0.2848  0.3398
10951TIP3    H154268   0.708   6.600   0.812 -0.9343 -2.1809  2.4045
10951TIP3    H254269   0.599   6.510   0.758 -0.0095 -1.6368 -0.5515
10952TIP3   OH254270   2.658   4.586  11.336  0.1988 -0.9751  0.4453
10952TIP3    H154271   2.644   4.558  11.245 -2.5031  1.3505 -0.0040
10952TIP3    H254272   2.732   4.646  11.330  0.2667 -1.1058 -0.1703
10953TIP3   OH254273   4.048   4.392   6.065  0.7299 -0.4430  0.0956
10953TIP3    H154274   4.099   4.437   6.132 -1.4267  1.3151  0.6755
10953TIP3    H254275   4.054   4.448   5.988  1.0972 -1.1321 -0.3872
10954TIP3   OH254276   4.064   6.657  11.469  0.7424 -0.2761  0.2553
10954TIP3    H154277   4.061   6.598  11.394 -0.4371 -0.0811  0.1295
10954TIP3    H254278   3.994   6.720  11.453 -0.2871 -0.9010  2.0719
10955TIP3   OH254279   4.259   1.688   5.130 -0.9281 -0.4422  0.4039
10955TIP3    H154280   4.193   1.719   5.193 -1.2187  0.0094 -0.1103
10955TIP3    H254281   4.272   1.596   5.151 -1.8687 -0.5881  0.3946
10956TIP3   OH254282   6.147   4.437   1.358  0.3973  0.3023 -0.4490
10956TIP3    H154283   6.238   4.407   1.356  0.6639  1.1194 -0.9163
10956TIP3    H254284   6.095   4.356   1.352  1.0881 -0.1437 -0.4897
10957TIP3   OH254285   2.535   3.081   4.977 -0.4251 -0.1577 -0.0019
10957TIP3    H154286   2.496   2.994   4.975  1.7769 -1.2455  0.3386
10957TIP3    H254287   2.461   3.142   4.979 -2.0658 -2.0706  2.1475
10958TIP3   OH254288   1.981   1.643  17.063  0.1526 -0.4380  0.0377
10958TIP3    H154289   1.946   1.649  17.152  2.8852  2.6208  1.1018
10958TIP3    H254290   2.047   1.574  17.068 -0.5771 -1.1462  0.0131
10959TIP3   OH254291   5.064   0.960  14.724 -0.3826  0.0841  0.0499
10959TIP3    H154292   5.051   0.979  14.631 -0.7051 -0.6917 -0.0736
10959TIP3    H254293   5.011   0.882  14.740  0.4648 -0.3891  0.6482
10960TIP3   OH254294   6.676   2.044  12.184 -0.2080  0.3617 -0.1041
10960TIP3    H154295   6.621   1.980  12.231  1.4230 -0.8670  0.2084
10960TIP3    H254296   6.752   2.056  12.241 -0.8037  3.2134  0.2015
10961TIP3   OH254297   1.000   1.958  14.954 -0.0408 -0.4043  0.4392
10961TIP3    H154298   1.023   2.027  15.017 -0.2472 -0.5091  0.6318
10961TIP3    H254299   0.941   2.001  14.893  1.1130  0.0296 -0.4100
10962TIP3   OH254300   5.867   6.557  12.520 -0.0988 -0.1930  0.0572
10962TIP3    H154301   5.791   6.614  12.509 -0.9631 -1.2844  0.2435
10962TIP3    H254302   5.933   6.595  12.462 -0.9135  0.5472 -0.4176
10963TIP3   OH254303   0.994   2.469  12.541 -0.1217 -0.4052 -0.3515
10963TIP3    H154304   1.044   2.486  12.462  2.4032 -0.9235  1.0155
10963TIP3    H254305   1.012   2.545  12.597 -1.3172 -0.3588 -0.0164
10964TIP3   OH254306   6.692   0.195  13.290  0.1327  0.2254  0.0677
10964TIP3    H154307   6.683   0.114  13.239 -0.7338 -0.5767  1.4359
10964TIP3    H254308   6.614   0.246  13.269 -0.2643 -0.1409  0.6333
10965TIP3   OH254309   6.158   2.300   1.664 -0.2504  0.1512  0.5924
10965TIP3    H154310   6.151   2.210   1.631 -0.3135  0.5609 -0.5615
10965TIP3    H254311   6.128   2.354   1.591 -0.3990  1.1015  1.3467
10966TIP3   OH254312   2.617   4.231   4.471 -0.3548  0.2071  0.3360
10966TIP3    H154313   2.684   4.293   4.501  1.3346 -1.0945 -0.6191
10966TIP3    H254314   2.637   4.149   4.516 -1.4920 -0.1492  0.2353
10967TIP3   OH254315   4.608   4.345  12.486 -0.1996 -0.5867 -0.1012
10967TIP3    H154316   4.639   4.369  12.399 -1.3189  0.0928 -0.3344
10967TIP3    H254317   4.556   4.265  12.472  1.9230 -2.1402  0.3902
10968TIP3   OH254318   3.068   6.733  14.363  0.1972  0.7370 -0.5596
10968TIP3    H154319   2.996   6.750  14.423 -0.3528 -1.0992 -0.6313
10968TIP3    H254320   3.028   6.733  14.276  0.7923  2.3138 -0.8682
10969TIP3   OH254321   0.841   1.629   3.776  0.5035 -0.4581  0.5856
10969TIP3    H154322   0.750   1.600   3.773 -0.4925  2.3826  0.5041
10969TIP3    H254323   0.886   1.574   3.712 -1.3287 -1.3103 -0.0256
10970TIP3   OH254324   6.560   6.716  14.401 -0.7318  0.3243 -0.0150
10970TIP3    H154325   6.617   6.672  14.464  0.1827 -0.2816 -1.2386
10970TIP3    H254326   6.557   6.807  14.432  1.1955  0.4633 -0.0961
10971TIP3   OH254327   5.738   0.421   0.928  0.0130  0.0771 -0.4769
10971TIP3    H154328   5.709   0.457   1.011 -0.7699 -0.2512 -0.5953
10971TIP3    H254329   5.775   0.336   0.949 -2.3150 -1.0769 -0.6795
10972TIP3   OH254330   5.364   0.133  15.591 -0.2830  0.0669 -0.3664
10972TIP3    H154331   5.413   0.159  15.513 -0.2415  0.0801 -0.3360
10972TIP3    H254332   5.431   0.104  15.653 -0.4050 -1.1174 -0.7759
10973TIP3   OH254333   5.788   4.342  13.734 -0.1567 -0.5112 -0.7202
10973TIP3    H154334   5.703   4.381  13.757  0.2855 -0.2650  0.5578
10973TIP3    H254335   5.806   4.376  13.646 -0.4342  1.1238 -0.1956
10974TIP3   OH254336   0.438   0.045  11.727 -0.0937 -0.3697 -0.4029
10974TIP3    H154337   0.444  -0.017  11.655 -0.9146  1.2384 -1.9436
10974TIP3    H254338   0.381   0.115  11.694 -0.0076  0.7263  1.5938
10975TIP3   OH254339   4.459   5.996  11.233  0.2335  0.2887  0.3700
10975TIP3    H154340   4.428   5.951  11.312  0.3301  0.0415  0.2670
10975TIP3    H254341   4.395   5.974  11.166  0.4322  0.0750  0.2493
10976TIP3   OH254342   1.293   4.729   0.089 -0.1952 -0.0336 -0.9988
10976TIP3    H154343   1.226   4.680   0.042 -0.2113 -1.2382  0.2006
10976TIP3    H254344   1.293   4.691   0.177  2.4201 -0.4605 -1.1048
10977TIP3   OH254345   1.047   3.834  14.551 -0.1079 -0.0539 -0.1917
10977TIP3    H154346   1.108   3.891  14.597 -0.9077 -0.8946  2.0961
10977TIP3    H254347   0.985   3.806  14.619 -1.4979 -1.2624 -1.8592
10978TIP3   OH254348   2.374   2.824  15.424 -0.1497 -0.4465  0.6644
10978TIP3    H154349   2.438   2.783  15.482  0.3520  0.8912  1.1041
10978TIP3    H254350   2.294   2.831  15.477  0.0697  0.0536  0.9326
10979TIP3   OH254351   4.555   6.493   5.528 -0.3788 -0.1979 -0.2439
10979TIP3    H154352   4.638   6.450   5.549 -0.6827 -0.9249 -0.5184
10979TIP3    H254353   4.492   6.422   5.517 -0.3312  0.0662 -3.3519
10980TIP3   OH254354   0.618   5.052   4.707 -0.1058  0.0365 -0.5151
10980TIP3    H154355   0.603   5.007   4.623  2.8362  1.2705 -1.8421
10980TIP3    H254356   0.682   4.997   4.752 -0.9953 -0.1366  0.5831
10981TIP3   OH254357   4.462   4.956  13.709 -0.2010  0.3233  0.0689
10981TIP3    H154358   4.449   5.048  13.732  1.6444  0.5150  0.4540
10981TIP3    H254359   4.557   4.946  13.702 -0.3693 -1.5654  0.0431
10982TIP3   OH254360   2.009   1.213  14.359  0.1531  0.3122 -0.0542
10982TIP3    H154361   2.051   1.294  14.330 -0.2541  1.2377  1.7612
10982TIP3    H254362   2.071   1.174  14.420 -0.4733  0.3171  0.6066
10983TIP3   OH254363   6.026   4.377  13.879  0.4425  0.1581 -0.1091
10983TIP3    H154364   5.951   4.372  13.820  1.7152  0.5828 -1.8252
10983TIP3    H254365   6.001   4.445  13.943  0.4613  2.4916 -2.4050
10984TIP3   OH254366   0.000   0.518   3.013  0.3947 -0.2786 -0.2076
10984TIP3    H154367  -0.072   0.573   3.042  0.7583  0.2233 -0.2409
10984TIP3    H254368   0.004   0.447   3.077  0.0199 -0.1865 -0.0829
10985TIP3   OH254369   0.979   2.695  16.400  0.4316 -1.0231 -0.4914
10985TIP3    H154370   0.982   2.755  16.325 -1.3849 -0.9847 -0.5866
10985TIP3    H254371   0.953   2.750  16.473 -0.9875 -1.6085 -0.5253
10986TIP3   OH254372   2.093   2.654  15.418  0.1307  0.2235  0.8662
10986TIP3    H154373   2.083   2.686  15.328  0.5865 -0.8167  0.4363
10986TIP3    H254374   2.030   2.706  15.468 -0.6405  0.3356 -0.1677
10987TIP3   OH254375   3.945   6.117   3.404  0.7830  0.2031 -0.1030
10987TIP3    H154376   4.016   6.179   3.418  1.6160 -0.5348 -0.9235
10987TIP3    H254377   3.902   6.147   3.324  1.3194 -0.3875 -0.6179
10988TIP3   OH254378   3.237   3.374   0.625  0.2583 -0.1478 -0.1916
10988TIP3    H154379   3.265   3.398   0.536  1.3613 -0.4182  0.0668
10988TIP3    H254380   3.318   3.349   0.670 -0.5515 -2.3416  0.1883
10989TIP3   OH254381   2.096   6.271   4.440  0.2215  0.4044 -0.4811
10989TIP3    H154382   2.148   6.333   4.491 -0.0684  0.5438 -0.3570
10989TIP3    H254383   2.053   6.216   4.505  3.0154 -2.0924 -0.5386
10990TIP3   OH254384   3.050   5.576   1.029  0.5938  0.3761  1.2850
10990TIP3    H154385   3.132   5.596   1.074  0.7054  2.1788  0.3379
10990TIP3    H254386   3.017   5.498   1.074  1.9677  0.6124  2.7905
10991TIP3   OH254387   0.759   2.625   3.424 -0.1476  0.5035 -0.2814
10991TIP3    H154388   0.829   2.689   3.412  1.5053 -0.6749  2.2761
10991TIP3    H254389   0.716   2.621   3.338  1.2171  3.1776 -1.2209
10992TIP3   OH254390   5.795   4.187   4.522  0.0813 -0.7724  0.2150
10992TIP3    H154391   5.813   4.095   4.539 -0.5058 -1.4478 -2.4012
10992TIP3    H254392   5.790   4.193   4.426 -0.3846  1.8841  0.3397
10993TIP3   OH254393   0.848   3.662   5.783  0.2853  0.0867 -0.0259
10993TIP3    H154394   0.933   3.635   5.818  0.5224 -0.2056 -0.8086
10993TIP3    H254395   0.864   3.751   5.749  0.3256 -0.0399 -0.3390
10994TIP3   OH254396   5.023   0.555  11.038  0.5029 -0.2942 -0.0749
10994TIP3    H154397   5.118   0.544  11.049  0.5076  0.9934  1.5105
10994TIP3    H254398   4.991   0.467  11.020  1.6815 -1.2632  2.1594
10995TIP3   OH254399   6.680   2.864  16.556  0.5991  0.1476 -0.4962
10995TIP3    H154400   6.624   2.811  16.499 -0.7689  1.1015 -0.0832
10995TIP3    H254401   6.741   2.801  16.595 -3.7376 -2.1865  3.5626
10996TIP3   OH254402   3.975   3.067   1.998  0.3407  0.0872  0.3368
10996TIP3    H154403   4.002   3.111   2.079  0.6391  0.3953  0.0694
10996TIP3    H254404   4.049   3.011   1.975  0.3450  0.1657  0.1581
10997TIP3   OH254405   4.646   1.865   3.502  1.2025 -1.1205  0.0898
10997TIP3    H154406   4.734   1.879   3.537 -0.0199  1.7492  2.4262
10997TIP3    H254407   4.638   1.769   3.496  3.4720 -1.5946  2.5644
10998TIP3   OH254408   4.078   2.972   0.258  0.0139  0.6270  0.3465
10998TIP3    H154409   4.125   3.040   0.210  1.0829 -0.5829 -0.3741
10998TIP3    H254410   4.126   2.964   0.341  2.5170 -1.9900 -1.1578
10999TIP3   OH254411   3.198   6.674  12.709 -0.1108 -0.4743  0.3356
10999TIP3    H154412   3.130   6.645  12.770 -0.8902 -1.4969 -0.9813
10999TIP3    H254413   3.254   6.598  12.696  0.1739 -0.2022 -0.0688
11000TIP3   OH254414   0.324   2.291   1.258 -0.4704 -0.5508  0.4152
11000TIP3    H154415   0.336   2.374   1.303 -0.6822 -0.1111 -0.3250
11000TIP3    H254416   0.412   2.265   1.231 -0.5591  0.1492 -0.5901
11001TIP3   OH254417   3.041   5.018  15.757 -0.5215  0.1507  0.4251
11001TIP3    H154418   2.952   5.054  15.763 -0.1857  0.8228  1.4181
11001TIP3    H254419   3.032   4.928  15.790 -1.2050 -0.5005 -1.3604
11002TIP3   OH254420   1.960   4.190   2.409 -0.3518  0.2087  0.3970
11002TIP3    H154421   1.894   4.166   2.344  0.0258 -0.7800  0.3537
11002TIP3    H254422   1.911   4.231   2.480 -0.8584  0.6147 -0.1739
11003TIP3   OH254423   0.735   4.047  12.231  0.0038  0.3770 -0.0593
11003TIP3    H154424   0.779   4.125  12.266 -1.9907  1.4711  0.1960
11003TIP3    H254425   0.789   3.974  12.259  2.2379  1.6663 -0.7365
11004TIP3   OH254426   0.707   5.938  11.873 -0.0685 -0.3694  0.0819
11004TIP3    H154427   0.788   5.913  11.918 -0.1564 -0.1841  0.3451
11004TIP3    H254428   0.668   6.005  11.929  1.1860  1.8942 -1.5664
11005TIP3   OH254429   4.973   6.252   6.103 -0.3126 -0.2605  0.1600
11005TIP3    H154430   5.045   6.281   6.158 -1.4929 -0.0355  1.6527
11005TIP3    H254431   5.002   6.168   6.068 -0.1534 -1.2462  2.4772
11006TIP3   OH254432   6.179   1.232  12.328  0.6047 -0.2864  0.0769
11006TIP3    H154433   6.259   1.276  12.300  0.8925 -1.1007 -0.4109
11006TIP3    H254434   6.169   1.159  12.267  0.8209 -1.6480  1.6215
11007TIP3   OH254435   4.688   2.815   5.727 -0.8201 -0.0565 -0.4702
11007TIP3    H154436   4.724   2.827   5.815 -1.6234 -2.4023  0.2370
11007TIP3    H254437   4.765   2.808   5.671 -0.1875 -1.6462  0.5331
11008TIP3   OH254438   3.968   0.998  13.622 -0.1172 -0.2834 -0.0552
11008TIP3    H154439   4.034   0.936  13.654 -0.5773 -1.2356 -0.8762
11008TIP3    H254440   3.944   0.964  13.536 -1.0897  0.5163 -0.1162
11009TIP3   OH254441   2.904   5.140  15.069  0.6878  0.9980 -0.4479
11009TIP3    H154442   2.940   5.207  15.127 -0.0229 -1.3989  3.1419
11009TIP3    H254443   2.809   5.150  15.077  0.5671  1.1738 -1.9728
11010TIP3   OH254444   6.558   0.877  16.740 -0.4356  0.5264 -0.4437
11010TIP3    H154445   6.520   0.881  16.652 -2.9255 -1.6451  0.3917
11010TIP3    H254446   6.581   0.968  16.760 -0.3994  1.1797 -3.0491
11011TIP3   OH254447   5.295   0.642   0.889 -0.1162 -0.1216  0.2350
11011TIP3    H154448   5.281   0.653   0.795  1.2657 -1.2130 -0.1403
11011TIP3    H254449   5.239   0.707   0.930  0.7026  1.7093 -1.4116
11012TIP3   OH254450   1.483   3.206   0.331  0.3429 -0.2764 -0.1950
11012TIP3    H154451   1.456   3.295   0.356 -0.5626 -0.3807 -0.7551
11012TIP3    H254452   1.551   3.220   0.265  0.9416 -0.0066  0.4658
11013TIP3   OH254453   1.730   5.999   2.104  0.0744 -0.1484 -0.2356
11013TIP3    H154454   1.658   6.041   2.056 -0.9990  0.5742  1.8667
11013TIP3    H254455   1.782   6.073   2.137  1.2747 -0.6544 -0.9117
11014TIP3   OH254456   5.574   4.229  13.109  0.1164  0.3467  0.5197
11014TIP3    H154457   5.641   4.205  13.173  0.8668 -2.0904 -1.0155
11014TIP3    H254458   5.534   4.146  13.084  0.1769  1.0914 -2.4529
11015TIP3   OH254459   5.454   4.107   5.603 -0.5487 -0.3491 -0.3687
11015TIP3    H154460   5.484   4.189   5.641  1.2551 -1.2645  0.3176
11015TIP3    H254461   5.360   4.117   5.594 -0.6899  0.8977  1.9223
11016TIP3   OH254462   5.987   0.769  12.719  0.0112  0.3727  0.7963
11016TIP3    H154463   5.902   0.743  12.753  0.1862  0.2657  1.1614
11016TIP3    H254464   5.986   0.865  12.724  0.1559  0.3451  1.4101
11017TIP3   OH254465   4.764   4.857   2.233 -0.3138  0.0751  0.3675
11017TIP3    H154466   4.814   4.781   2.262  0.2964  0.8110  1.3196
11017TIP3    H254467   4.778   4.861   2.139 -1.7054 -1.9296  0.0175
11018TIP3   OH254468   1.789   3.916  17.020  0.0183  0.1820 -0.0711
11018TIP3    H154469   1.753   3.972  16.951  0.8409  0.9131  0.0765
11018TIP3    H254470   1.736   3.937  17.097 -1.1487 -0.9099 -0.5401
11019TIP3   OH254471   1.474   2.783  15.696  0.4288  0.0970 -0.3521
11019TIP3    H154472   1.502   2.843  15.627  1.2221  0.4988  0.2880
11019TIP3    H254473   1.531   2.805  15.770 -0.7768  0.0678  0.6133
11020TIP3   OH254474   5.351   1.243  12.019  0.3960  0.2643  0.1669
11020TIP3    H154475   5.344   1.326  11.973 -1.9585 -0.6649 -1.3611
11020TIP3    H254476   5.441   1.213  12.002  0.2351  0.9367 -2.1619
11021TIP3   OH254477   5.837   6.394   2.029  0.4335  0.2601 -0.0868
11021TIP3    H154478   5.861   6.467   2.086  0.1507  0.5297 -0.3043
11021TIP3    H254479   5.919   6.348   2.013  0.6318  0.5865 -0.0187
11022TIP3   OH254480   3.184   2.361  15.550  0.1590  0.0550 -0.3969
11022TIP3    H154481   3.252   2.427  15.533 -0.6115  0.9722  0.0093
11022TIP3    H254482   3.230   2.278  15.543  1.6483  0.6781  1.2272
11023TIP3   OH254483   4.706   1.638   5.396  0.6604 -0.7109 -0.5221
11023TIP3    H154484   4.680   1.711   5.339  1.6973 -0.0277 -0.1588
11023TIP3    H254485   4.725   1.567   5.335  0.4092 -0.4286 -0.9419
11024TIP3   OH254486   1.889   3.543   2.913 -0.5860 -0.2884  0.3604
11024TIP3    H154487   1.938   3.561   2.833 -0.0913 -1.0258  0.4878
11024TIP3    H254488   1.816   3.488   2.884  0.2513 -1.5605  0.5570
11025TIP3   OH254489   6.192   4.946  13.446  0.4582 -0.1073  0.0374
11025TIP3    H154490   6.238   4.894  13.513  1.1613  0.8711  0.3419
11025TIP3    H254491   6.171   4.883  13.377 -3.1864 -1.9317  2.4801
11026TIP3   OH254492   3.646   5.528  15.186 -0.5824 -0.3411 -0.2923
11026TIP3    H154493   3.678   5.439  15.170  0.6281 -0.0226  0.2039
11026TIP3    H254494   3.633   5.532  15.281 -0.5319  0.0394 -0.2999
11027TIP3   OH254495   1.299   4.164   0.348  0.0077  0.1823  0.4184
11027TIP3    H154496   1.392   4.187   0.359 -0.0764  0.3935  0.6939
11027TIP3    H254497   1.283   4.177   0.255  1.2572 -3.5796 -0.4842
11028TIP3   OH254498   1.313   4.046  12.212  0.2110 -0.2098  0.2076
11028TIP3    H154499   1.392   4.100  12.210  0.6890 -0.8931 -1.4283
11028TIP3    H254500   1.296   4.031  12.305  0.1687  2.5428  0.7036
11029TIP3   OH254501   3.256   0.048   3.407  0.1723 -0.2058 -0.3605
11029TIP3    H154502   3.284   0.025   3.496 -1.5530 -0.3388  0.1844
11029TIP3    H254503   3.223  -0.033   3.370  1.2584 -0.2402 -1.3016
11030TIP3   OH254504   2.039   4.324   1.456 -0.2196  0.0403 -0.0748
11030TIP3    H154505   2.093   4.369   1.392  0.6974  1.9825  1.9112
11030TIP3    H254506   2.005   4.247   1.410  2.1413  0.1391 -2.1741
11031TIP3   OH254507   5.026   2.798   3.984 -1.0644 -0.1841 -0.0183
11031TIP3    H154508   4.972   2.729   4.021  0.2069 -1.1077  0.1998
11031TIP3    H254509   4.987   2.879   4.016 -0.9555 -0.8889  2.0884
11032TIP3   OH254510   1.816   2.814   3.192  0.4728 -0.2443  0.0183
11032TIP3    H154511   1.783   2.750   3.254  2.0732 -0.5973  0.5308
11032TIP3    H254512   1.899   2.779   3.162 -0.7874 -0.7508 -3.3686
11033TIP3   OH254513   0.129   6.027  12.473 -0.0478 -0.3983  0.6901
11033TIP3    H154514   0.074   6.063  12.542 -0.0551 -0.1377  0.5461
11033TIP3    H254515   0.208   5.997  12.519 -0.5866 -1.3959  0.9990
11034TIP3   OH254516   3.365   4.803   0.827  0.2446 -0.1592 -0.0485
11034TIP3    H154517   3.274   4.788   0.850 -0.0071  1.0443 -0.1606
11034TIP3    H254518   3.393   4.723   0.783 -0.9388 -0.3081 -0.5581
11035TIP3   OH254519   3.386   2.208  11.894 -0.2443 -0.3382  0.1613
11035TIP3    H154520   3.385   2.258  11.976 -0.0297 -0.3902  0.1966
11035TIP3    H254521   3.476   2.216  11.863 -0.2111 -0.7114  0.1677
11036TIP3   OH254522   0.347   4.937   3.496 -0.3812  0.6980 -0.1254
11036TIP3    H154523   0.395   4.890   3.428 -1.3162 -0.6547  0.0894
11036TIP3    H254524   0.399   4.924   3.575 -2.3456 -3.3332  0.7871
11037TIP3   OH254525   1.232   5.654  12.782 -0.5496 -0.0488 -0.4077
11037TIP3    H154526   1.233   5.722  12.713 -0.8461  1.2295  0.8029
11037TIP3    H254527   1.288   5.585  12.747  0.6809  1.2920 -1.2356
11038TIP3   OH254528   4.612   6.067  13.381  0.3913  0.0048 -0.2757
11038TIP3    H154529   4.547   6.008  13.420  1.4968 -1.3755 -0.4394
11038TIP3    H254530   4.560   6.130  13.332 -0.8236 -2.3227 -2.2028
11039TIP3   OH254531   2.608   0.426  15.087  0.1568  0.2562 -0.1330
11039TIP3    H154532   2.686   0.451  15.037  1.0421 -0.5132  0.7980
11039TIP3    H254533   2.641   0.410  15.176 -0.8917 -0.9819  0.0712
11040TIP3   OH254534   4.797   4.848  16.972 -0.2377  0.5449  0.3144
11040TIP3    H154535   4.859   4.918  16.993  2.1589 -0.6965 -1.9881
11040TIP3    H254536   4.775   4.863  16.880 -1.6389 -0.3402  0.4746
11041TIP3   OH254537   1.536   0.485   3.825 -0.6941  0.2071  0.0209
11041TIP3    H154538   1.559   0.454   3.913  2.6855 -1.4161 -1.2814
11041TIP3    H254539   1.489   0.412   3.785 -0.4296  0.1588 -0.2009
11042TIP3   OH254540   0.477   5.474  12.781  0.2464 -0.2449 -0.3598
11042TIP3    H154541   0.412   5.437  12.722  0.0181 -0.5617  0.0816
11042TIP3    H254542   0.561   5.454  12.740  0.0661  0.3034 -1.0081
11043TIP3   OH254543   3.411   0.720   0.511 -0.0474 -0.0271 -0.3693
11043TIP3    H154544   3.405   0.815   0.516 -2.6313 -0.1565  0.3224
11043TIP3    H254545   3.336   0.694   0.458  1.1333 -1.6700 -1.3519
11044TIP3   OH254546   0.708   3.880  12.525  0.0132 -0.4809  0.2452
11044TIP3    H154547   0.689   3.849  12.437 -2.3248 -0.1072  0.5500
11044TIP3    H254548   0.699   3.802  12.580 -1.2011 -0.2323  0.4374
11045TIP3   OH254549   1.306   6.487  17.160  0.2509 -0.1365 -0.4789
11045TIP3    H154550   1.219   6.509  17.193  1.1480 -0.0512  2.0058
11045TIP3    H254551   1.352   6.570  17.155  0.4751 -0.2834 -0.9995
11046TIP3   OH254552   2.587   5.465   6.669  0.1479 -0.3098 -0.2018
11046TIP3    H154553   2.584   5.424   6.583  1.3566  0.4311 -0.6326
11046TIP3    H254554   2.665   5.521   6.666  0.1014 -0.1190  1.3089
11047TIP3   OH254555   2.522   0.992   3.406 -0.1126 -0.4008  0.2668
11047TIP3    H154556   2.604   0.986   3.358  0.4434 -1.2242  1.2840
11047TIP3    H254557   2.490   0.901   3.410 -0.3635 -0.2796  1.0781
11048TIP3   OH254558   4.088   2.574  10.853 -0.0369  0.0802 -0.3810
11048TIP3    H154559   4.099   2.581  10.758 -0.5761 -1.7616 -0.6157
11048TIP3    H254560   4.005   2.618  10.871 -0.4136 -0.4056 -0.9043
11049TIP3   OH254561   0.877   6.737   3.034  0.2531 -0.0839 -0.2717
11049TIP3    H154562   0.881   6.789   2.953 -0.3448 -1.7206 -1.4109
11049TIP3    H254563   0.955   6.682   3.031  1.1708  1.0812  1.1964
11050TIP3   OH254564   1.674   5.106   5.111 -0.4051 -0.4343  0.1455
11050TIP3    H154565   1.690   5.046   5.184 -0.6178 -0.0396  0.5221
11050TIP3    H254566   1.720   5.067   5.037 -0.1487 -0.8150  0.5024
11051TIP3   OH254567   4.558   3.203  11.456 -0.4018  0.0051  0.2816
11051TIP3    H154568   4.573   3.128  11.513 -1.6383 -1.4437 -1.1685
11051TIP3    H254569   4.640   3.214  11.408 -0.0684 -0.1268  0.8191
11052TIP3   OH254570   5.356   3.361   1.329 -0.0015  0.0826 -0.0190
11052TIP3    H154571   5.323   3.317   1.250  0.6758  0.1544 -0.3455
11052TIP3    H254572   5.338   3.454   1.314  2.8350  0.5193 -1.5041
11053TIP3   OH254573   0.200   5.892   5.767 -0.7157 -0.8343 -0.1986
11053TIP3    H154574   0.252   5.822   5.808  0.1419  0.4072  0.9343
11053TIP3    H254575   0.197   5.961   5.833 -0.5467  0.6751 -1.7102
11054TIP3   OH254576   4.210   0.863  10.467  0.0796  0.2751  0.3554
11054TIP3    H154577   4.200   0.787  10.410 -0.9169 -0.9600  2.0847
11054TIP3    H254578   4.299   0.895  10.450 -0.1079 -0.1936 -1.6575
11055TIP3   OH254579   2.695   5.371   3.688  0.2352 -0.2702 -0.4765
11055TIP3    H154580   2.603   5.364   3.666  0.0963  2.2053 -0.9325
11055TIP3    H254581   2.730   5.283   3.672 -1.5130 -0.6418 -2.7294
11056TIP3   OH254582   1.669   6.421   4.604  1.0330  0.2467 -0.2938
11056TIP3    H154583   1.604   6.389   4.667  0.7903  0.2113 -0.5639
11056TIP3    H254584   1.707   6.341   4.567 -1.0103  0.1689 -2.4944
11057TIP3   OH254585   5.949   1.872   1.287 -0.1186  0.4124 -0.1298
11057TIP3    H154586   6.005   1.930   1.236 -0.4523  1.1880  0.3612
11057TIP3    H254587   5.897   1.931   1.342 -0.2224 -0.3646  0.6324
11058TIP3   OH254588   4.272   3.844   5.501 -0.0325  0.0545 -0.0306
11058TIP3    H154589   4.200   3.797   5.542 -0.2073 -0.7845 -1.2634
11058TIP3    H254590   4.264   3.824   5.408  2.2223 -0.6526 -0.1168
11059TIP3   OH254591   5.920   1.926  12.911 -0.4954  0.0364 -0.0812
11059TIP3    H154592   5.952   1.992  12.850  1.2253 -0.7405 -0.0654
11059TIP3    H254593   5.863   1.974  12.971 -2.0846  0.8669 -2.1119
11060TIP3   OH254594   1.020   3.926  12.248 -0.8357  0.0785  0.3928
11060TIP3    H154595   1.114   3.917  12.232 -0.7881  0.3726  0.4938
11060TIP3    H254596   0.981   3.931  12.161 -0.9847 -2.0915  0.2866
11061TIP3   OH254597   6.006   3.913  15.980 -0.4030  0.1458  0.2611
11061TIP3    H154598   6.066   3.922  16.054  1.3036 -1.3311 -0.8771
11061TIP3    H254599   6.043   3.970  15.912 -1.8722  1.3738  0.4265
11062TIP3   OH254600   5.818   1.853   4.275  0.1676 -0.2380  0.4323
11062TIP3    H154601   5.726   1.846   4.249  0.0726  1.6707  0.0879
11062TIP3    H254602   5.864   1.789   4.221 -0.5441  1.0555 -1.8454
11063TIP3   OH254603   5.275   4.404  12.510 -0.1711  0.6922  0.3290
11063TIP3    H154604   5.284   4.440  12.598 -0.3457 -0.7333  0.9687
11063TIP3    H254605   5.192   4.358  12.511  0.1894 -0.0048 -0.3273
11064TIP3   OH254606   1.639   4.862   6.424  0.4225  0.5784 -1.1509
11064TIP3    H154607   1.735   4.855   6.425  0.4880  1.0917  0.9678
11064TIP3    H254608   1.618   4.887   6.335  2.2902  0.6262 -1.6214
11065TIP3   OH254609   2.701   1.361  15.717  0.4425 -0.1444 -0.0104
11065TIP3    H154610   2.733   1.285  15.668  0.2266  2.0454 -3.9471
11065TIP3    H254611   2.606   1.358  15.707  0.3662  0.2174  0.5545
11066TIP3   OH254612   2.870   6.256   3.449  0.2015 -1.1385 -0.6767
11066TIP3    H154613   2.775   6.262   3.464  0.3284  0.9100 -0.4663
11066TIP3    H254614   2.878   6.236   3.356 -0.4259 -1.8828 -0.5858
11067TIP3   OH254615   3.431   0.609  13.903  0.4852 -0.2306  0.1358
11067TIP3    H154616   3.340   0.612  13.874  0.7174  0.9299 -0.5287
11067TIP3    H254617   3.438   0.527  13.952 -0.7919 -0.5593 -0.2001
11068TIP3   OH254618   1.719   3.303  10.878  0.3646 -0.1514 -0.4951
11068TIP3    H154619   1.814   3.311  10.890  0.4806  0.1311 -1.5054
11068TIP3    H254620   1.685   3.390  10.893 -0.1449 -0.8168  2.9106
11069TIP3   OH254621   1.650   1.735  15.316 -0.0371  0.5861 -0.1201
11069TIP3    H154622   1.652   1.793  15.392  2.4247  1.8747 -1.0357
11069TIP3    H254623   1.614   1.789  15.245  0.9475  0.5731 -0.6510
11070TIP3   OH254624   6.226   4.801   5.325 -0.1327 -0.1254  0.2913
11070TIP3    H154625   6.170   4.724   5.341  0.1400 -0.6009 -0.9160
11070TIP3    H254626   6.174   4.856   5.266  0.8048 -0.7791 -1.1969
11071TIP3   OH254627   5.705   4.084   3.133 -0.1505  0.9142  0.0634
11071TIP3    H154628   5.706   4.108   3.225  0.5845  1.2930 -0.0371
11071TIP3    H254629   5.649   4.007   3.128  1.3402 -0.2718  1.1079
11072TIP3   OH254630   3.999   1.967  13.903  0.6203 -0.0364  0.7490
11072TIP3    H154631   3.917   1.972  13.952 -0.3084  0.1494 -0.7627
11072TIP3    H254632   4.061   2.017  13.956 -0.8796  2.0109  0.7072
11073TIP3   OH254633   4.493   2.964  13.445 -0.1781  0.1105 -0.2602
11073TIP3    H154634   4.496   3.058  13.461  1.1007  0.0957 -0.3198
11073TIP3    H254635   4.484   2.925  13.532 -0.8348  0.2858 -0.2459
11074TIP3   OH254636   2.046   4.430   0.825 -0.1341  0.7257  0.2938
11074TIP3    H154637   2.140   4.427   0.838  0.0225 -2.2516 -0.6743
11074TIP3    H254638   2.010   4.439   0.914  1.0886 -1.7843  1.1589
11075TIP3   OH254639   5.163   6.744   2.278  0.2343  0.1692 -0.2032
11075TIP3    H154640   5.256   6.755   2.258  0.3873 -0.9541 -0.1819
11075TIP3    H254641   5.152   6.649   2.289 -1.0455  0.2179 -0.8668
11076TIP3   OH254642   0.133   6.526   4.906  0.0391  0.4848  0.4395
11076TIP3    H154643   0.069   6.455   4.897  1.9635 -1.1768 -0.9173
11076TIP3    H254644   0.146   6.558   4.817  1.9131 -0.0099  0.4959
11077TIP3   OH254645   1.117   4.594  15.219  0.2294 -0.1224 -0.1272
11077TIP3    H154646   1.186   4.596  15.152  2.2999 -0.6558  1.8749
11077TIP3    H254647   1.113   4.683  15.253  2.2218 -0.7097  1.8656
11078TIP3   OH254648   4.856   6.530  15.558 -0.2834  0.1251  0.3560
11078TIP3    H154649   4.763   6.507  15.559 -0.3185  0.1594 -0.6174
11078TIP3    H254650   4.865   6.589  15.482  0.2206  1.4806  1.4170
11079TIP3   OH254651   1.412   4.547   4.562 -0.5974 -0.2228 -0.4090
11079TIP3    H154652   1.319   4.536   4.579 -0.6377  1.9529  1.2413
11079TIP3    H254653   1.425   4.642   4.562  1.7860 -0.4753  0.5698
11080TIP3   OH254654   1.525   4.007  14.013 -0.2720  0.2517 -0.0740
11080TIP3    H154655   1.492   3.949  13.945 -1.6074  0.7477  0.1231
11080TIP3    H254656   1.500   3.964  14.095  0.0882  0.3584  0.0952
11081TIP3   OH254657   0.117   3.541  10.852  0.1331 -0.4184 -0.1059
11081TIP3    H154658   0.202   3.516  10.814  0.9705  0.5008  1.0946
11081TIP3    H254659   0.072   3.458  10.866  0.9930 -0.9492 -0.4016
11082TIP3   OH254660   2.033   0.677   2.375  0.0360 -0.7565 -0.0118
11082TIP3    H154661   2.023   0.772   2.371 -1.0023 -0.8774 -2.6947
11082TIP3    H254662   2.106   0.663   2.435  1.4315  1.8517 -0.9277
11083TIP3   OH254663   2.043   3.386   3.098  0.3336  0.1854  0.0817
11083TIP3    H154664   1.980   3.329   3.142  0.3341 -2.1566 -2.5889
11083TIP3    H254665   1.995   3.419   3.021  1.5380  0.6200 -0.5086
11084TIP3   OH254666   6.735   5.940  15.141 -0.0117 -0.3291  0.2777
11084TIP3    H154667   6.812   5.886  15.160 -0.4441 -0.8523  0.6082
11084TIP3    H254668   6.720   5.929  15.048  1.5828  1.5100 -0.2512
11085TIP3   OH254669   3.099   4.684   2.139 -0.6991  0.1955 -0.0848
11085TIP3    H154670   3.158   4.625   2.093  0.0035 -0.1193  1.1759
11085TIP3    H254671   3.115   4.770   2.100  0.0996 -0.0058 -0.2140
11086TIP3   OH254672   4.057   3.043   1.376 -0.6182 -0.2443 -0.0018
11086TIP3    H154673   4.080   3.117   1.320  0.7056  0.3100  1.2191
11086TIP3    H254674   4.124   3.043   1.444 -0.9868 -2.1638  0.4092
11087TIP3   OH254675   5.154   6.499  15.243 -0.1312  0.0576  0.1254
11087TIP3    H154676   5.215   6.427  15.232  0.2691  0.4111 -0.0304
11087TIP3    H254677   5.205   6.568  15.285 -0.8123 -0.1461  1.3276
11088TIP3   OH254678   1.292   2.080   4.623 -0.4569 -0.3829  0.1631
11088TIP3    H154679   1.358   2.118   4.566  0.2842 -0.0144  1.2281
11088TIP3    H254680   1.301   2.128   4.706 -0.6646 -1.7119  0.9877
11089TIP3   OH254681   4.201   0.825  12.354 -0.2283  0.7378 -0.0373
11089TIP3    H154682   4.129   0.771  12.325  0.3118  0.2457 -0.4822
11089TIP3    H254683   4.275   0.765  12.362  0.3046  1.3545 -0.2531
11090TIP3   OH254684   6.346   5.921  13.072  0.0467  0.0593 -0.1477
11090TIP3    H154685   6.296   5.907  13.152 -0.2544  0.3974 -0.2726
11090TIP3    H254686   6.297   5.873  13.004  0.2221 -0.1073 -0.1563
11091TIP3   OH254687   0.299   0.533  15.461  0.2651 -0.5560 -0.4390
11091TIP3    H154688   0.357   0.484  15.519 -1.3068 -1.0271  0.8092
11091TIP3    H254689   0.351   0.607  15.431  1.5463 -1.0473  0.5033
11092TIP3   OH254690   3.316   6.009   1.322 -0.0257 -0.1901  0.5376
11092TIP3    H154691   3.403   6.014   1.282 -0.7553  1.7181 -0.9987
11092TIP3    H254692   3.284   6.099   1.320 -1.8249 -0.7611  1.5767
11093TIP3   OH254693   3.559   1.028  14.812  0.2249  0.1522 -0.0086
11093TIP3    H154694   3.601   1.084  14.748  0.1328 -0.3805 -0.5418
11093TIP3    H254695   3.629   0.970  14.844  0.7763  1.7617  1.9306
11094TIP3   OH254696   6.045   6.285  14.223 -0.1143 -0.0937 -0.0474
11094TIP3    H154697   6.092   6.280  14.307 -1.6282  1.2716  0.9430
11094TIP3    H254698   6.028   6.378  14.210  0.5279 -0.2261 -2.1752
11095TIP3   OH254699   4.683   5.993   0.542  0.1670 -0.2838 -0.5701
11095TIP3    H154700   4.764   6.005   0.592 -0.2734 -1.3551  0.4428
11095TIP3    H254701   4.709   5.936   0.469  0.1071 -1.6308  0.4245
11096TIP3   OH254702   1.334   1.321   5.630  0.3309  0.2406 -0.2740
11096TIP3    H154703   1.333   1.407   5.673 -0.4820 -0.2248  0.6674
11096TIP3    H254704   1.415   1.321   5.579  1.1114  0.9812  0.9190
11097TIP3   OH254705   4.701   2.044  13.984 -0.6318  0.0040 -0.2417
11097TIP3    H154706   4.726   2.070  14.073  0.4500 -1.3139 -0.1099
11097TIP3    H254707   4.701   2.125  13.934 -1.1620  0.7573  0.9285
11098TIP3   OH254708   6.401   0.512  13.029 -0.0667  0.1027 -0.3354
11098TIP3    H154709   6.406   0.417  13.038  2.8718  0.1689 -0.4319
11098TIP3    H254710   6.365   0.543  13.113 -0.8303 -1.0446 -0.2245
11099TIP3   OH254711   3.379   2.890  15.278  0.0093  0.3120  0.3997
11099TIP3    H154712   3.412   2.934  15.356  0.1340 -1.0995  1.1791
11099TIP3    H254713   3.381   2.797  15.300 -2.9309  0.0437 -0.1350
11100TIP3   OH254714   0.188   5.245  15.982 -0.3045 -0.1217  0.1578
11100TIP3    H154715   0.234   5.204  16.055 -0.4621  0.4663  0.5917
11100TIP3    H254716   0.252   5.243  15.910  0.6160  1.1527  0.8977
11101TIP3   OH254717   3.460   3.143  12.650  0.2521  0.4449  0.0138
11101TIP3    H154718   3.512   3.216  12.618 -0.0645  0.2991 -0.8414
11101TIP3    H254719   3.486   3.069  12.595  0.5296 -0.0798  0.8333
11102TIP3   OH254720   4.357   0.966  13.916  0.1056 -0.4064  0.1824
11102TIP3    H154721   4.398   0.969  13.830 -1.7146 -1.1086 -0.7569
11102TIP3    H254722   4.415   1.019  13.972  2.5920 -1.8437 -0.8760
11103TIP3   OH254723   1.617   1.046  15.093 -0.3995 -0.1514 -0.2847
11103TIP3    H154724   1.668   1.045  15.174 -1.6706  0.2884  0.5708
11103TIP3    H254725   1.579   0.959  15.087 -0.1432 -0.2469 -0.5162
11104TIP3   OH254726   3.380   4.887  15.876  0.1064 -0.4716 -0.5074
11104TIP3    H154727   3.294   4.848  15.859 -0.1357  0.3759 -1.3065
11104TIP3    H254728   3.369   4.937  15.956 -0.0073 -0.7520 -0.3450
11105TIP3   OH254729   6.393   5.096  13.335  0.1030  0.4438  0.0340
11105TIP3    H154730   6.332   5.040  13.383 -1.1692  2.2407  0.6338
11105TIP3    H254731   6.480   5.067  13.362 -0.5211 -1.1234  0.4152
11106TIP3   OH254732   1.503   3.310   1.713  0.2488  0.0304  0.7089
11106TIP3    H154733   1.513   3.256   1.635 -1.7443 -1.1677  1.1968
11106TIP3    H254734   1.464   3.392   1.681 -1.7597 -0.9394  0.5195
11107TIP3   OH254735   3.535   6.541  11.435  0.3847 -0.2881  0.3172
11107TIP3    H154736   3.580   6.459  11.416  0.1066 -0.3625 -0.0409
11107TIP3    H254737   3.501   6.569  11.350  0.5344  0.2297  0.4311
11108TIP3   OH254738   0.124   3.192  16.121 -0.0935  0.3814 -0.0454
11108TIP3    H154739   0.182   3.209  16.047 -2.2133 -1.3251 -2.2798
11108TIP3    H254740   0.036   3.198  16.084 -1.2485 -0.5633  2.3526
11109TIP3   OH254741   5.174   5.192   1.882  0.0359  0.6110  0.4131
11109TIP3    H154742   5.151   5.186   1.974 -1.3858  0.7936  0.0926
11109TIP3    H254743   5.158   5.284   1.859  0.1367  0.5106 -0.0802
11110TIP3   OH254744   6.169   6.030   4.718  0.7082 -0.6143  0.4267
11110TIP3    H154745   6.104   5.964   4.740 -0.8236  0.0790 -1.7003
11110TIP3    H254746   6.219   5.993   4.646  0.8892 -0.0687  0.2632
11111TIP3   OH254747   4.213   0.284  13.034 -0.1102 -0.0250 -0.1275
11111TIP3    H154748   4.151   0.217  13.005 -2.0269  0.9099  1.5125
11111TIP3    H254749   4.299   0.248  13.015 -1.1259 -1.4243 -2.4658
11112TIP3   OH254750   3.454   0.204   2.215 -0.3117  0.7065 -0.0823
11112TIP3    H154751   3.375   0.250   2.246 -2.1339 -1.7816 -0.7111
11112TIP3    H254752   3.430   0.169   2.130  2.5616  2.2872 -1.7051
11113TIP3   OH254753   1.725   1.414  11.480 -0.4852 -0.8921  0.1377
11113TIP3    H154754   1.795   1.462  11.436  1.1755 -2.1161  1.3391
11113TIP3    H254755   1.729   1.442  11.571  0.7642 -3.4169  0.9606
11114TIP3   OH254756   3.794   0.851   0.600 -0.1211  0.3080  0.3002
11114TIP3    H154757   3.735   0.879   0.669  1.3741  3.1336  0.5850
11114TIP3    H254758   3.798   0.925   0.540  3.4751  0.5433  0.6075
11115TIP3   OH254759   5.235   6.626   0.733  0.2116  0.0270 -0.4680
11115TIP3    H154760   5.296   6.675   0.789 -0.8429  1.8860 -0.8688
11115TIP3    H254761   5.257   6.534   0.749  2.0620  0.5911  0.5739
11116TIP3   OH254762   0.860   0.265  14.502  0.3578  0.1973  0.0306
11116TIP3    H154763   0.935   0.272  14.562  0.3925 -0.8374  0.1351
11116TIP3    H254764   0.896   0.288  14.417  0.9714 -0.8745 -0.0260
11117TIP3   OH254765   0.972   3.543   0.098 -0.5635  0.1825  0.3615
11117TIP3    H154766   0.900   3.523   0.039 -0.3578  1.5294 -0.3766
11117TIP3    H254767   0.935   3.603   0.162 -0.5676 -0.6113  1.1254
11118TIP3   OH254768   4.511   0.608  13.530 -0.1362 -0.0363 -0.0424
11118TIP3    H154769   4.580   0.668  13.557 -0.3309  0.5478 -0.8071
11118TIP3    H254770   4.461   0.657  13.464 -0.6644 -0.8156 -0.2329
11119TIP3   OH254771   5.273   5.511  11.625  0.1352  0.7528  0.0585
11119TIP3    H154772   5.347   5.456  11.600 -0.5694  0.1143 -0.7097
11119TIP3    H254773   5.302   5.600  11.607  0.7938  0.5221 -0.0354
11120TIP3   OH254774   1.120   3.833   2.886  0.2766  0.1348 -0.4745
11120TIP3    H154775   1.049   3.780   2.922  0.2245  1.2413  1.1760
11120TIP3    H254776   1.076   3.899   2.833  0.0191  0.9153  0.6722
11121TIP3   OH254777   6.551   4.370  13.955 -0.5697 -0.0480  0.0402
11121TIP3    H154778   6.574   4.279  13.937  1.2347  0.2421  0.6806
11121TIP3    H254779   6.547   4.412  13.868  0.1364 -0.4125 -0.1787
11122TIP3   OH254780   5.422   5.199  12.430 -0.0036 -0.5298  0.1078
11122TIP3    H154781   5.498   5.182  12.486  0.8849 -0.3737 -1.0022
11122TIP3    H254782   5.353   5.144  12.467  0.5330 -0.4174  1.3580
11123TIP3   OH254783   4.515   1.160  14.019 -0.6040  0.6904 -0.7393
11123TIP3    H154784   4.493   1.196  13.934 -0.7359  1.8775 -0.2200
11123TIP3    H254785   4.593   1.106  14.003  0.2070  2.0037 -1.3837
11124TIP3   OH254786   5.222   4.212  13.224  0.5842  0.2412 -0.1510
11124TIP3    H154787   5.233   4.144  13.157 -0.3933  1.5219 -1.6618
11124TIP3    H254788   5.303   4.207  13.275  1.0992 -1.1741 -1.0270
11125TIP3   OH254789   2.388   5.728  13.641 -0.1461 -0.0326  0.5884
11125TIP3    H154790   2.419   5.747  13.553 -0.8326 -0.7934  0.1731
11125TIP3    H254791   2.329   5.801  13.663  0.3023  0.3413  0.5720
11126TIP3   OH254792   1.663   3.555  15.058  0.4174 -0.3937  0.3809
11126TIP3    H154793   1.656   3.650  15.055 -1.8925 -0.4582  1.3828
11126TIP3    H254794   1.659   3.528  14.966 -1.2931  0.4056  0.1840
11127TIP3   OH254795   4.617   3.940  17.200  0.0370 -0.4607  0.8452
11127TIP3    H154796   4.606   3.926  17.294 -0.0192 -0.4491  0.8396
11127TIP3    H254797   4.611   4.035  17.189 -2.2818 -0.5838  0.5394
11128TIP3   OH254798   6.010   6.272   4.991  0.1451 -0.3847  0.1105
11128TIP3    H154799   5.944   6.235   5.051  0.1571 -0.8576 -0.1675
11128TIP3    H254800   5.959   6.302   4.916  0.3243 -1.5222 -0.4858
11129TIP3   OH254801   5.576   1.124  11.948  0.2013 -0.7245  0.1463
11129TIP3    H154802   5.612   1.119  11.859 -0.4745  3.2131 -0.5506
11129TIP3    H254803   5.643   1.169  11.999 -0.9787  0.6954  0.5264
11130TIP3   OH254804   5.891   5.016   0.942 -0.3181  0.3426 -0.0725
11130TIP3    H154805   5.911   5.106   0.967 -1.3604  0.7106 -0.5059
11130TIP3    H254806   5.976   4.972   0.943  0.0290  0.9739  1.5038
11131TIP3   OH254807   1.990   0.447   5.486 -0.1060 -0.4844 -0.1799
11131TIP3    H154808   2.059   0.403   5.536 -0.1619 -2.3310 -1.5841
11131TIP3    H254809   1.951   0.509   5.547  0.4280 -1.9672  1.7688
11132TIP3   OH254810   5.575   0.840   1.913 -0.2261 -0.2665 -0.3229
11132TIP3    H154811   5.481   0.859   1.909 -0.3901 -0.8421  0.3956
11132TIP3    H254812   5.587   0.767   1.853 -0.4102 -0.7661  0.2312
11133TIP3   OH254813   1.658   3.224  15.491 -0.3132 -0.2114 -0.0883
11133TIP3    H154814   1.634   3.293  15.429  1.5349  1.0472  0.5058
11133TIP3    H254815   1.598   3.236  15.564 -0.7222  0.0518 -0.4587
11134TIP3   OH254816   0.751   2.193   4.122 -0.0460 -0.2124 -0.3963
11134TIP3    H154817   0.747   2.278   4.166 -0.0009  0.2412 -1.2322
11134TIP3    H254818   0.696   2.136   4.175  0.5744  0.1225  0.6338
11135TIP3   OH254819   1.801   0.839  11.074  0.0136 -0.0063  0.3269
11135TIP3    H154820   1.815   0.766  11.014 -1.1895  0.8490 -1.0698
11135TIP3    H254821   1.780   0.798  11.158  0.8048 -1.2388 -0.0615
11136TIP3   OH254822   2.573   2.083   2.050  0.2523 -0.1959 -0.1154
11136TIP3    H154823   2.651   2.034   2.026  0.5883  0.5498 -0.5912
11136TIP3    H254824   2.505   2.050   1.991  0.4325 -0.2300 -0.3077
11137TIP3   OH254825   0.463   0.896   2.570  0.3480  0.3767  0.1359
11137TIP3    H154826   0.455   0.834   2.643 -2.3609 -0.1009 -0.4353
11137TIP3    H254827   0.389   0.956   2.581 -1.3808 -0.8575 -3.1164
11138TIP3   OH254828   1.186   2.924  12.161  0.5118 -0.5627  0.1404
11138TIP3    H154829   1.211   2.930  12.069  1.9036 -1.6933  0.4134
11138TIP3    H254830   1.183   3.015  12.191  1.5811 -0.2479 -0.6391
11139TIP3   OH254831   3.543   6.475   1.221  0.0208  0.0251  0.7719
11139TIP3    H154832   3.501   6.400   1.264  0.3186 -0.0485  0.9345
11139TIP3    H254833   3.485   6.496   1.148  0.2557 -0.7691  0.3425
11140TIP3   OH254834   1.651   1.593  14.206  0.1751 -0.0471 -0.2760
11140TIP3    H154835   1.646   1.598  14.110  1.5557 -0.0169 -0.3650
11140TIP3    H254836   1.647   1.499  14.225 -3.1889  0.0239 -0.1134
11141TIP3   OH254837   4.767   0.434   0.724  0.2331  0.8812 -0.3468
11141TIP3    H154838   4.693   0.454   0.667  0.0140  0.5728 -0.1753
11141TIP3    H254839   4.730   0.375   0.791  1.5111 -2.8625 -2.6717
11142TIP3   OH254840   5.346   6.727   5.380  0.6468 -0.8707  0.6919
11142TIP3    H154841   5.303   6.668   5.318  0.1733  1.2115 -1.0789
11142TIP3    H254842   5.282   6.741   5.449 -0.1262 -0.6083 -0.0712
11143TIP3   OH254843   2.526   3.113  13.707  0.5278  0.1084 -0.2552
11143TIP3    H154844   2.454   3.055  13.733 -0.2280  1.5130  0.9482
11143TIP3    H254845   2.551   3.083  13.620 -0.9185 -0.9836 -0.3290
11144TIP3   OH254846   0.315   5.203  13.884 -0.3730 -0.0307  0.7053
11144TIP3    H154847   0.381   5.154  13.933  0.3007  1.3488  1.2082
11144TIP3    H254848   0.362   5.238  13.809 -0.9941 -0.6457  0.0189
11145TIP3   OH254849   4.565   3.275  16.033  0.6637  0.1634 -0.2653
11145TIP3    H154850   4.650   3.314  16.054  0.8840  0.3506 -1.4685
11145TIP3    H254851   4.565   3.266  15.938 -1.0688  1.0745 -0.3772
11146TIP3   OH254852   4.240   3.866  15.529 -0.0451  0.3369  0.0966
11146TIP3    H154853   4.258   3.787  15.580 -2.0770 -0.7310 -0.6928
11146TIP3    H254854   4.193   3.834  15.452  0.4443  2.1857 -1.0312
11147TIP3   OH254855   4.154   4.983  12.825 -0.6378 -0.0835 -0.4016
11147TIP3    H154856   4.126   5.039  12.897 -1.2966 -0.4073 -0.3967
11147TIP3    H254857   4.227   4.932  12.861 -0.8161 -0.0841 -0.0360
11148TIP3   OH254858   5.563   1.057  12.308 -0.2841 -0.4574  0.4846
11148TIP3    H154859   5.641   1.004  12.292  0.3202  0.5139  0.1479
11148TIP3    H254860   5.537   1.089  12.221  0.9286  1.9413  0.9344
11149TIP3   OH254861   3.360   1.479   0.898  0.3642  0.3580  0.1234
11149TIP3    H154862   3.295   1.450   0.834 -0.9591  4.3972 -0.6810
11149TIP3    H254863   3.324   1.453   0.983 -1.1491  0.5047 -0.4499
11150TIP3   OH254864   5.449   6.403   2.582  0.3094 -0.0933  0.4324
11150TIP3    H154865   5.490   6.383   2.666 -1.6786 -1.4535  1.1450
11150TIP3    H254866   5.522   6.427   2.525  1.6481  1.7393  2.7405
11151TIP3   OH254867   6.579   1.091   1.965  0.2702 -0.3382  0.0579
11151TIP3    H154868   6.525   1.150   1.912  0.3786  0.0559  0.3822
11151TIP3    H254869   6.516   1.040   2.016  0.1888 -0.2168  0.0781
11152TIP3   OH254870   0.071   5.681  15.778  0.7242 -0.1477 -0.0567
11152TIP3    H154871   0.139   5.664  15.844 -0.7051 -2.0235  1.0170
11152TIP3    H254872   0.059   5.597  15.733 -0.3845  0.3321 -0.6989
11153TIP3   OH254873   0.859   4.319   2.937  0.8886  0.0069 -0.2759
11153TIP3    H154874   0.820   4.391   2.886  3.3272  2.1699  0.7048
11153TIP3    H254875   0.822   4.331   3.025 -0.9617 -1.8644 -0.7090
11154TIP3   OH254876   1.049   6.491   1.876 -0.0130  0.7231  0.6282
11154TIP3    H154877   1.134   6.450   1.859 -0.1780 -0.3664  2.1781
11154TIP3    H254878   1.069   6.583   1.891  1.1033  0.2421  2.3229
11155TIP3   OH254879   3.419   2.616  17.112 -0.4371  0.1819 -0.3826
11155TIP3    H154880   3.472   2.693  17.089  0.5877 -0.3741  0.0911
11155TIP3    H254881   3.479   2.542  17.105  0.1162 -0.0697  4.2590
11156TIP3   OH254882   1.845   4.141   4.829  0.0576  0.1659 -0.9271
11156TIP3    H154883   1.911   4.076   4.807 -1.1113 -1.1530 -0.6632
11156TIP3    H254884   1.854   4.209   4.762  0.8623 -0.5870 -1.5979
11157TIP3   OH254885   4.658   2.223   1.290 -0.0760  0.3693 -0.0025
11157TIP3    H154886   4.587   2.229   1.355 -0.6632  0.6754 -0.6507
11157TIP3    H254887   4.617   2.253   1.208  1.0349  1.4064 -0.2067
11158TIP3   OH254888   5.890   5.299  12.381  0.3989 -0.1058 -0.0487
11158TIP3    H154889   5.959   5.316  12.317 -0.4315  3.3306 -0.2302
11158TIP3    H254890   5.932   5.312  12.466  0.1659  1.5083 -0.1472
11159TIP3   OH254891   3.435   1.458  13.114  0.3362 -0.2900  0.7907
11159TIP3    H154892   3.530   1.466  13.116  0.3259  0.2564 -0.1184
11159TIP3    H254893   3.416   1.417  13.029 -0.3222  1.3871  0.0816
11160TIP3   OH254894   2.622   2.678   3.538 -0.2003 -0.4569 -0.5470
11160TIP3    H154895   2.643   2.693   3.630 -1.1392 -0.1866 -0.3628
11160TIP3    H254896   2.670   2.599   3.514  0.8460  0.0211 -0.1133
11161TIP3   OH254897   6.254   0.668  12.765  0.1508  0.4008  0.1676
11161TIP3    H154898   6.164   0.692  12.742  0.7107  0.5748 -2.0679
11161TIP3    H254899   6.280   0.732  12.832 -0.7990  1.4789 -0.4584
11162TIP3   OH254900   4.077   5.029   3.060  0.6675  0.2943 -0.3678
11162TIP3    H154901   4.035   4.943   3.050  0.3203  0.5990 -1.6690
11162TIP3    H254902   4.110   5.050   2.973  2.9822  0.3876  0.4595
11163TIP3   OH254903   3.892   1.461  11.792 -0.6238 -0.2816  0.2559
11163TIP3    H154904   3.822   1.507  11.837 -0.0095  1.2152 -0.2777
11163TIP3    H254905   3.972   1.495  11.832 -0.1691 -2.2394  1.1318
11164TIP3   OH254906   2.143   3.567  16.860  0.2686  0.4858 -0.4322
11164TIP3    H154907   2.219   3.538  16.811 -0.6810 -2.1850 -0.4845
11164TIP3    H254908   2.171   3.567  16.952  0.4923  0.0584 -0.5005
11165TIP3   OH254909   6.185   3.033  13.044 -0.0399 -0.2204 -0.2646
11165TIP3    H154910   6.159   3.058  12.955 -2.2721 -0.9440  0.1162
11165TIP3    H254911   6.206   2.940  13.037 -1.0873 -0.5040  0.0823
11166TIP3   OH254912   2.253   4.788  16.570  0.1764 -0.5388 -0.0053
11166TIP3    H154913   2.266   4.875  16.533 -2.7035  0.5728  1.2950
11166TIP3    H254914   2.167   4.761  16.540  0.7083 -2.6613  0.2128
11167TIP3   OH254915   6.660   3.216  15.368  0.5405 -0.1622  0.1197
11167TIP3    H154916   6.632   3.162  15.442  1.0956  0.0694  0.5066
11167TIP3    H254917   6.746   3.181  15.344  0.6707  0.2086  0.0347
11168TIP3   OH254918   3.619   4.404   1.940  0.8332  0.1439 -0.8686
11168TIP3    H154919   3.577   4.343   2.000  2.3232  0.8414  0.9517
11168TIP3    H254920   3.704   4.365   1.920  1.0408  0.7406 -1.1837
11169TIP3   OH254921   6.221   2.584   3.144 -0.0286 -0.0413 -0.2839
11169TIP3    H154922   6.250   2.634   3.220 -1.0308  0.9949 -0.5638
11169TIP3    H254923   6.258   2.631   3.069  0.0639 -0.4431 -0.4939
11170TIP3   OH254924   5.229   6.778  15.915  0.6716  0.4851  0.8347
11170TIP3    H154925   5.213   6.762  16.008 -0.3106 -1.4588  0.3934
11170TIP3    H254926   5.174   6.854  15.894 -3.0635 -1.9676  0.8703
11171TIP3   OH254927   5.696   6.238  11.203  0.2079  0.2200  0.1272
11171TIP3    H154928   5.721   6.145  11.204 -0.7608 -0.0627  1.4284
11171TIP3    H254929   5.752   6.277  11.136 -0.1995 -1.5319 -1.3406
11172TIP3   OH254930   2.578   6.604   2.186  0.2070 -0.2006 -0.3442
11172TIP3    H154931   2.592   6.531   2.246  0.6883  1.3195  1.5182
11172TIP3    H254932   2.663   6.619   2.145 -0.0504 -1.0650 -1.2108
11173TIP3   OH254933   2.614   5.318  15.860  0.0999  0.2714 -0.2966
11173TIP3    H154934   2.520   5.318  15.841 -0.2311 -1.4767  1.0855
11173TIP3    H254935   2.655   5.282  15.781 -0.5236 -0.0243 -0.4909
11174TIP3   OH254936   2.996   6.554  15.453 -0.0164 -0.1218 -0.1278
11174TIP3    H154937   2.962   6.540  15.541 -0.4841  0.3563 -0.2275
11174TIP3    H254938   3.090   6.535  15.460 -0.0714 -0.1942  0.4480
11175TIP3   OH254939   6.091   5.811   0.308 -0.0740  0.3612 -0.5072
11175TIP3    H154940   6.059   5.852   0.227 -1.0753  1.0119  0.2058
11175TIP3    H254941   6.099   5.719   0.285 -0.6371  0.4837 -1.2740
11176TIP3   OH254942   1.648   3.750  14.390 -0.6240  0.0273  0.1033
11176TIP3    H154943   1.653   3.696  14.469 -2.4577 -1.3703 -0.6612
11176TIP3    H254944   1.734   3.791  14.384  0.1028 -1.0965  1.9442
11177TIP3   OH254945   0.680   4.208  14.995 -0.0967 -0.7445 -0.4128
11177TIP3    H154946   0.622   4.148  15.042 -0.1462  0.9588  1.8491
11177TIP3    H254947   0.762   4.161  14.987 -0.4251 -1.4932  0.4486
11178TIP3   OH254948   4.962   2.322  13.397 -0.5003 -0.1478 -0.1396
11178TIP3    H154949   4.958   2.400  13.453  0.7367 -1.0168  1.2230
11178TIP3    H254950   4.900   2.341  13.326 -1.8910  1.1494  1.3194
11179TIP3   OH254951   3.339   0.326  15.358  0.7470  0.1457 -0.2832
11179TIP3    H154952   3.263   0.281  15.395  1.6239 -1.6982 -0.6126
11179TIP3    H254953   3.357   0.398  15.419  0.4313 -1.0973  1.3264
11180TIP3   OH254954   2.879   4.785   5.608  0.3129  0.2101 -0.0127
11180TIP3    H154955   2.830   4.708   5.637 -2.4636  1.0319 -1.9841
11180TIP3    H254956   2.829   4.859   5.644  0.1409  1.0961 -1.9563
11181TIP3   OH254957   0.210   6.420  15.117  0.3139  0.0541  0.0942
11181TIP3    H154958   0.202   6.329  15.146  0.4223 -0.4569 -1.4102
11181TIP3    H254959   0.304   6.438  15.122  0.2609  0.1986  0.6839
11182TIP3   OH254960   2.283   4.013   6.606 -0.0602 -0.2025  0.4007
11182TIP3    H154961   2.252   4.018   6.516 -1.1435 -2.9386  0.5533
11182TIP3    H254962   2.213   4.054   6.658 -0.3628 -0.4406  0.1788
11183TIP3   OH254963   6.097   2.168   4.193  0.2845 -0.1867  0.0341
11183TIP3    H154964   6.077   2.231   4.125 -0.9835 -1.0317 -0.4129
11183TIP3    H254965   6.063   2.085   4.160  2.7522 -1.3591  0.1495
11184TIP3   OH254966   4.310   5.181  14.652  0.3017 -0.0597  0.5366
11184TIP3    H154967   4.265   5.163  14.735 -1.0257 -0.1982 -0.1882
11184TIP3    H254968   4.259   5.133  14.587  0.9195  0.6140 -0.4587
11185TIP3   OH254969   1.764   4.427  14.042  0.9661 -0.3330 -0.1700
11185TIP3    H154970   1.824   4.377  14.098  0.5939  0.9007  1.4146
11185TIP3    H254971   1.693   4.366  14.022 -0.2587 -0.1438  2.9687
11186TIP3   OH254972   5.191   5.996  13.490 -0.8256  0.0764 -0.1741
11186TIP3    H154973   5.106   6.032  13.463 -0.9474 -1.0054 -1.3175
11186TIP3    H254974   5.170   5.909  13.525 -0.1714 -0.3085 -0.7155
11187TIP3   OH254975   5.502   5.763   1.385  0.1670  0.5976  0.4110
11187TIP3    H154976   5.475   5.674   1.363  0.6481  0.2908  1.0266
11187TIP3    H254977   5.532   5.800   1.302  0.2274  0.0959  0.2053
11188TIP3   OH254978   5.551   5.648  16.530 -0.3737 -0.5625  0.5030
11188TIP3    H154979   5.598   5.652  16.613 -1.0676  1.8639  0.8345
11188TIP3    H254980   5.620   5.651  16.464  0.1290 -1.5524  0.9509
11189TIP3   OH254981   1.423   2.558   0.503 -0.0700 -0.0570 -0.6425
11189TIP3    H154982   1.479   2.585   0.431  1.3527  0.3941  0.5935
11189TIP3    H254983   1.334   2.561   0.467  0.4687  1.5892 -1.9400
11190TIP3   OH254984   3.002   3.275  15.450  0.1415  0.2132  0.1797
11190TIP3    H154985   3.051   3.229  15.382  0.2791  1.7274 -0.7917
11190TIP3    H254986   3.030   3.366  15.443 -0.1031  0.4790  2.0522
11191TIP3   OH254987   4.838   1.726  15.561 -0.0369 -0.4191  0.4920
11191TIP3    H154988   4.869   1.737  15.651  0.3338  0.4877  0.2616
11191TIP3    H254989   4.898   1.663  15.523  1.4947  1.1994  0.0985
11192TIP3   OH254990   5.922   2.261  12.019 -0.1112  0.2091 -0.9213
11192TIP3    H154991   5.969   2.258  11.936  3.4870 -0.0771  0.9459
11192TIP3    H254992   5.934   2.174  12.057 -1.8167  0.2912 -0.1111
11193TIP3   OH254993   0.240   3.343   4.320  0.5995 -0.5592  0.0425
11193TIP3    H154994   0.168   3.401   4.346  0.2332  0.2047 -2.4113
11193TIP3    H254995   0.247   3.280   4.392 -0.7015  0.9668  1.6025
11194TIP3   OH254996   1.093   3.544   5.904  0.4911  0.3466 -0.6216
11194TIP3    H154997   1.149   3.545   5.982 -0.2583 -1.0003 -0.0274
11194TIP3    H254998   1.155   3.547   5.830  1.2383  0.9088  0.0067
11195TIP3   OH254999   1.680   3.111  15.891 -0.2379  0.1297  0.2051
11195TIP3    H155000   1.755   3.118  15.833  0.1502 -1.8854  0.3877
11195TIP3    H255001   1.718   3.103  15.979 -0.5122 -2.3447  0.1807
11196TIP3   OH255002   0.173   4.067   1.178  0.3035  0.3261 -0.0674
11196TIP3    H155003   0.096   4.077   1.121  0.5185  0.6247 -0.3117
11196TIP3    H255004   0.196   3.975   1.171 -0.6030  0.0258  0.7587
11197TIP3   OH255005   1.463   4.077   4.781  0.0707 -0.6605  0.4993
11197TIP3    H155006   1.465   4.078   4.686  0.3532 -0.2890  0.5084
11197TIP3    H255007   1.448   4.168   4.806  3.0761 -0.1609  0.8555
11198TIP3   OH255008   2.869   0.751  15.603 -0.0380  0.5279 -0.8192
11198TIP3    H155009   2.803   0.698  15.648  3.1728 -0.7957  2.9519
11198TIP3    H255010   2.833   0.839  15.603 -2.7676 -0.5049 -1.1629
11199TIP3   OH255011   3.681   6.375   3.656  0.1033  0.0429 -0.0736
11199TIP3    H155012   3.736   6.437   3.608  0.2996 -0.3898 -0.4120
11199TIP3    H255013   3.728   6.292   3.652 -0.9842 -0.5579 -1.1736
11200TIP3   OH255014   2.049   6.016  10.993  0.1278 -0.3534 -0.4164
11200TIP3    H155015   1.975   5.978  11.039  0.2995 -1.1218 -0.7535
11200TIP3    H255016   2.125   5.991  11.046  0.1962 -0.0318 -0.3614
11201TIP3   OH255017   1.608   3.972   0.045  0.1451  0.0785 -0.1880
11201TIP3    H155018   1.566   3.889   0.071 -0.1847  0.7477  1.6171
11201TIP3    H255019   1.535   4.028   0.020 -0.0124  0.8713  1.8475
11202TIP3   OH255020   1.570   3.244  12.496  0.3587  0.2507 -1.0543
11202TIP3    H155021   1.662   3.218  12.487  0.1762 -0.7120 -0.2988
11202TIP3    H255022   1.521   3.163  12.481 -0.4200  0.9173 -2.2527
11203TIP3   OH255023   5.809   5.988   5.710  0.1528  0.3498  0.1212
11203TIP3    H155024   5.897   5.987   5.671 -0.5090  1.4106 -1.4740
11203TIP3    H255025   5.757   6.042   5.651 -1.7559 -0.7813  0.6956
11204TIP3   OH255026   0.705   2.132  16.073  0.7039 -0.7729  0.1997
11204TIP3    H155027   0.766   2.143  16.000 -0.1228  0.9639 -0.2615
11204TIP3    H255028   0.621   2.164  16.040  0.1734 -0.5021  1.7224
11205TIP3   OH255029   3.827   3.895  14.663  0.5290  0.2068  0.2335
11205TIP3    H155030   3.873   3.823  14.620 -0.3854 -0.4782  0.3618
11205TIP3    H255031   3.834   3.876  14.756 -0.9193 -0.5131  0.2235
11206TIP3   OH255032   1.145   0.562   2.336 -0.2610  0.2944 -0.1046
11206TIP3    H155033   1.194   0.480   2.324  0.4803  0.7521 -0.3086
11206TIP3    H255034   1.203   0.629   2.299 -1.0881  0.8440 -0.4258
11207TIP3   OH255035   1.668   4.698  11.558  0.2356  0.0641 -0.0820
11207TIP3    H155036   1.595   4.702  11.620  1.0255 -0.6236  0.9292
11207TIP3    H255037   1.631   4.726  11.475 -0.7670  1.4045  0.7765
11208TIP3   OH255038   6.453   5.221  14.278  0.2685 -0.0556  0.3784
11208TIP3    H155039   6.488   5.280  14.345  0.9404 -1.0327  0.9249
11208TIP3    H255040   6.411   5.151  14.328  1.8522 -1.4461 -0.1367
11209TIP3   OH255041   3.071   4.153  11.652 -0.0697  0.0585 -0.2327
11209TIP3    H155042   3.076   4.142  11.557  0.9203  1.2804 -0.3420
11209TIP3    H255043   3.128   4.085  11.687  0.4908  0.3473 -0.5695
11210TIP3   OH255044   6.419   3.171   1.334  0.0995  0.1716 -0.4409
11210TIP3    H155045   6.456   3.083   1.328 -2.0728 -0.8236 -0.2144
11210TIP3    H255046   6.403   3.183   1.428  1.2698  1.2323 -0.3549
11211TIP3   OH255047   6.684   1.163   1.411 -0.2247 -0.0432 -0.5133
11211TIP3    H155048   6.606   1.219   1.415 -0.2520 -0.1627  1.9856
11211TIP3    H255049   6.757   1.223   1.424 -0.0306 -0.2077 -0.8385
11212TIP3   OH255050   5.167   0.603  14.891 -0.8452 -0.0218 -0.9436
11212TIP3    H155051   5.234   0.664  14.861 -0.8478  0.6855  0.4242
11212TIP3    H255052   5.170   0.609  14.986 -2.9698  0.1632 -0.8513
11213TIP3   OH255053   4.364   3.882  12.293 -0.1088 -0.3722 -0.2954
11213TIP3    H155054   4.287   3.857  12.242 -1.2207  0.6300  0.8063
11213TIP3    H255055   4.367   3.819  12.365 -2.1466  1.6705  1.7448
11214TIP3   OH255056   4.891   3.786   1.679  0.4594 -0.3504 -0.0093
11214TIP3    H155057   4.813   3.745   1.642  0.5838  0.6976 -1.5214
11214TIP3    H255058   4.910   3.735   1.758 -0.8133 -1.6148 -0.4804
11215TIP3   OH255059   3.040   3.904   2.281 -0.3642 -0.1597 -0.1586
11215TIP3    H155060   2.970   3.959   2.315  0.8217  0.0667  2.1143
11215TIP3    H255061   3.041   3.922   2.187 -2.3227  0.9705 -0.0239
11216TIP3   OH255062   5.640   5.306  12.791 -0.0779 -0.4079  0.5730
11216TIP3    H155063   5.547   5.305  12.767 -0.0581 -0.5162  0.4982
11216TIP3    H255064   5.679   5.368  12.730 -0.0565 -0.5566  0.4328
11217TIP3   OH255065   3.785   4.954   3.977  0.0079 -0.0655 -0.0764
11217TIP3    H155066   3.853   4.968   4.043 -0.4227 -0.6944  0.5068
11217TIP3    H255067   3.723   4.894   4.018 -1.1529  0.8456 -0.4278
11218TIP3   OH255068   4.048   5.677   0.181 -0.2032 -0.0270 -0.3222
11218TIP3    H155069   4.135   5.715   0.167  0.2296 -0.9109 -0.0996
11218TIP3    H255070   4.066   5.591   0.219 -1.1855 -0.1258 -0.0702
11219TIP3   OH255071   2.356   5.579  16.880 -0.7284  0.4591  0.5243
11219TIP3    H155072   2.335   5.651  16.939  1.4826  1.7762 -0.1945
11219TIP3    H255073   2.340   5.500  16.933  1.4950  1.5765  3.0928
11220TIP3   OH255074   2.534   2.704  16.681 -0.0939 -0.2343  0.2843
11220TIP3    H155075   2.538   2.686  16.775  0.8762  1.1594  0.5452
11220TIP3    H255076   2.618   2.746  16.661 -0.7361  0.5153 -0.9655
11221TIP3   OH255077   5.657   3.136   1.928  0.2219  0.1647  0.5399
11221TIP3    H155078   5.618   3.064   1.878  0.4635  0.2222  0.2669
11221TIP3    H255079   5.647   3.212   1.872 -0.4854  0.4573  1.0359
11222TIP3   OH255080   0.607   0.395   2.934  0.2990 -0.0732 -0.8542
11222TIP3    H155081   0.628   0.307   2.906  0.4068  0.1175 -1.3784
11222TIP3    H255082   0.542   0.426   2.872 -0.8203 -0.2961  0.1782
11223TIP3   OH255083   5.775   1.940  11.524  0.3685 -0.2612  0.3906
11223TIP3    H155084   5.689   1.904  11.499  0.4980  0.9374 -2.0975
11223TIP3    H255085   5.838   1.874  11.495  0.3462 -0.7139  1.3529
11224TIP3   OH255086   2.839   6.601  16.873  0.2521  0.6240  0.7352
11224TIP3    H155087   2.869   6.529  16.818 -0.9849  0.8005 -0.2127
11224TIP3    H255088   2.855   6.571  16.963 -0.4646 -0.9468  0.3740
11225TIP3   OH255089   4.480   1.112   0.709  0.4596 -0.0523  0.2455
11225TIP3    H155090   4.551   1.047   0.713 -0.4883 -1.1895 -0.7470
11225TIP3    H255091   4.500   1.173   0.780  2.7315 -0.0192 -0.3392
11226TIP3   OH255092   6.593   4.051  15.134 -0.2281 -0.1227 -0.3092
11226TIP3    H155093   6.564   4.135  15.099 -1.7701 -0.6516 -0.3701
11226TIP3    H255094   6.532   3.987  15.097  1.0717 -1.3134 -0.4616
11227TIP3   OH255095   1.252   6.252  16.762 -0.0365 -0.3948 -0.0627
11227TIP3    H155096   1.290   6.229  16.677 -0.2772  2.4687 -1.0680
11227TIP3    H255097   1.328   6.274  16.816  0.0020  0.8747 -0.6005
11228TIP3   OH255098   2.305   5.342  13.176 -0.3953  0.5740 -0.1064
11228TIP3    H155099   2.397   5.342  13.150 -0.5915  3.0380 -1.0121
11228TIP3    H255100   2.306   5.361  13.269  0.0484 -1.6221  0.3868
11229TIP3   OH255101   5.807   4.235  12.590  1.0357 -0.4486 -0.1725
11229TIP3    H155102   5.756   4.235  12.509  1.0684 -1.6167 -0.2118
11229TIP3    H255103   5.823   4.142  12.608  2.1013 -0.1514  0.4946
11230TIP3   OH255104   3.248   5.810  13.725  0.5342  0.1948  0.2992
11230TIP3    H155105   3.344   5.802  13.724  0.7291  2.0461 -0.5462
11230TIP3    H255106   3.232   5.895  13.766 -0.7161  0.0914  0.0521
11231TIP3   OH255107   3.267   4.443   5.945  0.0753  0.0655  0.1745
11231TIP3    H155108   3.238   4.360   5.906  0.1945 -0.3887  1.0190
11231TIP3    H255109   3.362   4.438   5.944  0.0953  0.4344 -0.2531
11232TIP3   OH255110   6.376   0.906   2.068  0.0393 -0.0389 -0.4146
11232TIP3    H155111   6.380   0.904   2.164 -1.5986  1.5761 -0.2806
11232TIP3    H255112   6.288   0.874   2.047  0.2007  0.1181 -1.3652
11233TIP3   OH255113   6.640   5.180  16.603 -0.2632 -0.4681  0.2801
11233TIP3    H155114   6.674   5.234  16.674  0.3112 -0.1962 -0.1895
11233TIP3    H255115   6.617   5.243  16.534 -1.8893 -0.6307  0.6488
11234TIP3   OH255116   2.431   2.898  10.835  0.1822 -0.2349  0.4733
11234TIP3    H155117   2.350   2.908  10.785  0.5695  3.8253  0.3344
11234TIP3    H255118   2.476   2.824  10.793 -1.3351  0.4034 -2.5535
11235TIP3   OH255119   0.814   1.590  15.809 -0.3982  0.4422 -0.0618
11235TIP3    H155120   0.868   1.540  15.870 -0.6962  1.1286  0.7843
11235TIP3    H255121   0.769   1.654  15.864 -2.4320 -0.3882 -0.6803
11236TIP3   OH255122   4.824   4.436   0.916 -0.4888 -0.2722  0.5016
11236TIP3    H155123   4.781   4.490   0.849  0.3527  1.1081  1.0330
11236TIP3    H255124   4.812   4.346   0.886 -2.3030  0.1664 -0.1992
11237TIP3   OH255125   3.276   5.354  10.687  0.3967  0.2412  0.1111
11237TIP3    H155126   3.238   5.279  10.732  1.9684 -0.4463  0.3804
11237TIP3    H255127   3.202   5.410  10.665 -1.0606 -2.1147 -1.4678
11238TIP3   OH255128   6.009   4.987  15.836  0.7885 -0.0435  0.1333
11238TIP3    H155129   6.064   5.008  15.760 -0.9086  0.1882 -1.0941
11238TIP3    H255130   5.999   4.891  15.833 -1.5872  0.1492 -1.7432
11239TIP3   OH255131   4.296   1.880  15.298  0.1292 -0.1862  0.1687
11239TIP3    H155132   4.224   1.817  15.296 -0.7347  0.7445  1.1841
11239TIP3    H255133   4.322   1.884  15.390 -0.4351  1.6017  0.2888
11240TIP3   OH255134   3.787   0.436  11.419  0.4607 -0.3795  0.1447
11240TIP3    H155135   3.716   0.498  11.405  1.1134 -0.0147 -1.9425
11240TIP3    H255136   3.769   0.364  11.358  0.8081 -1.2752  1.0590
11241TIP3   OH255137   4.163   4.071  13.362 -0.3901  0.9174 -0.2519
11241TIP3    H155138   4.170   3.977  13.378  0.8609  1.0014 -0.1630
11241TIP3    H255139   4.176   4.111  13.448 -0.3323  1.1818 -0.3808
11242TIP3   OH255140   6.402   2.027  12.859 -0.4890  0.5043 -0.2765
11242TIP3    H155141   6.477   2.068  12.902  1.2192 -1.2421 -1.3987
11242TIP3    H255142   6.350   1.990  12.930 -1.8941  4.0377  0.7569
11243TIP3   OH255143   2.665   0.599   0.076  0.2609 -0.1502 -0.3813
11243TIP3    H155144   2.587   0.543   0.075 -0.3258  0.6142  0.6040
11243TIP3    H255145   2.736   0.541   0.051 -0.4365 -1.1772 -0.0551
11244TIP3   OH255146   3.902   5.250  11.639  0.5150 -0.6448 -0.1264
11244TIP3    H155147   3.852   5.273  11.717  1.4254  0.4823  0.1475
11244TIP3    H255148   3.909   5.332  11.590  1.7124 -0.8867 -0.3803
11245TIP3   OH255149   2.195   0.238   4.418 -0.1321 -0.1373  0.6121
11245TIP3    H155150   2.187   0.197   4.504  0.8180 -1.6194  0.0357
11245TIP3    H255151   2.108   0.272   4.400 -0.8556 -1.5047  1.3462
11246TIP3   OH255152   6.028   5.000   0.640 -0.1480 -0.5005  0.5902
11246TIP3    H155153   6.076   4.959   0.713  0.9061 -0.8633 -0.2762
11246TIP3    H255154   5.961   4.936   0.616 -0.3116 -0.5044  1.0440
11247TIP3   OH255155   1.913   5.038   4.262 -0.1797 -0.4739 -0.2077
11247TIP3    H155156   1.994   5.078   4.230  0.3521  0.2577  1.8583
11247TIP3    H255157   1.846   5.068   4.201  0.9345 -0.2271 -1.3566
11248TIP3   OH255158   1.598   5.375  12.687 -0.3348  0.0181  0.8315
11248TIP3    H155159   1.654   5.362  12.763  1.6433  1.6496 -0.2447
11248TIP3    H255160   1.592   5.288  12.646  0.9990 -0.2834  1.2443
11249TIP3   OH255161   3.148   3.600  13.463 -0.3181 -0.1974 -0.6336
11249TIP3    H155162   3.144   3.677  13.406  0.6293 -1.0242 -1.8836
11249TIP3    H255163   3.229   3.555  13.436 -0.3880 -1.1547  0.6799
11250TIP3   OH255164   3.429   6.459  16.836  0.2613 -0.0805 -0.5441
11250TIP3    H155165   3.405   6.395  16.769  0.3014  0.6647 -1.2830
11250TIP3    H255166   3.471   6.530  16.788 -1.8543  1.5927 -0.0900
11251TIP3   OH255167   0.358   4.395   6.440  0.2285  0.0536  0.2110
11251TIP3    H155168   0.280   4.428   6.484 -0.5382  0.4058 -1.3458
11251TIP3    H255169   0.363   4.303   6.465 -1.5534 -0.3649 -0.8080
11252TIP3   OH255170   2.202   6.143  13.241  0.5711  0.0888  0.1015
11252TIP3    H155171   2.157   6.172  13.320  0.0359 -0.2739 -0.0705
11252TIP3    H255172   2.253   6.219  13.213  0.2280  0.4313  0.4102
11253TIP3   OH255173   4.069   4.693  16.007  0.2172 -0.2010  0.4212
11253TIP3    H155174   3.974   4.703  16.012 -0.0567  1.0167 -3.6417
11253TIP3    H255175   4.100   4.777  15.973  2.5421 -1.1571  0.0165
11254TIP3   OH255176   0.373   2.024  12.146 -0.9020 -0.5887 -0.3069
11254TIP3    H155177   0.449   2.063  12.188 -2.2095  3.8141 -1.4809
11254TIP3    H255178   0.298   2.056  12.197 -2.1990 -0.1026 -2.4082
11255TIP3   OH255179   0.793   4.668   5.975  0.1405 -0.0480  0.1167
11255TIP3    H155180   0.884   4.688   5.995 -0.0844  0.2060  0.9023
11255TIP3    H255181   0.748   4.669   6.060 -0.0853 -2.8523  0.1226
11256TIP3   OH255182   5.798   3.049   5.173  0.3235  0.4837  0.2771
11256TIP3    H155183   5.875   2.997   5.197  0.1538 -0.9275 -1.9174
11256TIP3    H255184   5.732   3.026   5.238  1.2140  0.3443  1.1499
11257TIP3   OH255185   3.499   3.494   3.300 -0.9029 -0.1991 -0.6608
11257TIP3    H155186   3.520   3.580   3.263 -3.2470  0.5686 -0.3714
11257TIP3    H255187   3.408   3.480   3.276 -1.1937 -1.6684  1.1131
11258TIP3   OH255188   6.335   5.503  12.121 -0.3172 -0.2166 -0.2933
11258TIP3    H155189   6.398   5.437  12.150  0.3276  0.4448 -0.1353
11258TIP3    H255190   6.289   5.530  12.200 -1.4169 -1.3090 -0.5396
11259TIP3   OH255191   3.294   1.262   1.517 -0.1464 -0.1014  0.0963
11259TIP3    H155192   3.217   1.206   1.505  0.6100 -0.6864 -3.4720
11259TIP3    H255193   3.263   1.351   1.498 -0.4707  0.0715  1.4021
11260TIP3   OH255194   4.580   1.730  15.360  0.0324  0.3100  0.0661
11260TIP3    H155195   4.650   1.792  15.339  0.1983 -0.1406 -0.7193
11260TIP3    H255196   4.519   1.737  15.287  1.0467 -1.9189 -1.0822
11261TIP3   OH255197   4.834   3.692  16.619 -0.2311  0.3130 -0.4592
11261TIP3    H155198   4.918   3.648  16.622 -0.3796 -0.0800 -1.4849
11261TIP3    H255199   4.824   3.718  16.527 -0.8021  1.1929 -0.1656
11262TIP3   OH255200   2.248   4.162   1.593 -0.4412  0.2225  0.1764
11262TIP3    H155201   2.171   4.108   1.575 -1.0956  1.3885 -0.7282
11262TIP3    H255202   2.213   4.251   1.599  0.6528  0.6016  1.2496
11263TIP3   OH255203   6.033   5.217  16.064  0.1964  0.1812 -0.2810
11263TIP3    H155204   6.044   5.122  16.073  0.5873  0.2326 -0.1841
11263TIP3    H255205   6.116   5.254  16.095 -0.4774  0.6230  1.0631
11264TIP3   OH255206   0.599   2.733  10.545  0.1463  0.0927  0.2378
11264TIP3    H155207   0.580   2.641  10.522  0.8897 -0.1329  0.4989
11264TIP3    H255208   0.691   2.745  10.521 -0.3109  1.1829 -1.0946
11265TIP3   OH255209   3.589   6.578   5.285 -0.0893 -0.3560 -1.0176
11265TIP3    H155210   3.602   6.483   5.281 -0.5960 -0.4448 -0.5614
11265TIP3    H255211   3.496   6.589   5.304 -0.1523  0.2465 -1.6452
11266TIP3   OH255212   1.338   5.159   6.294 -0.0941  0.6724  0.6723
11266TIP3    H155213   1.256   5.115   6.271 -0.1613 -0.0435  2.1648
11266TIP3    H255214   1.329   5.246   6.255 -0.2174 -0.3642 -1.8217
11267TIP3   OH255215   2.436   5.411   6.898 -0.1058  0.2117  0.3260
11267TIP3    H155216   2.493   5.455   6.836  0.4541  0.1605  0.7867
11267TIP3    H255217   2.394   5.341   6.848 -1.8694  1.9273 -0.6852
11268TIP3   OH255218   5.836   0.456  14.377  0.7342 -0.0579 -0.5912
11268TIP3    H155219   5.749   0.427  14.406 -0.2077  1.9039 -1.2590
11268TIP3    H255220   5.891   0.378  14.387 -1.1381 -1.4541 -0.3658
11269TIP3   OH255221   5.353   2.476   2.400 -0.1965 -0.0548  0.0832
11269TIP3    H155222   5.377   2.514   2.485  1.6054  1.4712 -1.0251
11269TIP3    H255223   5.276   2.526   2.373  1.0467  1.6549 -0.5066
11270TIP3   OH255224   3.346   5.262  13.473 -0.3529  0.2762 -0.3972
11270TIP3    H155225   3.348   5.186  13.415 -1.8261 -1.2459  1.3678
11270TIP3    H255226   3.270   5.313  13.444 -1.0429 -0.4418  0.0812
11271TIP3   OH255227   0.332   4.132  14.938 -0.2269  0.0673 -0.4938
11271TIP3    H155228   0.286   4.051  14.917  0.2221 -0.2977 -0.0979
11271TIP3    H255229   0.342   4.130  15.033 -0.6878  0.8508 -0.4156
11272TIP3   OH255230   5.395   0.882   3.384 -0.0009 -0.4958  0.1214
11272TIP3    H155231   5.461   0.898   3.451 -0.6735 -0.1226  0.7111
11272TIP3    H255232   5.413   0.947   3.316  0.5198 -0.6999  0.0647
11273TIP3   OH255233   0.572   3.238   5.559  0.2130  0.4778  0.4044
11273TIP3    H155234   0.485   3.213   5.589  0.5149 -0.5315  0.4788
11273TIP3    H255235   0.564   3.331   5.537 -0.6155  0.6451  1.3478
11274TIP3   OH255236   4.050   3.151  16.066 -0.0299  0.1113  0.4986
11274TIP3    H155237   4.103   3.151  15.987  0.5835  0.2027  0.9060
11274TIP3    H255238   4.112   3.165  16.137 -0.6143  0.3597  0.9733
11275TIP3   OH255239   2.266   5.539  11.937 -0.8738  0.0068 -1.0393
11275TIP3    H155240   2.178   5.564  11.908 -0.0155  2.2932 -1.9714
11275TIP3    H255241   2.303   5.492  11.862 -1.3240 -1.0898 -0.5898
11276TIP3   OH255242   3.923   2.117  14.735 -0.3559 -0.3633 -0.9586
11276TIP3    H155243   3.935   2.196  14.788 -0.8259 -0.2693 -0.9905
11276TIP3    H255244   3.834   2.125  14.700 -0.0978 -0.4973 -1.6414
11277TIP3   OH255245   1.231   1.343  15.923  0.0379  0.1737  0.2431
11277TIP3    H155246   1.225   1.433  15.889 -0.4449 -0.3054 -1.0067
11277TIP3    H255247   1.142   1.321  15.949  0.7179  1.3223  4.1630
11278TIP3   OH255248   4.033   3.359  12.812  0.0043 -0.6704  0.5209
11278TIP3    H155249   3.993   3.283  12.855  0.3820 -2.6884 -2.3946
11278TIP3    H255250   4.127   3.345  12.822  0.0963 -1.1015 -0.7281
11279TIP3   OH255251   6.443   6.702   3.557 -0.1501  0.1137 -0.3456
11279TIP3    H155252   6.498   6.747   3.492 -0.0849 -1.7108 -1.6162
11279TIP3    H255253   6.373   6.663   3.506 -1.4820  0.6495  1.0131
11280TIP3   OH255254   0.007   4.168   5.334 -0.3917  0.0033  0.0937
11280TIP3    H155255   0.084   4.185   5.279 -0.1081 -2.9111 -0.5823
11280TIP3    H255256   0.042   4.162   5.423 -0.1050  0.2686  0.0014
11281TIP3   OH255257   6.078   5.463  12.216  0.1991 -0.1631 -0.2796
11281TIP3    H155258   6.036   5.548  12.232  1.5181  0.8677 -1.8870
11281TIP3    H255259   6.077   5.454  12.121  2.7715 -0.4643 -0.3473
11282TIP3   OH255260   0.550   4.081  13.082  0.4999 -0.0794  0.1605
11282TIP3    H155261   0.625   4.052  13.031  0.1152  0.4348 -0.7407
11282TIP3    H255262   0.479   4.089  13.017  0.1202  1.0458  0.6916
11283TIP3   OH255263   2.631   4.939  10.726  0.0104  0.1818 -0.2034
11283TIP3    H155264   2.587   4.966  10.807  0.6984 -0.7136  0.4971
11283TIP3    H255265   2.561   4.901  10.673 -0.8599  2.7152 -0.9755
11284TIP3   OH255266   1.091   0.118  16.715 -0.1594 -0.2479  0.2733
11284TIP3    H155267   1.034   0.072  16.777 -0.5943  0.0020  0.0579
11284TIP3    H255268   1.039   0.192  16.684 -0.1350 -0.6787 -0.8083
11285TIP3   OH255269   4.153   2.223  13.721 -0.6531  0.2140  0.2429
11285TIP3    H155270   4.187   2.301  13.677  0.6403 -1.0685 -1.1661
11285TIP3    H255271   4.095   2.257  13.789 -1.5356  2.3561 -1.4474
11286TIP3   OH255272   3.655   1.493   3.409  0.0521  0.5195 -0.2060
11286TIP3    H155273   3.574   1.478   3.457 -0.5710  1.4606 -0.9283
11286TIP3    H255274   3.703   1.556   3.462 -0.5801  1.4652 -0.7254
11287TIP3   OH255275   2.722   3.850   3.597  0.0550  0.2224 -0.0047
11287TIP3    H155276   2.632   3.832   3.569 -1.5189  2.8985  2.7531
11287TIP3    H255277   2.754   3.916   3.535 -0.1882 -0.0652 -0.4454
11288TIP3   OH255278   0.383   5.087   5.357  0.5038 -0.2457  0.0685
11288TIP3    H155279   0.469   5.049   5.341  0.4073 -0.4880  0.1134
11288TIP3    H255280   0.353   5.115   5.270  1.0601  0.7908  0.1988
11289TIP3   OH255281   1.843   0.792  12.210 -0.0435 -0.9234 -0.3213
11289TIP3    H155282   1.923   0.837  12.237  0.9626 -2.7976  0.0040
11289TIP3    H255283   1.820   0.832  12.126  0.1371  0.9212  0.4501
11290TIP3   OH255284   5.869   1.060  12.892 -0.0608 -0.5896 -0.3990
11290TIP3    H155285   5.861   1.027  12.803 -0.7061 -0.2387 -0.4749
11290TIP3    H255286   5.783   1.098  12.912  0.2895 -0.0419  0.1179
11291TIP3   OH255287   0.468   0.188  14.733  0.3022  0.2371 -0.6158
11291TIP3    H155288   0.486   0.185  14.639  0.3701  0.8812 -0.6218
11291TIP3    H255289   0.393   0.246  14.742  1.1357  1.2698 -0.1498
11292TIP3   OH255290   3.627   0.400  12.935 -0.0442 -0.1632  0.3802
11292TIP3    H155291   3.669   0.334  12.880  1.3489  2.0234 -1.3444
11292TIP3    H255292   3.533   0.385  12.923  0.2352 -1.5255 -0.3059
11293TIP3   OH255293   5.387   5.981  16.038 -0.0221  0.1862  0.2934
11293TIP3    H155294   5.403   6.073  16.056 -0.4945  0.7992 -2.0331
11293TIP3    H255295   5.292   5.975  16.026 -0.3607 -1.1848  3.0357
11294TIP3   OH255296   5.356   1.343   3.606  0.4136 -0.3375  0.7344
11294TIP3    H155297   5.340   1.437   3.599  1.1678 -0.3149 -2.0232
11294TIP3    H255298   5.291   1.303   3.548  1.1620 -1.3650  0.5655
11295TIP3   OH255299   2.099   5.955   0.052  0.0338  0.7962  0.2762
11295TIP3    H155300   2.133   5.924   0.136 -0.2194 -1.2746 -0.3216
11295TIP3    H255301   2.169   6.011   0.017  1.7025 -1.1433  0.3121
11296TIP3   OH255302   6.584   4.793  12.365  0.0228  0.6236 -0.3009
11296TIP3    H155303   6.607   4.700  12.360  0.8323  0.6122  2.4201
11296TIP3    H255304   6.517   4.804  12.297  1.5355 -1.3732 -2.2875
11297TIP3   OH255305   5.567   3.621   0.274 -0.2057 -0.9918  0.3598
11297TIP3    H155306   5.498   3.570   0.316  0.1127 -1.2607  0.5609
11297TIP3    H255307   5.582   3.695   0.333 -1.9018  0.3435 -0.7763
11298TIP3   OH255308   6.109   2.928   3.197  0.5518  0.3360 -0.4262
11298TIP3    H155309   6.073   2.998   3.252 -1.2199 -0.0710 -1.0048
11298TIP3    H255310   6.149   2.868   3.260 -0.2530  0.5563  0.3300
11299TIP3   OH255311   1.751   3.563   5.953  0.2540  0.7326 -0.5292
11299TIP3    H155312   1.835   3.607   5.966  0.4749  0.2070 -0.1508
11299TIP3    H255313   1.706   3.571   6.037 -0.8224  2.5352 -1.2320
11300TIP3   OH255314   3.965   4.958  15.522 -0.5259  0.0495  0.1938
11300TIP3    H155315   3.974   5.014  15.445 -0.6087 -0.7186 -0.3920
11300TIP3    H255316   3.943   5.018  15.593 -1.4122  0.6813 -0.5781
11301TIP3   OH255317   4.500   2.163   4.773  0.2309 -0.1303  0.3344
11301TIP3    H155318   4.512   2.162   4.868 -1.1085 -0.8052  0.5245
11301TIP3    H255319   4.422   2.110   4.758  1.2211 -1.2213 -1.2764
11302TIP3   OH255320   1.384   5.283   5.855 -0.0839 -0.7622  0.2061
11302TIP3    H155321   1.397   5.252   5.766 -0.6013  0.8655 -0.4682
11302TIP3    H255322   1.427   5.217   5.910  1.9066 -0.8359 -1.3297
11303TIP3   OH255323   5.328   6.725   4.630 -0.3049 -0.2588  0.5026
11303TIP3    H155324   5.299   6.812   4.603  1.5780  1.0621  2.4238
11303TIP3    H255325   5.253   6.669   4.612 -1.0672  1.4183 -2.1888
11304TIP3   OH255326   0.505   1.746   2.475 -0.1514  0.1373 -0.4797
11304TIP3    H155327   0.466   1.666   2.509  1.6843 -0.2519  0.8789
11304TIP3    H255328   0.585   1.717   2.431  0.9664  1.2453  0.7327
11305TIP3   OH255329   3.276   6.203  11.254 -0.4932  0.0400 -0.1059
11305TIP3    H155330   3.248   6.234  11.167  1.7094  0.8537 -0.5738
11305TIP3    H255331   3.293   6.109  11.240  0.8729  0.3708 -0.8765
11306TIP3   OH255332   2.922   2.823   1.225 -0.0062 -0.0883  0.2501
11306TIP3    H155333   2.905   2.864   1.140 -1.9554  0.6124  0.9208
11306TIP3    H255334   2.924   2.729   1.206  1.4833  0.1187 -0.8279
11307TIP3   OH255335   3.400   1.150  13.208 -0.0863  0.4107 -0.8768
11307TIP3    H155336   3.449   1.219  13.163 -0.2508  1.6467  0.7280
11307TIP3    H255337   3.315   1.189  13.227  0.0156 -0.0061  0.5626
11308TIP3   OH255338   3.221   5.317   3.615 -0.1377 -0.0097 -0.3057
11308TIP3    H155339   3.218   5.372   3.537 -0.8101 -0.8806 -0.8971
11308TIP3    H255340   3.178   5.236   3.590 -0.6736 -0.1769  1.0778
11309TIP3   OH255341   2.506   5.126  13.976  0.0352 -0.4035  0.4963
11309TIP3    H155342   2.532   5.147  13.886  0.9640 -1.8869  0.3673
11309TIP3    H255343   2.486   5.032  13.973 -2.1586 -0.0172  1.3676
11310TIP3   OH255344   2.179   5.022  14.780 -0.5385  0.1712 -0.1379
11310TIP3    H155345   2.160   5.078  14.704 -1.7093 -2.4191 -1.8908
11310TIP3    H255346   2.092   4.999  14.814 -0.2120 -2.2064 -0.7789
11311TIP3   OH255347   1.219   3.278   1.563 -0.1907  0.3656  0.3784
11311TIP3    H155348   1.259   3.359   1.532  0.5581 -0.8781 -2.1316
11311TIP3    H255349   1.175   3.241   1.486  0.2696 -2.0535  1.1773
11312TIP3   OH255350   6.381   6.727  12.596 -0.5183  1.0422  0.3363
11312TIP3    H155351   6.425   6.763  12.519 -1.7403 -0.3406 -1.0864
11312TIP3    H255352   6.405   6.786  12.667  2.3577  1.2152 -0.6346
11313TIP3   OH255353   0.962   1.064   3.652  0.3043  0.1344 -0.2916
11313TIP3    H155354   0.872   1.091   3.636 -0.2907 -1.4978  0.1034
11313TIP3    H255355   0.962   1.033   3.743  1.4078  0.6720 -0.0898
11314TIP3   OH255356   2.440   4.942   0.531 -0.2861 -0.6218 -0.1671
11314TIP3    H155357   2.356   4.965   0.571  0.2143  0.9350  0.0696
11314TIP3    H255358   2.417   4.917   0.442 -1.0522 -0.6781  0.0321
11315TIP3   OH255359   1.455   1.096   4.267  0.6545 -0.3025  0.5052
11315TIP3    H155360   1.444   1.171   4.209 -1.7237 -0.2874  0.8769
11315TIP3    H255361   1.440   1.019   4.211  4.0048 -0.6664 -0.0943
11316TIP3   OH255362   5.179   2.512   1.533  0.1757  0.3342 -0.3049
11316TIP3    H155363   5.235   2.449   1.488  0.0799  0.7526 -1.0177
11316TIP3    H255364   5.090   2.488   1.508 -0.1048 -1.1295  1.8294
11317TIP3   OH255365   0.987   3.347   0.352  0.1812 -0.3501  0.2346
11317TIP3    H155366   0.999   3.428   0.401  0.3317  1.2151 -2.1823
11317TIP3    H255367   1.035   3.362   0.270  0.8487 -3.2103  0.0223
11318TIP3   OH255368   6.504   3.968   4.451  0.4867  0.4988  0.2857
11318TIP3    H155369   6.583   3.962   4.505  1.1472 -0.2794 -0.7489
11318TIP3    H255370   6.532   4.014   4.372 -1.0857  4.2597  1.6709
11319TIP3   OH255371   0.909   6.639   1.131 -0.5400  0.5418  0.1430
11319TIP3    H155372   0.874   6.650   1.219 -0.6334  1.6429 -0.0076
11319TIP3    H255373   0.932   6.547   1.125  2.1727  0.9439  2.3309
11320TIP3   OH255374   2.579   5.578   4.981  0.5997 -0.5114 -0.0874
11320TIP3    H155375   2.534   5.662   4.971 -0.4447 -0.5554  2.9687
11320TIP3    H255376   2.669   5.602   5.005  1.0671 -0.3694 -1.8421
11321TIP3   OH255377   3.656   0.080   0.183 -0.3495  0.8272  0.1376
11321TIP3    H155378   3.654   0.093   0.277 -2.5758  1.4544  0.0571
11321TIP3    H255379   3.638  -0.013   0.170  0.9269  0.5361  0.3228
11322TIP3   OH255380   6.727   5.977   1.756  0.2677  0.0769  0.7337
11322TIP3    H155381   6.634   5.963   1.773 -0.5179  1.6150 -1.8388
11322TIP3    H255382   6.763   5.889   1.744 -1.9714 -0.5446 -3.1294
11323TIP3   OH255383   5.266   4.579  16.330 -0.1596  0.1152 -0.2251
11323TIP3    H155384   5.353   4.547  16.354  0.9056  1.4243 -1.9789
11323TIP3    H255385   5.249   4.540  16.244 -0.4119  1.3545 -0.7686
11324TIP3   OH255386   0.718   1.622   0.422 -0.3610 -0.0101  0.6493
11324TIP3    H155387   0.811   1.622   0.447 -0.0113  0.5177 -0.5736
11324TIP3    H255388   0.674   1.670   0.492  0.7140  2.2721 -0.1288
11325TIP3   OH255389   2.703   3.672   4.833 -0.5602 -0.3621 -0.0731
11325TIP3    H155390   2.686   3.579   4.848  0.1583 -0.3434  0.9927
11325TIP3    H255391   2.627   3.717   4.871 -1.1105 -0.5193 -0.9665
11326TIP3   OH255392   0.084   0.021  14.691  0.0903  0.1898  0.4545
11326TIP3    H155393   0.163  -0.023  14.660  0.2630  1.6325 -1.2652
11326TIP3    H255394   0.012  -0.036  14.663  0.3037  0.9546 -1.8824
11327TIP3   OH255395   1.810   2.701  14.883  0.2777 -0.7992  0.1473
11327TIP3    H155396   1.893   2.728  14.844 -0.2196 -0.5367 -0.7546
11327TIP3    H255397   1.820   2.607  14.899  0.5280 -0.8937 -0.5359
11328TIP3   OH255398   1.759   0.685  13.308 -0.8101 -0.3752 -0.2365
11328TIP3    H155399   1.735   0.619  13.244 -1.0400 -0.1442 -0.3887
11328TIP3    H255400   1.855   0.679  13.314 -0.9341 -1.7356  0.8488
11329TIP3   OH255401   2.707   6.399   4.747  0.4958  0.2790  0.1593
11329TIP3    H155402   2.724   6.310   4.716 -2.3560  0.1911 -1.5396
11329TIP3    H255403   2.676   6.387   4.837  0.4952 -0.3950  0.0761
11330TIP3   OH255404   5.208   2.802   5.364  0.0322 -0.0045 -0.8592
11330TIP3    H155405   5.199   2.850   5.447  0.7046 -0.1273 -0.7039
11330TIP3    H255406   5.132   2.744   5.361  0.8727 -1.2597  0.5296
11331TIP3   OH255407   3.820   5.227  13.327  0.2652 -0.5721 -0.7302
11331TIP3    H155408   3.831   5.134  13.346 -0.4194 -0.3654  0.7403
11331TIP3    H255409   3.756   5.258  13.391  2.0755  1.3802  0.2523
11332TIP3   OH255410   2.602   5.521   5.968 -0.9060  0.0936  0.1350
11332TIP3    H155411   2.620   5.554   6.056 -0.1397  0.0564 -0.0016
11332TIP3    H255412   2.580   5.428   5.981 -1.4411  0.2449  0.3469
11333TIP3   OH255413   1.908   3.457  16.861  0.0955  0.9356  0.3493
11333TIP3    H155414   1.999   3.487  16.861 -0.1153  1.5970  0.1454
11333TIP3    H255415   1.896   3.416  16.946  0.7327  0.3799  0.1810
11334TIP3   OH255416   3.777   0.234  11.910  0.5540 -0.3145 -0.6054
11334TIP3    H155417   3.682   0.232  11.909  0.4722 -3.5037  0.8561
11334TIP3    H255418   3.802   0.182  11.986  3.4835 -0.0191 -1.2137
11335TIP3   OH255419   1.907   2.474  15.704  0.0256 -0.3823 -0.4655
11335TIP3    H155420   1.873   2.536  15.639  0.9816  0.9495  0.2431
11335TIP3    H255421   2.002   2.486  15.700  0.1412 -0.7967  0.6712
11336TIP3   OH255422   0.272   3.328   5.966  0.0365 -0.0247 -0.3497
11336TIP3    H155423   0.207   3.351   6.033  0.0356 -2.4269  0.5811
11336TIP3    H255424   0.231   3.353   5.883 -0.7875  1.2208  0.3835
11337TIP3   OH255425   0.293   3.899   4.338  0.5368  0.4284 -0.2246
11337TIP3    H155426   0.301   3.810   4.372  1.1088  0.2762 -0.7452
11337TIP3    H255427   0.289   3.954   4.416  0.7011 -0.0129  0.0980
11338TIP3   OH255428   3.817   5.257   2.737 -0.5708  0.1460 -0.2936
11338TIP3    H155429   3.743   5.298   2.781  1.0869  0.2916  2.6620
11338TIP3    H255430   3.875   5.329   2.714 -0.1470 -0.1317 -0.1172
11339TIP3   OH255431   1.710   2.075   3.718 -0.1639  0.4540  0.1179
11339TIP3    H155432   1.784   2.119   3.676 -1.3870  1.1275 -1.4424
11339TIP3    H255433   1.702   1.991   3.672 -0.1797  0.2363  0.5066
11340TIP3   OH255434   0.814   1.270  16.207  0.3536 -0.0666 -0.1475
11340TIP3    H155435   0.760   1.251  16.283 -2.1050 -0.1814 -1.8191
11340TIP3    H255436   0.834   1.364  16.215  1.2219 -0.3422  1.2459
11341TIP3   OH255437   4.830   1.106  15.647 -0.5066  0.1304 -0.0138
11341TIP3    H155438   4.903   1.074  15.595  0.1009 -1.5851  1.7973
11341TIP3    H255439   4.806   1.189  15.606  1.7673  0.2303 -1.2734
11342TIP3   OH255440   6.330   5.707  14.748 -0.0430 -0.2601 -0.1118
11342TIP3    H155441   6.393   5.636  14.737 -1.1649 -1.2287 -0.5323
11342TIP3    H255442   6.350   5.768  14.677  0.2869 -0.6677 -0.3762
11343TIP3   OH255443   1.525   4.203   1.144 -0.3827 -0.1238  0.1803
11343TIP3    H155444   1.485   4.278   1.187 -0.1546  0.1584 -0.0891
11343TIP3    H255445   1.454   4.141   1.130 -0.4319 -0.2838  1.0932
11344TIP3   OH255446   2.551   6.027   1.370  0.2312 -0.7625 -0.1888
11344TIP3    H155447   2.604   6.042   1.291 -2.1169  1.7252 -1.4711
11344TIP3    H255448   2.465   6.002   1.336 -0.1839 -2.1052  1.7215
11345TIP3   OH255449   3.922   5.595   0.560  0.3570  0.1471 -0.0936
11345TIP3    H155450   3.973   5.669   0.593  0.8297  0.7745 -2.0813
11345TIP3    H255451   3.982   5.520   0.567  1.3541  0.7331 -1.6736
11346TIP3   OH255452   2.428   3.275  10.857 -0.2597  0.5666  0.2313
11346TIP3    H155453   2.522   3.265  10.872 -0.4222 -0.8604  0.3590
11346TIP3    H255454   2.408   3.214  10.787 -1.2432  0.2256  0.7941
11347TIP3   OH255455   2.582   1.296   2.844  0.3069 -0.5641 -0.0989
11347TIP3    H155456   2.540   1.378   2.869 -2.1005 -1.7682  0.1400
11347TIP3    H255457   2.676   1.313   2.853 -0.1409  1.8302  0.8670
11348TIP3   OH255458   4.714   6.547   0.450  0.0720  0.4839 -0.5301
11348TIP3    H155459   4.770   6.512   0.381  2.3088  1.5018  0.6859
11348TIP3    H255460   4.768   6.612   0.495 -0.1566 -2.0408  3.9925
11349TIP3   OH255461   0.996   5.600   5.639  0.2350 -0.0380  0.8070
11349TIP3    H155462   1.016   5.554   5.557 -0.1933  1.1624  0.0061
11349TIP3    H255463   0.924   5.550   5.677  0.1685 -0.3804  0.2531
11350TIP3   OH255464   1.086   6.748   1.925 -0.4622 -0.1178  0.0070
11350TIP3    H155465   1.133   6.798   1.859  0.0513  0.1929  0.5906
11350TIP3    H255466   1.001   6.792   1.934  0.4269  1.4492  1.3825
11351TIP3   OH255467   1.569   6.639   0.966 -0.5251  0.5047  0.1186
11351TIP3    H155468   1.572   6.668   1.057 -2.1254 -0.7575  0.6110
11351TIP3    H255469   1.478   6.612   0.952  0.2945 -1.9027 -1.0287
11352TIP3   OH255470   2.043   2.076   2.157 -0.0448 -0.1739  0.0795
11352TIP3    H155471   2.131   2.038   2.155  0.1162  0.2099 -0.1701
11352TIP3    H255472   2.038   2.117   2.244  0.3623  0.5881 -0.2450
11353TIP3   OH255473   2.996   3.366  11.798 -0.3830  0.3640  0.3606
11353TIP3    H155474   3.076   3.378  11.850  0.5206  0.4111 -0.9798
11353TIP3    H255475   3.003   3.276  11.765 -0.5003  0.6250 -0.3788
11354TIP3   OH255476   0.712   5.266  14.387 -0.0083 -0.4369 -0.2504
11354TIP3    H155477   0.784   5.244  14.329 -1.1454 -2.4948 -1.0188
11354TIP3    H255478   0.745   5.247  14.475  2.2583  4.1756  0.1560
11355TIP3   OH255479   3.026   2.718   5.341 -0.0557 -0.3426  0.9004
11355TIP3    H155480   3.027   2.681   5.252 -0.6114  0.0953  0.7045
11355TIP3    H255481   3.038   2.643   5.398 -1.0640 -0.8265  0.4998
11356TIP3   OH255482   2.388   4.988   4.525 -0.2094  0.1137  0.0623
11356TIP3    H155483   2.320   4.998   4.458 -0.0818  0.4584 -0.0157
11356TIP3    H255484   2.418   4.897   4.515 -0.3640  0.0877 -0.1802
11357TIP3   OH255485   2.691   1.564  12.418  0.3557 -0.1245  0.2601
11357TIP3    H155486   2.638   1.486  12.436 -1.2596  0.9480  0.2768
11357TIP3    H255487   2.639   1.637  12.451  1.0200  1.1395 -1.3644
11358TIP3   OH255488   2.830   0.882  11.546  0.8904 -0.6271  0.2054
11358TIP3    H155489   2.906   0.859  11.492  0.7030  1.8704 -1.3060
11358TIP3    H255490   2.776   0.802  11.547  1.2350 -1.0235 -2.8125
11359TIP3   OH255491   5.497   0.020   2.935 -0.3628  0.6602  0.7148
11359TIP3    H155492   5.557   0.072   2.881  0.3590  0.3909  1.2378
11359TIP3    H255493   5.410   0.052   2.912  0.0502  2.0524  0.9739
11360TIP3   OH255494   3.408   1.494   3.554  0.3273 -0.7888  0.5098
11360TIP3    H155495   3.315   1.513   3.537  0.9880  2.5410 -0.1318
11360TIP3    H255496   3.417   1.502   3.649  0.0706 -0.4310  0.5073
11361TIP3   OH255497   2.113   1.342   6.102  0.2647 -0.1546  0.7425
11361TIP3    H155498   2.179   1.408   6.123 -0.0886  0.1124  1.0396
11361TIP3    H255499   2.032   1.377   6.139 -0.0281 -0.5145  0.4497
11362TIP3   OH255500   0.182   4.919  12.578 -0.1803  0.0216 -0.0911
11362TIP3    H155501   0.236   4.850  12.539 -0.2903 -0.2109  0.1636
11362TIP3    H255502   0.097   4.909  12.536 -1.0136 -1.7481  1.8527
11363TIP3   OH255503   1.348   1.894  12.436 -0.3843 -0.0333 -0.6053
11363TIP3    H155504   1.288   1.967  12.454  0.5621  0.4607  0.7355
11363TIP3    H255505   1.306   1.818  12.476 -0.0228  0.3536  0.5318
11364TIP3   OH255506   6.233   5.577  15.214  0.0237 -0.1438 -0.0002
11364TIP3    H155507   6.266   5.666  15.226 -0.3228 -0.0442  0.2333
11364TIP3    H255508   6.200   5.576  15.125 -0.3885  0.1021  0.1463
11365TIP3   OH255509   2.633   4.029  12.766 -0.5258  0.5792 -0.6838
11365TIP3    H155510   2.699   4.067  12.708  0.1661  0.8732  0.2514
11365TIP3    H255511   2.622   3.939  12.734 -0.3946  0.8257 -1.4447
11366TIP3   OH255512   0.282   1.360   6.411  0.0290 -0.3276  0.0235
11366TIP3    H155513   0.256   1.357   6.503  2.3948 -1.4831  0.7531
11366TIP3    H255514   0.364   1.310   6.408 -0.9009 -1.9081 -3.0543
11367TIP3   OH255515   2.886   5.879  14.024  0.1471 -0.0717  0.0016
11367TIP3    H155516   2.905   5.833  13.942 -1.0512 -1.0639  0.2563
11367TIP3    H255517   2.873   5.809  14.089  1.0117  0.6934  1.0428
11368TIP3   OH255518   2.968   6.690  12.336  0.1218 -0.0840  0.3804
11368TIP3    H155519   3.038   6.650  12.388 -0.6740 -0.5737  1.1066
11368TIP3    H255520   2.940   6.766  12.388 -0.7965 -0.6741  0.7708
11369TIP3   OH255521   2.793   1.575  15.954  0.6128 -0.3460  0.1695
11369TIP3    H155522   2.875   1.624  15.950  0.9127 -0.8892 -0.5926
11369TIP3    H255523   2.796   1.517  15.877 -0.8677  0.2426 -0.3698
11370TIP3   OH255524   5.498   3.023   0.438 -0.3951 -0.2772  0.1282
11370TIP3    H155525   5.402   3.024   0.447 -0.3401  1.3022  0.7574
11370TIP3    H255526   5.521   3.112   0.411  0.9456 -0.4933  0.4849
11371TIP3   OH255527   3.823   1.646  15.909  0.0461  0.5515  0.1619
11371TIP3    H155528   3.833   1.553  15.886  0.0478  0.6198 -0.1196
11371TIP3    H255529   3.820   1.647  16.004 -3.0488 -0.0937  0.1939
11372TIP3   OH255530   2.026   3.852  17.140 -0.1875  0.2772 -0.4704
11372TIP3    H155531   2.087   3.818  17.075 -0.0265  1.9828 -1.2636
11372TIP3    H255532   1.940   3.844  17.100 -0.4481 -1.3859  0.3291
11373TIP3   OH255533   0.045   2.103  13.988  0.1820 -0.1785 -0.2252
11373TIP3    H155534   0.119   2.138  13.938 -1.6132  0.5896 -2.5558
11373TIP3    H255535   0.018   2.174  14.045  1.7780 -0.7983  1.3882
11374TIP3   OH255536   6.231   2.557  12.431 -0.1728 -0.5731  0.3462
11374TIP3    H155537   6.311   2.606  12.451 -0.5969  0.2772 -0.0017
11374TIP3    H255538   6.168   2.587  12.496 -1.0942  1.0388 -1.2144
11375TIP3   OH255539   6.013   5.075   0.126  0.0231 -0.2783  0.5274
11375TIP3    H155540   5.927   5.095   0.163  0.8856  1.5215  1.7127
11375TIP3    H255541   6.055   5.019   0.191 -0.0853 -0.8519  0.1178
11376TIP3   OH255542   1.485   0.499  14.752  0.3441 -0.3361 -0.2441
11376TIP3    H155543   1.456   0.523  14.840 -0.1791  0.1185 -0.5363
11376TIP3    H255544   1.573   0.537  14.744 -1.0771  3.1225 -1.3036
11377TIP3   OH255545   4.596   5.979  16.558 -0.3654 -0.1622  0.1645
11377TIP3    H155546   4.663   6.040  16.527 -0.9808  0.2365 -0.3991
11377TIP3    H255547   4.553   6.026  16.630  0.3853 -0.6824  0.9750
11378TIP3   OH255548   0.117   3.498   4.925 -0.2462  0.4549 -0.6475
11378TIP3    H155549   0.031   3.537   4.910 -1.2955 -0.6850  1.8083
11378TIP3    H255550   0.110   3.410   4.887 -0.1077  0.4380 -0.6323
11379TIP3   OH255551   4.867   0.187  13.645 -0.0918  0.2509 -0.1683
11379TIP3    H155552   4.818   0.255  13.599  0.3185 -0.6255 -1.9790
11379TIP3    H255553   4.854   0.108  13.593 -0.1065 -0.9676  1.5825
11380TIP3   OH255554   3.336   3.186   2.675 -0.9101  0.6037 -0.4438
11380TIP3    H155555   3.387   3.176   2.755 -0.1919  1.4464 -0.7776
11380TIP3    H255556   3.368   3.117   2.617  0.7012  1.8179 -1.0627
11381TIP3   OH255557   0.559   5.036  13.866 -0.0788 -0.1343 -0.1052
11381TIP3    H155558   0.559   4.975  13.792  2.1463 -0.8352  0.4050
11381TIP3    H255559   0.624   5.103  13.843 -0.4429  0.4744  0.5745
11382TIP3   OH255560   1.747   4.096  15.184 -0.1385 -0.0383 -0.3121
11382TIP3    H155561   1.840   4.104  15.206 -0.2723  2.9578 -0.4128
11382TIP3    H255562   1.746   4.078  15.090  0.3281 -0.2614 -0.2785
11383TIP3   OH255563   4.111   5.364   0.250 -0.0475 -0.4988  0.0703
11383TIP3    H155564   4.117   5.313   0.170  0.5759  0.6563 -0.6484
11383TIP3    H255565   4.048   5.317   0.304 -0.8711 -1.0179 -1.3004
11384TIP3   OH255566   3.546   3.014   5.554  0.2365  0.0460 -0.2326
11384TIP3    H155567   3.543   2.998   5.648  1.3555  0.1561 -0.1675
11384TIP3    H255568   3.560   3.109   5.546 -2.5881  0.5286 -0.5672
11385TIP3   OH255569   4.309   1.289  16.376  0.4091 -0.6395 -0.0778
11385TIP3    H155570   4.364   1.243  16.313  0.1278 -0.2847 -0.5878
11385TIP3    H255571   4.288   1.372  16.333  0.9092 -0.0272  0.8271
11386TIP3   OH255572   4.424   3.781   2.180  0.2304 -0.2859  0.5064
11386TIP3    H155573   4.450   3.873   2.176 -4.0592  1.1569  0.8326
11386TIP3    H255574   4.490   3.735   2.129  2.1883  3.0592 -0.2535
11387TIP3   OH255575   0.475   6.576   4.140 -0.1621  0.0797 -0.7711
11387TIP3    H155576   0.553   6.630   4.126  0.2167  0.1191  1.2813
11387TIP3    H255577   0.480   6.549   4.232 -1.8252 -1.1182 -0.9878
11388TIP3   OH255578   4.240   2.206  14.898 -0.1847  0.3597 -0.1378
11388TIP3    H155579   4.183   2.142  14.942 -0.1418  0.9177  0.7378
11388TIP3    H255580   4.241   2.177  14.807 -0.7089 -0.5027  0.1133
11389TIP3   OH255581   0.340   3.527  12.000  0.3640 -0.1115 -0.1836
11389TIP3    H155582   0.434   3.506  11.996  0.3784  0.0532 -0.7032
11389TIP3    H255583   0.326   3.587  11.928 -0.2878 -0.6946 -0.5519
11390TIP3   OH255584   4.352   3.914  11.643 -0.1440  0.3618 -0.0511
11390TIP3    H155585   4.389   3.827  11.658 -0.7793  0.0007 -0.5848
11390TIP3    H255586   4.318   3.912  11.554  0.7558  1.4916 -0.4530
11391TIP3   OH255587   6.499   0.971  16.487 -0.2872 -0.0280  0.2373
11391TIP3    H155588   6.425   0.965  16.427  0.7276  0.9140 -1.1872
11391TIP3    H255589   6.572   1.000  16.432  0.6884  0.9286  1.9482
11392TIP3   OH255590   1.138   6.369   2.950 -0.0685 -0.3646 -0.2766
11392TIP3    H155591   1.174   6.450   2.987  0.0765 -0.1379 -0.9088
11392TIP3    H255592   1.215   6.318   2.925  0.0038 -2.1010  2.9463
11393TIP3   OH255593   1.996   2.783  12.572  0.1919  0.0319  0.3398
11393TIP3    H155594   2.004   2.741  12.658  0.9804 -1.2678 -0.3312
11393TIP3    H255595   1.977   2.874  12.591 -0.3075 -0.3693  1.8860
11394TIP3   OH255596   2.703   3.266  17.180  0.7314 -0.2317 -0.0859
11394TIP3    H155597   2.740   3.307  17.258  0.5737 -1.3459  0.5887
11394TIP3    H255598   2.704   3.336  17.114  0.2842  0.9234  1.0785
11395TIP3   OH255599   6.556   0.968   3.427 -0.6294 -0.5990 -0.3303
11395TIP3    H155600   6.619   1.023   3.474 -1.1903  0.3443 -0.6472
11395TIP3    H255601   6.601   0.941   3.348 -0.7714  0.4695 -0.7897
11396TIP3   OH255602   0.509   3.868   4.981 -0.4219  0.3283 -0.0239
11396TIP3    H155603   0.512   3.775   4.957  1.2772  0.2990  0.1411
11396TIP3    H255604   0.601   3.893   4.989 -0.8502  1.5352  1.8390
11397TIP3   OH255605   5.078   5.284   0.533  0.5815  0.0535 -1.0253
11397TIP3    H155606   5.030   5.356   0.573  0.3276 -0.1791 -0.9036
11397TIP3    H255607   5.164   5.320   0.513  1.7353 -0.5380  2.2169
11398TIP3   OH255608   5.699   5.560   5.892  0.6599 -0.1359 -0.4391
11398TIP3    H155609   5.686   5.469   5.917 -0.6688  0.3645  0.7851
11398TIP3    H255610   5.794   5.574   5.901  0.7196 -1.0653  0.5215
11399TIP3   OH255611   0.447   4.689  16.915  0.0972 -0.4353 -0.2214
11399TIP3    H155612   0.460   4.606  16.961  1.1689 -0.0844  0.1342
11399TIP3    H255613   0.386   4.668  16.845 -0.7801 -1.2054  0.7343
11400TIP3   OH255614   2.961   5.845  12.209  0.1914  1.0088 -0.0814
11400TIP3    H155615   2.942   5.872  12.299 -0.7571  0.8250 -0.2115
11400TIP3    H255616   2.979   5.751  12.215 -1.7014  0.5922 -0.2988
11401TIP3   OH255617   4.387   1.710   0.209  1.1124  0.3780  0.0082
11401TIP3    H155618   4.343   1.795   0.209 -0.6932 -0.4113 -3.3402
11401TIP3    H255619   4.316   1.646   0.208  2.4350 -1.1973  1.0813
11402TIP3   OH255620   2.812   1.149   5.221  0.3665  0.4027 -0.5706
11402TIP3    H155621   2.814   1.242   5.241 -2.6512  0.3341  0.4502
11402TIP3    H255622   2.767   1.143   5.137  0.7816 -0.1386 -0.7628
11403TIP3   OH255623   1.767   6.404  16.277  0.1998  0.2380 -0.0993
11403TIP3    H155624   1.816   6.429  16.198 -2.2360 -0.3200 -1.9034
11403TIP3    H255625   1.790   6.312  16.291  0.8075  0.3967 -0.0219
11404TIP3   OH255626   2.200   2.803  13.948  0.5343  0.4219  0.2341
11404TIP3    H155627   2.169   2.720  13.913  1.6552 -1.1020  2.6492
11404TIP3    H255628   2.122   2.843  13.987 -0.6302  1.9336 -3.2438
11405TIP3   OH255629   4.543   0.237   5.412 -0.0447  0.1459 -0.4615
11405TIP3    H155630   4.554   0.262   5.504 -0.3449  1.0853 -0.6718
11405TIP3    H255631   4.487   0.159   5.415 -1.5174  1.1717  0.0823
11406TIP3   OH255632   1.228   1.872  16.004  0.2552 -0.4572 -0.4700
11406TIP3    H155633   1.204   1.868  15.912  1.0193 -0.4324 -0.6744
11406TIP3    H255634   1.323   1.885  16.004  0.3522 -1.0884  0.3184
11407TIP3   OH255635   0.196   1.533  16.852 -0.4662  0.2742  0.6168
11407TIP3    H155636   0.220   1.614  16.808 -0.9726  0.2025  0.2035
11407TIP3    H255637   0.215   1.550  16.944  2.1918 -0.1421  0.2428
11408TIP3   OH255638   1.277   1.143   3.423  0.0875  0.4200  0.2547
11408TIP3    H155639   1.242   1.230   3.407  0.1912  0.1886 -1.4715
11408TIP3    H255640   1.370   1.157   3.440  0.0444  0.6682  0.2850
11409TIP3   OH255641   4.851   2.342   2.262  0.0229 -0.2198  0.3704
11409TIP3    H155642   4.802   2.260   2.273  1.8166 -1.5253 -0.7177
11409TIP3    H255643   4.784   2.410   2.258 -1.6778 -1.8503 -0.4750
11410TIP3   OH255644   4.600   1.907   2.917 -0.1376 -0.4872  0.2348
11410TIP3    H155645   4.579   1.825   2.963  1.6954 -0.4373  1.2585
11410TIP3    H255646   4.561   1.975   2.972 -0.5062 -0.5875  0.1024
11411TIP3   OH255647   5.835   3.738  10.939  0.3208  0.3006 -0.5593
11411TIP3    H155648   5.827   3.646  10.964  0.1270  0.2611 -0.7577
11411TIP3    H255649   5.885   3.779  11.010  1.0894 -0.1146 -0.8470
11412TIP3   OH255650   2.192   2.458  14.454  0.0132 -0.2079 -0.1069
11412TIP3    H155651   2.184   2.421  14.542 -0.3995 -0.5995 -0.3052
11412TIP3    H255652   2.260   2.525  14.462 -1.7363  1.5253  1.1055
11413TIP3   OH255653   6.785   2.137  13.394 -0.8076 -0.2308 -0.1607
11413TIP3    H155654   6.838   2.202  13.347 -0.2730  0.3706  1.2229
11413TIP3    H255655   6.833   2.055  13.384 -0.9100 -0.2076 -0.9753
11414TIP3   OH255656   2.093   0.188   4.687  0.3727  0.0551 -0.2218
11414TIP3    H155657   2.018   0.135   4.663  1.4841 -1.1142 -1.2596
11414TIP3    H255658   2.076   0.215   4.778 -1.6831  0.5823 -0.7089
11415TIP3   OH255659   2.200   0.249  12.889  0.0364 -0.6325  0.1906
11415TIP3    H155660   2.246   0.257  12.973  0.8217 -0.7096 -0.2205
11415TIP3    H255661   2.184   0.339  12.862 -2.5522 -0.5542  1.6274
11416TIP3   OH255662   0.301   3.292   3.778  0.5160  0.1197 -0.0440
11416TIP3    H155663   0.370   3.250   3.830  1.4541  1.6601  0.0048
11416TIP3    H255664   0.292   3.379   3.815 -1.7640 -0.1554  0.1740
11417TIP3   OH255665   0.392   3.747   5.523 -0.7920  0.4934  0.0976
11417TIP3    H155666   0.298   3.758   5.512 -2.0095 -2.0192  4.9331
11417TIP3    H255667   0.418   3.817   5.583  0.6431  1.4673 -1.5726
11418TIP3   OH255668   4.430   2.828  17.166  0.2329  0.2138 -0.2394
11418TIP3    H155669   4.509   2.821  17.221  0.8671  0.6252 -1.0790
11418TIP3    H255670   4.421   2.922  17.149 -0.7307  0.2254  0.2455
11419TIP3   OH255671   0.170   0.184   1.283 -0.1226 -0.6123  0.2493
11419TIP3    H155672   0.190   0.232   1.364  0.8609  1.1893 -0.9938
11419TIP3    H255673   0.217   0.102   1.292 -0.8012 -0.8714  1.8947
11420TIP3   OH255674   1.440   0.548   1.502 -0.5040  0.6848  0.2454
11420TIP3    H155675   1.376   0.611   1.468  0.8162  1.5776 -0.7444
11420TIP3    H255676   1.428   0.550   1.597 -2.5061  0.1450  0.0521
11421TIP3   OH255677   5.082   2.861   2.167 -0.1056  0.2530  0.3494
11421TIP3    H155678   4.995   2.900   2.157  0.2449  1.0902  0.4860
11421TIP3    H255679   5.099   2.817   2.083 -0.5235  0.3515  0.2111
11422TIP3   OH255680   5.007   6.491  12.781  0.1201 -0.9110  0.1363
11422TIP3    H155681   4.983   6.401  12.759  1.4741 -1.6243  1.3688
11422TIP3    H255682   5.100   6.497  12.760 -0.2165  0.5992 -1.0533
11423TIP3   OH255683   0.741   6.484  14.926 -0.2247 -0.1693  0.2029
11423TIP3    H155684   0.689   6.561  14.901 -0.4744 -0.6987 -0.9910
11423TIP3    H255685   0.822   6.520  14.963  1.3451  0.8186 -3.6851
11424TIP3   OH255686   3.425   6.092   0.841  0.1283 -0.6444  0.2576
11424TIP3    H155687   3.484   6.166   0.832 -0.4402 -0.3786 -1.7859
11424TIP3    H255688   3.443   6.037   0.765 -1.4962 -1.0796  0.1364
11425TIP3   OH255689   6.316   2.736   1.698 -0.4312 -0.4506 -0.8249
11425TIP3    H155690   6.281   2.755   1.785 -0.4974  0.2320 -0.9985
11425TIP3    H255691   6.392   2.679   1.715 -0.2120 -0.0045 -0.2912
11426TIP3   OH255692   0.545   1.270   2.044 -0.0641 -0.3148  0.5568
11426TIP3    H155693   0.545   1.348   2.099 -0.1928  0.4876 -0.5475
11426TIP3    H255694   0.491   1.206   2.092  0.0696  0.2543  1.4809
11427TIP3   OH255695   6.256   1.756  14.261  0.3705  0.5278  0.1238
11427TIP3    H155696   6.337   1.717  14.229  0.0348  0.3862 -0.5634
11427TIP3    H255697   6.204   1.771  14.183 -0.7529 -0.4630  0.6560
11428TIP3   OH255698   0.926   3.316  15.468 -0.4217  0.6627  0.2731
11428TIP3    H155699   0.849   3.269  15.501 -1.4708  0.4968 -2.1294
11428TIP3    H255700   0.936   3.283  15.378  4.1646 -1.3521  1.2530
11429TIP3   OH255701   5.471   5.865   5.065 -0.4891  0.2415 -0.4116
11429TIP3    H155702   5.460   5.794   5.128  1.7030 -0.0077 -0.2272
11429TIP3    H255703   5.436   5.829   4.983  0.9130 -1.2316 -0.4122
11430TIP3   OH255704   3.589   3.088   2.816  0.0262  0.1419  0.4056
11430TIP3    H155705   3.682   3.101   2.796 -0.1510  0.3383 -0.3227
11430TIP3    H255706   3.588   3.051   2.904  0.9117 -1.6249 -0.2639
11431TIP3   OH255707   0.415   4.909   6.346 -0.2936 -0.4963  0.7510
11431TIP3    H155708   0.496   4.942   6.387  0.0042  0.8590 -0.8241
11431TIP3    H255709   0.365   4.872   6.419  1.8371 -1.6087  1.7384
11432TIP3   OH255710   1.656   1.115  13.107  0.0961  0.4069  0.1090
11432TIP3    H155711   1.692   1.027  13.108  1.7313  1.0259 -0.2827
11432TIP3    H255712   1.720   1.168  13.155 -0.6642  1.4571  0.0238
11433TIP3   OH255713   4.673   3.793  11.358  0.3914  0.2989  0.2475
11433TIP3    H155714   4.721   3.826  11.434  2.3699  1.6121 -1.4428
11433TIP3    H255715   4.657   3.870  11.304  0.9325 -0.8404 -1.6448
11434TIP3   OH255716   1.483   3.774  11.608  0.2516  0.1424  0.5805
11434TIP3    H155717   1.541   3.764  11.684  1.8819  0.4411 -0.5848
11434TIP3    H255718   1.499   3.697  11.555 -0.6095  0.1152  0.3456
11435TIP3   OH255719   3.146   3.219  14.212 -0.0426 -0.6659  0.0776
11435TIP3    H155720   3.154   3.302  14.259 -1.2308 -0.7087  0.3916
11435TIP3    H255721   3.055   3.192  14.225  0.0553 -1.5328 -0.8327
11436TIP3   OH255722   2.292   3.667   2.815  0.2625 -0.1277 -0.4349
11436TIP3    H155723   2.374   3.690   2.772  0.0778  1.9723  0.2310
11436TIP3    H255724   2.270   3.744   2.869 -1.7912 -0.8937 -0.0770
11437TIP3   OH255725   1.536   1.840   5.659 -0.2495  0.3199  0.1943
11437TIP3    H155726   1.628   1.863   5.644 -0.6920  2.3918  0.3895
11437TIP3    H255727   1.524   1.850   5.754 -0.6588 -0.1079  0.1951
11438TIP3   OH255728   4.552   2.076   2.066 -0.6677  0.2990 -0.1666
11438TIP3    H155729   4.629   2.086   2.121  0.3917 -1.6955 -1.1767
11438TIP3    H255730   4.587   2.068   1.977 -1.9808 -1.0896 -0.6077
11439TIP3   OH255731   4.205   3.489   6.291 -0.2735  0.0486 -0.0360
11439TIP3    H155732   4.198   3.495   6.196  2.7193 -1.0338 -0.4107
11439TIP3    H255733   4.223   3.579   6.319 -0.4152  0.2460 -0.5499
11440TIP3   OH255734   2.919   2.837   0.687 -0.1950 -0.0356 -0.1022
11440TIP3    H155735   2.835   2.863   0.725 -0.5598 -0.0776 -0.8574
11440TIP3    H255736   2.898   2.814   0.597  0.5477 -0.5427 -0.1540
11441TIP3   OH255737   6.534   4.084   1.311  0.1126  0.0467  0.6865
11441TIP3    H155738   6.596   4.044   1.372 -1.0542 -0.4854  1.5468
11441TIP3    H255739   6.576   4.076   1.225  1.7322  0.7135  1.3819
11442TIP3   OH255740   1.641   5.515  13.573  0.1186  0.5923 -0.2250
11442TIP3    H155741   1.639   5.605  13.606 -0.3327  0.0539  1.3317
11442TIP3    H255742   1.733   5.495  13.561  0.3418  0.6504  1.2605
11443TIP3   OH255743   5.395   5.361   3.016  0.7190  0.6985 -0.4475
11443TIP3    H155744   5.309   5.399   2.997  1.0652  0.7613 -2.0759
11443TIP3    H255745   5.403   5.289   2.953  2.4367  1.6181 -1.3463
11444TIP3   OH255746   5.574   0.381   3.892 -0.2297 -0.1613  0.0974
11444TIP3    H155747   5.487   0.342   3.891  0.4516 -1.8058  0.9155
11444TIP3    H255748   5.558   0.475   3.900 -1.9396 -0.1960 -1.9878
11445TIP3   OH255749   1.538   5.266  15.675  0.5646  0.0974 -0.1561
11445TIP3    H155750   1.590   5.264  15.755 -0.2047  1.0035  0.3958
11445TIP3    H255751   1.450   5.291  15.704 -0.4062 -2.1402 -0.9678
11446TIP3   OH255752   4.381   3.806   1.210 -0.2180  0.4177 -0.3999
11446TIP3    H155753   4.296   3.851   1.204  0.1720  2.2650  4.1169
11446TIP3    H255754   4.445   3.874   1.187  0.1597 -0.1246 -0.9747
11447TIP3   OH255755   1.292   1.632   0.952  0.4667 -0.1807 -0.2411
11447TIP3    H155756   1.288   1.654   0.859 -0.2180 -0.7886 -0.3684
11447TIP3    H255757   1.232   1.558   0.962 -1.5894  1.5433  1.1521
11448TIP3   OH255758   3.042   6.154   0.458 -0.4782  0.2841  0.5001
11448TIP3    H155759   3.053   6.233   0.406  2.5241  0.2531  0.9162
11448TIP3    H255760   3.052   6.182   0.549  0.8355 -0.5448  0.6432
11449TIP3   OH255761   5.040   4.379   1.708 -0.4180 -0.6532 -0.0699
11449TIP3    H155762   5.132   4.406   1.709 -0.0728 -1.7821  0.0710
11449TIP3    H255763   5.041   4.294   1.665 -1.4846 -0.4302 -0.5728
11450TIP3   OH255764   2.665   0.143   3.001 -0.0396 -0.3341 -0.0120
11450TIP3    H155765   2.751   0.184   3.003  0.1706 -0.7792  0.7291
11450TIP3    H255766   2.674   0.069   2.940 -0.5495  0.9589 -1.7154
11451TIP3   OH255767   5.906   3.073   2.185  0.7187 -0.7241  0.1129
11451TIP3    H155768   5.917   3.025   2.267 -1.5064  1.5949  1.9138
11451TIP3    H255769   5.996   3.094   2.158  1.5229 -1.8216  1.7524
11452TIP3   OH255770   0.091   6.772  13.551 -0.0460  0.0351 -0.3111
11452TIP3    H155771   0.088   6.732  13.638  0.1878  0.9319  0.1300
11452TIP3    H255772   0.028   6.722  13.499 -0.3406 -0.3901  0.4367
11453TIP3   OH255773   4.740   1.739   4.120  0.0248 -0.4005  0.4298
11453TIP3    H155774   4.757   1.647   4.143 -0.4484 -0.4686  0.5265
11453TIP3    H255775   4.768   1.746   4.029 -0.9555 -0.9379  0.0676
11454TIP3   OH255776   2.420   5.424   3.566 -0.2098 -0.3401  0.1442
11454TIP3    H155777   2.434   5.504   3.617 -0.5418  2.3355 -3.4825
11454TIP3    H255778   2.326   5.426   3.546 -0.2057 -1.6360 -0.0612
11455TIP3   OH255779   0.770   1.273   4.064  0.0007  0.3593 -0.5812
11455TIP3    H155780   0.823   1.247   4.139  2.7085  0.1388 -2.4094
11455TIP3    H255781   0.688   1.305   4.102  0.7609 -0.8369  2.3416
11456TIP3   OH255782   3.257   4.924  14.738 -0.3567  0.3726  0.2522
11456TIP3    H155783   3.193   4.856  14.760 -0.5163  0.5280  0.2769
11456TIP3    H255784   3.263   4.977  14.818  0.3037 -0.0295  0.4805
11457TIP3   OH255785   6.570   0.668  14.691  0.3989  0.1368 -0.0712
11457TIP3    H155786   6.605   0.640  14.775  0.4745  0.6763  0.0790
11457TIP3    H255787   6.590   0.761  14.686  1.4112 -0.1251 -1.1894
11458TIP3   OH255788   3.339   3.044   0.500 -0.0759 -0.8690 -0.1193
11458TIP3    H155789   3.275   3.074   0.436 -0.7143 -1.5914  0.1607
11458TIP3    H255790   3.410   3.007   0.447  0.4236  0.5118 -0.4456
11459TIP3   OH255791   1.135   1.804  11.077  0.3263  0.0176 -0.2570
11459TIP3    H155792   1.080   1.879  11.100  0.9968  0.8316 -1.2327
11459TIP3    H255793   1.120   1.791  10.983  1.5163  0.0246 -0.4626
11460TIP3   OH255794   4.417   2.120  13.471  0.0018 -0.0164 -0.2856
11460TIP3    H155795   4.355   2.104  13.400  0.4982 -0.4745 -0.6266
11460TIP3    H255796   4.376   2.187  13.525  0.0467  1.0482 -1.5353
11461TIP3   OH255797   1.658   6.513   3.073  0.0889  0.4215  0.7164
11461TIP3    H155798   1.635   6.422   3.090  0.7242  0.0876 -0.1175
11461TIP3    H255799   1.711   6.539   3.149  0.8448 -0.2644  0.4385
11462TIP3   OH255800   5.002   3.566   5.313  0.1954  0.0085 -0.7454
11462TIP3    H155801   5.050   3.614   5.246  0.7557  1.5655  0.6923
11462TIP3    H255802   5.071   3.529   5.369 -0.2234  1.0131  0.4831
11463TIP3   OH255803   5.780   3.959  15.211 -0.6180  0.2084 -0.0373
11463TIP3    H155804   5.789   3.870  15.245 -0.3923  0.6132  1.0336
11463TIP3    H255805   5.708   3.997  15.262 -0.6282  0.6775 -0.3927
11464TIP3   OH255806   5.110   0.570  11.708  0.1152 -0.2123  0.2348
11464TIP3    H155807   5.202   0.584  11.731 -0.0907 -0.8105  1.5274
11464TIP3    H255808   5.062   0.626  11.769 -0.3760  0.5163 -0.7928
11465TIP3   OH255809   6.663   2.199   5.211  0.0899  0.3305  0.5111
11465TIP3    H155810   6.714   2.216   5.291  1.2358  2.3785 -0.5629
11465TIP3    H255811   6.729   2.176   5.145 -0.6715  0.2035 -0.2268
11466TIP3   OH255812   2.329   6.726  12.351  0.1506 -0.2786 -0.9353
11466TIP3    H155813   2.377   6.645  12.365  2.2404  0.9448 -0.5496
11466TIP3    H255814   2.390   6.782  12.302 -1.3187  0.9779 -1.4159
11467TIP3   OH255815   4.026   3.742  16.454 -0.2083 -0.1671 -0.7886
11467TIP3    H155816   3.990   3.703  16.533  1.2551 -0.2105 -0.1069
11467TIP3    H255817   3.950   3.769  16.404 -1.1880  1.6772  1.5299
11468TIP3   OH255818   2.193   3.619   4.509 -0.3961 -0.8290  0.1311
11468TIP3    H155819   2.271   3.640   4.560  0.5123 -2.3998 -0.5563
11468TIP3    H255820   2.178   3.697   4.456 -1.5095  0.9611  2.8462
11469TIP3   OH255821   5.505   6.451   1.592 -0.0261  0.4277  0.3228
11469TIP3    H155822   5.481   6.399   1.515  0.5994 -0.1073  0.4849
11469TIP3    H255823   5.468   6.404   1.666  1.3891 -0.3455  0.5652
11470TIP3   OH255824   1.376   2.508  12.375 -0.1183  0.2702  0.2371
11470TIP3    H155825   1.327   2.568  12.318  1.2513 -0.1759 -1.4715
11470TIP3    H255826   1.348   2.421  12.347 -0.0406  0.0593  0.8191
11471TIP3   OH255827   6.258   5.360   1.068  0.0970 -0.3632 -0.1941
11471TIP3    H155828   6.322   5.360   1.139  2.1607 -0.0779 -1.9824
11471TIP3    H255829   6.283   5.287   1.012 -0.6422  0.2477 -1.3724
11472TIP3   OH255830   4.276   4.256   3.114 -0.1302  0.3095  0.0378
11472TIP3    H155831   4.210   4.187   3.104 -0.2545  0.5445 -0.7540
11472TIP3    H255832   4.301   4.251   3.207 -0.6729 -0.3113  0.1577
11473TIP3   OH255833   4.752   4.943  13.988  0.2203  0.0888  0.1623
11473TIP3    H155834   4.692   4.993  13.932  1.6618  3.3412  1.2769
11473TIP3    H255835   4.700   4.924  14.066 -0.7959 -1.5625 -0.8681
11474TIP3   OH255836   4.806   1.169  16.991  0.0991  0.3036  0.0748
11474TIP3    H155837   4.779   1.080  17.013 -0.2038 -0.7822 -3.8694
11474TIP3    H255838   4.894   1.158  16.953  0.6372  1.9181  0.7957
11475TIP3   OH255839   2.532   3.340   1.632 -0.2628  0.4513 -0.1555
11475TIP3    H155840   2.512   3.340   1.725 -0.6497 -0.1833 -0.2292
11475TIP3    H255841   2.627   3.346   1.627 -0.2382  0.4271  0.2776
11476TIP3   OH255842   0.840   6.207   6.433  0.4708 -0.2396  0.1700
11476TIP3    H155843   0.793   6.175   6.356  0.4115 -0.9428  0.4913
11476TIP3    H255844   0.839   6.133   6.494  1.4946 -0.0727  0.4089
11477TIP3   OH255845   2.023   3.915   1.658  0.2132  0.0133 -0.0103
11477TIP3    H155846   1.976   3.831   1.655  1.3977 -0.6719 -0.1493
11477TIP3    H255847   2.093   3.905   1.593  1.3544  0.4930  1.1073
11478TIP3   OH255848   4.751   5.348  14.031  0.7838 -0.3162  0.3052
11478TIP3    H155849   4.704   5.276  14.072  1.7025 -1.3676 -0.4536
11478TIP3    H255850   4.829   5.308  13.993  0.4596  0.7688 -1.6194
11479TIP3   OH255851   4.884   4.892   1.978 -0.2005 -0.4971  0.3246
11479TIP3    H155852   4.977   4.867   1.971 -0.0187  0.6491 -2.4779
11479TIP3    H255853   4.839   4.831   1.920 -0.4558  2.0383 -2.3180
11480TIP3   OH255854   0.004   6.590   5.677 -0.2393  0.0194 -0.4686
11480TIP3    H155855   0.039   6.676   5.700 -0.4096  0.0849 -0.4571
11480TIP3    H255856  -0.069   6.609   5.618 -1.5916 -0.0105  1.1196
11481TIP3   OH255857   2.887   4.869  10.831 -0.0752  0.2506  0.1669
11481TIP3    H155858   2.813   4.906  10.783 -2.1911 -2.7669  0.8690
11481TIP3    H255859   2.960   4.875  10.770 -1.0296  2.5140 -0.8819
11482TIP3   OH255860   2.994   6.568  14.610 -0.0317  0.3498  0.2972
11482TIP3    H155861   2.901   6.547  14.600 -0.3009 -0.0412  2.8442
11482TIP3    H255862   3.036   6.532  14.532 -1.7821 -1.0255 -0.0671
11483TIP3   OH255863   3.349   3.983   5.681  0.1340  0.1629  0.2146
11483TIP3    H155864   3.313   3.945   5.600 -1.8384  0.4777  0.8846
11483TIP3    H255865   3.417   4.042   5.650  1.6184 -2.0205 -0.9952
11484TIP3   OH255866   5.997   5.836  14.937  0.1911  0.0896  0.0457
11484TIP3    H155867   5.943   5.815  15.013  1.6808 -0.2449  1.0651
11484TIP3    H255868   6.087   5.827  14.969  0.8675 -0.6550 -1.9142
11485TIP3   OH255869   6.448   6.607   4.984  0.2763  0.6749  0.1998
11485TIP3    H155870   6.373   6.563   4.944  1.1152  0.6094 -1.3791
11485TIP3    H255871   6.475   6.673   4.920  1.2117  1.0921  0.9946
11486TIP3   OH255872   4.288   5.445   4.845 -0.9608  0.4092 -0.3876
11486TIP3    H155873   4.292   5.350   4.834 -1.4207  0.1605  1.2092
11486TIP3    H255874   4.237   5.457   4.926  2.6990  1.7910  1.9910
11487TIP3   OH255875   3.348   3.671  14.187 -0.3109  0.2422 -0.5908
11487TIP3    H155876   3.364   3.722  14.108 -0.5246  1.3019  0.0379
11487TIP3    H255877   3.257   3.690  14.210 -0.2614 -0.0856 -0.1035
11488TIP3   OH255878   2.322   4.394  12.528 -0.3140 -0.2827  0.2626
11488TIP3    H155879   2.255   4.441  12.479 -0.4573 -1.2500 -0.4891
11488TIP3    H255880   2.403   4.412  12.480 -0.2018  0.0192  0.5616
11489TIP3   OH255881   5.385   4.073  16.790 -0.7476  0.4187 -0.0120
11489TIP3    H155882   5.339   4.143  16.744 -1.3712  0.8019  1.1537
11489TIP3    H255883   5.444   4.118  16.850  0.7773 -0.0677 -1.0712
11490TIP3   OH255884   1.136   2.074  12.436  0.0087 -0.2794  0.0702
11490TIP3    H155885   1.126   2.071  12.340  1.0418 -1.6710 -0.0287
11490TIP3    H255886   1.048   2.090  12.468 -0.2817  0.7272 -1.1202
11491TIP3   OH255887   5.773   4.577  12.098  0.4688  0.0986 -0.3203
11491TIP3    H155888   5.801   4.504  12.152  1.0072  0.7280  0.2733
11491TIP3    H255889   5.779   4.545  12.008  3.7288  0.3540 -0.3213
11492TIP3   OH255890   3.603   3.367  12.551  0.2183  0.2115 -0.0423
11492TIP3    H155891   3.654   3.356  12.471 -0.0157 -0.3313 -0.1182
11492TIP3    H255892   3.654   3.429  12.603 -0.3475  1.7374 -1.2211
11493TIP3   OH255893   1.002   5.590   4.191  0.2419 -0.3959  0.2912
11493TIP3    H155894   0.996   5.567   4.098 -1.7173  1.1522 -0.0332
11493TIP3    H255895   1.037   5.511   4.233  1.6936 -0.9432 -1.8009
11494TIP3   OH255896   2.533   1.753   0.655 -0.2443  0.1426  0.2446
11494TIP3    H155897   2.527   1.665   0.618  0.9550 -0.4490  1.3939
11494TIP3    H255898   2.467   1.803   0.607 -1.0768 -1.4121 -0.3075
11495TIP3   OH255899   2.508   1.016   2.489  0.1887 -0.3193  0.2286
11495TIP3    H155900   2.435   0.958   2.512 -0.8694  0.2777 -1.4970
11495TIP3    H255901   2.552   0.973   2.416 -0.6028  0.9896 -1.0731
11496TIP3   OH255902   1.220   3.443  12.359 -0.4355  0.6521  0.5592
11496TIP3    H155903   1.208   3.418  12.451  2.5430  0.6993  1.0561
11496TIP3    H255904   1.147   3.502  12.341 -1.3644  0.2818  2.7435
11497TIP3   OH255905   4.264   6.536  14.732  0.3362  0.5514 -0.8894
11497TIP3    H155906   4.237   6.612  14.782 -0.0194 -0.4918  0.5788
11497TIP3    H255907   4.188   6.515  14.677 -1.0865 -0.9285  1.4542
11498TIP3   OH255908   6.741   4.162  13.356  0.6945 -0.8089  0.8674
11498TIP3    H155909   6.803   4.090  13.349  1.4604 -0.0388 -0.6783
11498TIP3    H255910   6.794   4.238  13.380 -0.1391 -0.7539  2.7937
11499TIP3   OH255911   3.862   4.466   4.659 -0.1751 -0.0643 -0.5839
11499TIP3    H155912   3.811   4.462   4.578 -1.5242  0.9951  0.1568
11499TIP3    H255913   3.807   4.518   4.719  1.1208 -0.1755  0.7576
11500TIP3   OH255914   0.575   3.457  14.289  0.1275 -0.3159  0.3900
11500TIP3    H155915   0.666   3.430  14.286  0.1718 -0.1453 -2.0389
11500TIP3    H255916   0.529   3.382  14.325  1.2207 -0.3311  1.8260
11501TIP3   OH255917   5.155   6.387   0.877  0.2380 -0.0399  0.5014
11501TIP3    H155918   5.119   6.436   0.951 -1.7149  0.0920 -0.4763
11501TIP3    H255919   5.192   6.308   0.916  0.7428  0.7847  1.7733
11502TIP3   OH255920   0.146   6.753  10.555 -0.4319  0.1599  0.4522
11502TIP3    H155921   0.185   6.755  10.642 -0.5972  0.7671  0.5185
11502TIP3    H255922   0.133   6.660  10.536  1.6422 -0.1113  0.1608
11503TIP3   OH255923   6.274   3.918   1.667 -0.0556  0.2850 -0.5663
11503TIP3    H155924   6.245   3.953   1.583 -1.8742 -0.1516 -0.1585
11503TIP3    H255925   6.299   3.828   1.648  2.3586  1.0214 -1.1600
11504TIP3   OH255926   1.331   5.189   1.315  0.3463 -0.4307  0.6012
11504TIP3    H155927   1.260   5.230   1.363  0.1687 -2.1439  1.9100
11504TIP3    H255928   1.288   5.135   1.249  0.5834  1.6373 -1.3620
11505TIP3   OH255929   1.594   3.542  10.920  1.1827  0.6749 -0.0610
11505TIP3    H155930   1.560   3.586  10.842 -1.4456 -1.4395 -0.2364
11505TIP3    H255931   1.587   3.608  10.989 -0.3434  1.3238 -0.7875
11506TIP3   OH255932   2.031   4.406   1.106  0.0291 -0.3526  0.4786
11506TIP3    H155933   2.111   4.440   1.146  0.4344 -1.5777  0.7370
11506TIP3    H255934   1.963   4.467   1.134  1.1151  1.8452 -1.2930
11507TIP3   OH255935   3.473   5.103   4.233  0.1481  0.2446  0.0280
11507TIP3    H155936   3.435   5.049   4.163 -2.1497  2.3977 -0.5391
11507TIP3    H255937   3.408   5.100   4.303  0.6485  1.1639  0.5455
11508TIP3   OH255938   2.571   1.854  11.545  0.0407 -0.1143  0.5067
11508TIP3    H155939   2.551   1.790  11.477  0.3431 -0.9321  1.1649
11508TIP3    H255940   2.486   1.886  11.574 -0.0813  0.5689 -0.5332
11509TIP3   OH255941   0.069   5.049   3.816  0.3148  0.0718  0.0126
11509TIP3    H155942  -0.013   5.025   3.859 -0.3801 -3.1995 -2.7327
11509TIP3    H255943   0.122   4.970   3.818  1.5306  0.7388 -2.2225
11510TIP3   OH255944   3.841   2.983  15.863 -0.4682 -0.6679 -0.5382
11510TIP3    H155945   3.766   3.041  15.876  2.1916  2.6669  1.7769
11510TIP3    H255946   3.888   3.021  15.790  0.9166 -0.3023  0.5082
11511TIP3   OH255947   6.721   3.975  10.356  0.2734  0.2904  0.1574
11511TIP3    H155948   6.664   3.910  10.314 -1.3151  1.8856 -0.2939
11511TIP3    H255949   6.684   4.060  10.330  1.2174  1.3834  2.1272
11512TIP3   OH255950   6.619   5.678  14.324  0.3187 -0.1776 -0.1690
11512TIP3    H155951   6.663   5.757  14.294  1.0830 -0.5741 -0.1511
11512TIP3    H255952   6.526   5.696  14.315  0.4929  0.5624 -0.5617
11513TIP3   OH255953   6.356   2.836   4.766  0.0398 -0.4163  0.2358
11513TIP3    H155954   6.422   2.879   4.821  0.4049 -0.1220 -0.4286
11513TIP3    H255955   6.358   2.745   4.795 -0.9821  0.0516  1.8894
11514TIP3   OH255956   2.445   3.585  14.388 -0.1275 -0.3846  0.2645
11514TIP3    H155957   2.444   3.680  14.404  1.1785  0.6050 -4.0595
11514TIP3    H255958   2.374   3.572  14.324  1.6126 -1.6487 -1.5268
11515TIP3   OH255959   2.111   0.122  15.296 -0.0915  0.4376 -0.7369
11515TIP3    H155960   2.034   0.166  15.332 -0.4241 -0.0485 -0.8533
11515TIP3    H255961   2.158   0.090  15.372 -1.9383 -2.5693 -0.7133
11516TIP3   OH255962   2.624   2.586   0.947 -0.1894  0.2628  0.0344
11516TIP3    H155963   2.616   2.585   1.042  0.3109  0.8064  0.0863
11516TIP3    H255964   2.590   2.500   0.919  1.2634 -0.6161  0.8371
11517TIP3   OH255965   6.442   3.645   4.028 -0.4253  0.4180  0.0316
11517TIP3    H155966   6.377   3.577   4.049  0.5943 -1.3089 -1.9875
11517TIP3    H255967   6.392   3.712   3.981 -1.5038  1.3139  2.2986
11518TIP3   OH255968   5.527   0.317  16.133  0.2643  0.5598 -0.1856
11518TIP3    H155969   5.531   0.332  16.039  0.5533  0.1145 -0.2486
11518TIP3    H255970   5.609   0.271  16.153  0.0277  0.3142  0.2204
11519TIP3   OH255971   3.342   6.766  16.479 -0.2737 -0.4806 -0.8312
11519TIP3    H155972   3.391   6.690  16.446  1.5202  0.8109 -1.2872
11519TIP3    H255973   3.314   6.740  16.567  1.0279 -1.3639 -0.6465
11520TIP3   OH255974   3.863   5.008   5.068  0.4879  0.0765  0.4238
11520TIP3    H155975   3.917   5.066   5.122 -1.3903  0.5869  1.8703
11520TIP3    H255976   3.818   5.067   5.008 -0.0650 -0.0710  0.6846
11521TIP3   OH255977   5.945   0.751  15.916 -0.0855 -0.0040 -0.4848
11521TIP3    H155978   5.898   0.668  15.926 -0.5966  0.2452 -0.7492
11521TIP3    H255979   5.992   0.742  15.833  0.8710 -0.5027  0.0934
11522TIP3   OH255980   2.753   0.581  12.837  0.7459  0.0381  0.0472
11522TIP3    H155981   2.822   0.547  12.895 -0.8266 -3.2066  0.2392
11522TIP3    H255982   2.684   0.515  12.840  0.1652  0.0203 -4.8502
11523TIP3   OH255983   4.410   4.554   4.161  0.1916  0.5790 -0.2287
11523TIP3    H155984   4.346   4.485   4.143  0.9586 -0.5755  1.1611
11523TIP3    H255985   4.415   4.605   4.081 -3.1834  1.3496 -0.0957
11524TIP3   OH255986   3.905   5.508   3.016 -0.6387 -0.1354 -0.6518
11524TIP3    H155987   3.980   5.479   2.964 -0.1140  0.6674 -0.3615
11524TIP3    H255988   3.831   5.456   2.984  0.2592 -1.7753 -0.1470
11525TIP3   OH255989   6.449   5.719  15.513  0.7795 -0.8511  0.1933
11525TIP3    H155990   6.473   5.729  15.421 -0.0485  0.5330  0.1041
11525TIP3    H255991   6.524   5.754  15.561  0.7553 -0.5498  0.0156
11526TIP3   OH255992   2.313   6.121  15.866 -0.1986  0.3882 -0.6349
11526TIP3    H155993   2.375   6.106  15.937 -0.6898 -1.5701 -0.5606
11526TIP3    H255994   2.261   6.040  15.862 -0.3598  0.5474 -3.0589
11527TIP3   OH255995   2.704   1.181   3.311  0.4457  0.2684 -0.1659
11527TIP3    H155996   2.721   1.088   3.299 -0.2460  0.3833 -2.5845
11527TIP3    H255997   2.696   1.192   3.405  0.8868 -2.0488  0.1980
11528TIP3   OH255998   0.408   1.252  10.712 -0.1850  0.9277  0.2511
11528TIP3    H155999   0.336   1.292  10.662  0.7231  1.3085 -0.7937
11528TIP3    H256000   0.470   1.324  10.726  0.5420  0.3371  0.1034
11529TIP3   OH256001   5.108   5.957  15.682  0.0779  0.5433  0.3743
11529TIP3    H156002   5.194   5.928  15.651  0.9127  1.7853  1.3695
11529TIP3    H256003   5.079   6.020  15.616  1.1682  2.0601  1.2436
11530TIP3   OH256004   4.477   3.082  15.665 -0.3350  0.4018  0.1129
11530TIP3    H156005   4.483   3.177  15.658 -1.4045  0.4247 -0.7549
11530TIP3    H256006   4.549   3.049  15.611 -0.6057  0.7204 -0.4576
11531TIP3   OH256007   2.233   6.022   1.308  0.2629 -0.3906 -0.8061
11531TIP3    H156008   2.141   5.999   1.293  0.1356 -0.0086 -0.6158
11531TIP3    H256009   2.265   6.053   1.223  0.4708 -1.3761 -1.0988
11532TIP3   OH256010   6.305   0.543   0.014 -0.1208 -0.4908  0.0956
11532TIP3    H156011   6.371   0.488  -0.027  0.2776  0.1277 -0.0983
11532TIP3    H256012   6.352   0.621   0.043 -0.6752 -0.2528  0.3800
11533TIP3   OH256013   1.363   3.703  12.385 -0.0916 -0.0206  0.2079
11533TIP3    H156014   1.376   3.642  12.457 -0.1242 -0.3088 -0.0261
11533TIP3    H256015   1.369   3.790  12.425  1.0730 -0.1508  0.3674
11534TIP3   OH256016   5.111   2.930   0.812  0.4641 -0.6882  0.3806
11534TIP3    H156017   5.129   2.937   0.719  0.1240 -0.7332  0.3139
11534TIP3    H256018   5.175   2.865   0.843  0.3823 -0.8885  0.1286
11535TIP3   OH256019   3.473   6.095  15.231 -0.0935  0.2941 -0.3378
11535TIP3    H156020   3.549   6.139  15.194  0.1015 -0.1262 -0.4420
11535TIP3    H256021   3.451   6.146  15.309 -0.4872  1.1716 -0.9901
11536TIP3   OH256022   3.789   3.527  12.728  0.8682 -0.1374 -0.6847
11536TIP3    H156023   3.874   3.568  12.739  1.6096 -1.8482  0.5026
11536TIP3    H256024   3.771   3.487  12.813 -0.7659 -0.4640 -1.1541
11537TIP3   OH256025   3.277   2.157   5.084 -0.5204 -0.2277  0.0461
11537TIP3    H156026   3.357   2.163   5.135 -0.0681  1.7086 -0.7901
11537TIP3    H256027   3.294   2.087   5.020  0.6628  0.4067 -0.3593
11538TIP3   OH256028   3.133   4.638   6.064 -0.3626  0.4548 -0.4864
11538TIP3    H156029   3.162   4.559   6.018 -1.5158 -0.0015 -0.4674
11538TIP3    H256030   3.167   4.627   6.153 -0.1114  0.2191 -0.6077
11539TIP3   OH256031   3.815   6.127  16.839 -0.3091  0.1371 -0.2833
11539TIP3    H156032   3.893   6.128  16.894  0.3338  0.7451 -1.1750
11539TIP3    H256033   3.845   6.160  16.754 -2.1898  3.6491  0.2321
11540TIP3   OH256034   2.746   3.346  15.566  0.6598  0.0197  0.4092
11540TIP3    H156035   2.698   3.263  15.570 -0.7130  0.7846  0.1989
11540TIP3    H256036   2.836   3.320  15.547  0.3749 -1.4559  0.9299
11541TIP3   OH256037   4.761   6.397   4.595 -0.3744 -0.2463  0.5697
11541TIP3    H156038   4.682   6.437   4.558  0.1852  1.1308  0.8102
11541TIP3    H256039   4.828   6.412   4.529 -0.1869 -0.9755  0.5852
11542TIP3   OH256040   0.458   3.858   3.483  0.0424 -0.2528 -0.4476
11542TIP3    H156041   0.458   3.773   3.527  0.7037  0.2045  0.4959
11542TIP3    H256042   0.374   3.898   3.506 -0.1706 -0.5522 -0.7007
11543TIP3   OH256043   5.563   4.749   0.706 -0.3229  0.1176 -0.1179
11543TIP3    H156044   5.553   4.688   0.633 -0.8152  0.4247 -0.3134
11543TIP3    H256045   5.656   4.746   0.727 -0.7026 -2.7998  1.7053
11544TIP3   OH256046   3.816   5.581   1.539 -0.0262 -0.0304 -0.4893
11544TIP3    H156047   3.748   5.632   1.584 -0.0954 -0.0095 -0.6162
11544TIP3    H256048   3.838   5.512   1.600 -1.0646 -0.7971 -0.9431
11545TIP3   OH256049   5.815   6.742   5.062 -0.3742  0.0945  0.6267
11545TIP3    H156050   5.864   6.682   5.119  0.9485  1.6313  1.1821
11545TIP3    H256051   5.724   6.712   5.068  0.5027 -3.5696 -1.3041
11546TIP3   OH256052   3.200   1.219   0.478  0.7929 -0.1866 -0.0233
11546TIP3    H156053   3.191   1.273   0.555  0.0506 -0.3762  0.0286
11546TIP3    H256054   3.280   1.169   0.493  1.3780  0.7437  0.0111
11547TIP3   OH256055   5.357   2.430  15.170  0.0679 -0.1182 -0.1551
11547TIP3    H156056   5.410   2.350  15.164 -1.2336 -0.9034 -2.0531
11547TIP3    H256057   5.406   2.494  15.118 -0.8870 -0.9341 -2.1829
11548TIP3   OH256058   0.887   2.929  10.987  0.0416 -0.4708  0.5170
11548TIP3    H156059   0.924   2.960  10.904  0.1079 -1.5702  0.1248
11548TIP3    H256060   0.880   3.008  11.040 -2.3088  0.7386 -1.3849
11549TIP3   OH256061   3.142   6.095  15.118  0.5714  0.3792 -0.1716
11549TIP3    H156062   3.178   6.163  15.175  4.8838  0.0395 -2.0800
11549TIP3    H256063   3.124   6.022  15.177  0.1335  1.6297  1.3172
11550TIP3   OH256064   3.248   4.715   0.173  0.3421 -0.1618 -0.7812
11550TIP3    H156065   3.308   4.729   0.247 -0.8267 -0.2012  0.1922
11550TIP3    H256066   3.296   4.751   0.098  0.6828  1.9188  0.3412
11551TIP3   OH256067   6.322   3.431   4.994  0.5849  0.2368 -0.1019
11551TIP3    H156068   6.330   3.383   5.077 -2.2881  0.1575  0.2189
11551TIP3    H256069   6.365   3.515   5.012  0.3102  0.0979  1.3575
11552TIP3   OH256070   2.062   6.004  13.065  0.1850 -0.1733 -0.3070
11552TIP3    H156071   2.132   6.050  13.111  0.9480 -1.6873  0.0924
11552TIP3    H256072   1.991   5.999  13.129  1.3379 -2.5042  0.8824
11553TIP3   OH256073   5.204   2.562   1.233 -0.0093 -0.0428  0.0203
11553TIP3    H156074   5.209   2.468   1.252  0.5012 -0.0095  0.0606
11553TIP3    H256075   5.239   2.571   1.144 -1.2504 -0.0413 -0.5008
11554TIP3   OH256076   4.613   1.753  14.157  0.3463 -0.2961  0.2731
11554TIP3    H156077   4.557   1.677  14.170 -1.5561  0.8998 -0.5190
11554TIP3    H256078   4.573   1.823  14.209  0.8009  0.7245 -0.6959
11555TIP3   OH256079   6.362   3.919  15.050  0.1903 -0.1101  0.6481
11555TIP3    H156080   6.292   3.856  15.031  0.2305 -0.3841  1.3769
11555TIP3    H256081   6.316   3.996  15.082  0.1730  0.0265  0.2948
11556TIP3   OH256082   6.730   4.322  15.466  0.0591 -0.0068  0.5382
11556TIP3    H156083   6.769   4.244  15.507 -0.9311 -0.5118  0.5475
11556TIP3    H256084   6.799   4.355  15.409  0.0439 -1.6937 -0.5407
11557TIP3   OH256085   2.408   1.080  16.616  0.0790 -0.2947  0.4015
11557TIP3    H156086   2.437   1.017  16.682 -0.4386  0.9284  1.8384
11557TIP3    H256087   2.313   1.081  16.623 -0.0239 -0.4871 -0.7143
11558TIP3   OH256088   3.102   2.450  14.095 -0.4683  0.0669  0.3721
11558TIP3    H156089   3.111   2.529  14.148  2.0173  0.3949 -0.4230
11558TIP3    H256090   3.045   2.392  14.147  0.5303  0.9985  2.6206
11559TIP3   OH256091   4.008   2.804  12.818  0.1630  0.6937 -0.2411
11559TIP3    H156092   4.026   2.711  12.830  1.6065  0.9925  0.1675
11559TIP3    H256093   3.921   2.817  12.856 -0.0388 -0.4744 -0.2735
11560TIP3   OH256094   2.768   5.171  14.739 -0.1784  0.0896  0.0938
11560TIP3    H156095   2.862   5.171  14.758  0.1481  1.3077 -1.3562
11560TIP3    H256096   2.738   5.086  14.772  1.0899  0.3150  2.0727
11561TIP3   OH256097   6.782   2.376   0.880 -0.0957 -0.2360  0.4059
11561TIP3    H156098   6.707   2.369   0.938 -0.4533  0.2302  0.0091
11561TIP3    H256099   6.853   2.332   0.927 -0.4556 -0.1340  1.0559
11562TIP3   OH256100   5.926   5.105   3.441  0.0135  0.5164 -0.4871
11562TIP3    H156101   5.851   5.080   3.388  0.5568  0.0761 -1.0633
11562TIP3    H256102   5.995   5.044   3.415  0.1927  0.0509  0.9917
11563TIP3   OH256103   1.496   5.766   6.129 -0.6641  0.0366  0.2456
11563TIP3    H156104   1.478   5.721   6.211 -1.0753  1.2876  0.8655
11563TIP3    H256105   1.431   5.731   6.068  1.0389 -2.5858 -0.2668
11564TIP3   OH256106   4.037   3.913   4.631 -0.3213 -0.5751 -0.1288
11564TIP3    H156107   3.957   3.891   4.582 -1.6820  3.6444 -0.1829
11564TIP3    H256108   4.091   3.961   4.568  0.5711 -0.1527  0.9318
11565TIP3   OH256109   2.404   6.458  15.379 -0.3424 -0.0332 -0.6323
11565TIP3    H156110   2.451   6.521  15.324 -0.5946  0.8647  0.1476
11565TIP3    H256111   2.469   6.391  15.399  0.5259  1.0195  0.1580
11566TIP3   OH256112   0.400   6.443   0.894 -0.0258 -0.0078 -0.2873
11566TIP3    H156113   0.357   6.523   0.925 -0.6432 -0.5595  0.3085
11566TIP3    H256114   0.445   6.409   0.971 -2.4153 -1.9464  0.3652
11567TIP3   OH256115   2.421   3.949   4.172  0.5680  0.1296 -0.0932
11567TIP3    H156116   2.470   3.869   4.151  1.4765  0.5545  0.3633
11567TIP3    H256117   2.390   3.935   4.261 -1.0938 -0.5882 -0.7434
11568TIP3   OH256118   4.431   5.110  15.897  0.4171 -0.2253 -0.1398
11568TIP3    H156119   4.454   5.025  15.932  1.7769  0.0574 -0.3048
11568TIP3    H256120   4.502   5.132  15.836 -0.6781  0.3515 -1.2645
11569TIP3   OH256121   5.678   2.751  14.679 -0.3333 -0.2150 -0.1361
11569TIP3    H156122   5.651   2.842  14.683 -1.3561 -0.4919 -0.4792
11569TIP3    H256123   5.768   2.751  14.712 -0.9368  0.6456  1.6186
11570TIP3   OH256124   3.715   2.922   4.020 -0.2307  0.4467 -0.8049
11570TIP3    H156125   3.683   2.943   3.932 -1.2804 -0.0111 -0.5461
11570TIP3    H256126   3.640   2.881   4.063  0.9278 -1.3728 -0.4255
11571TIP3   OH256127   0.687   0.572   0.112 -0.1255  0.4410  0.0240
11571TIP3    H156128   0.658   0.481   0.108 -0.3375  0.5288 -0.4624
11571TIP3    H256129   0.720   0.582   0.201  0.4671 -0.2869 -0.0996
11572TIP3   OH256130   6.160   1.940   2.303  0.3038 -0.3751 -0.2125
11572TIP3    H156131   6.118   1.892   2.231 -0.9720  0.9404 -0.4000
11572TIP3    H256132   6.099   2.011   2.323  1.9360  0.9587  0.2858
11573TIP3   OH256133   6.545   0.875   4.638 -0.0145 -0.1021 -0.4394
11573TIP3    H156134   6.638   0.866   4.661  0.2442  0.1377 -1.3822
11573TIP3    H256135   6.515   0.784   4.628 -0.1103 -0.2139  0.7103
11574TIP3   OH256136   4.225   5.535  11.454  0.1173 -0.1641 -0.5001
11574TIP3    H156137   4.216   5.588  11.374 -1.0025 -0.9997 -0.9614
11574TIP3    H256138   4.143   5.487  11.459  1.2585 -2.1735 -0.3174
11575TIP3   OH256139   4.968   3.897   0.970  0.0888  0.4604  0.7605
11575TIP3    H156140   5.054   3.869   1.002  0.8786  0.0327 -1.5282
11575TIP3    H256141   4.909   3.882   1.044  1.7170 -0.5872  1.9259
11576TIP3   OH256142   4.382   0.388  13.618  0.4009  0.2503 -0.7072
11576TIP3    H156143   4.431   0.356  13.695 -1.0058  0.0575  0.1546
11576TIP3    H256144   4.422   0.472  13.597  0.3395  0.6872  0.7566
11577TIP3   OH256145   3.885   0.591   2.478 -0.3728 -0.4821 -0.0026
11577TIP3    H156146   3.883   0.676   2.434  0.4831 -1.0382 -1.1536
11577TIP3    H256147   3.947   0.603   2.550 -0.4432 -0.0642 -0.0109
11578TIP3   OH256148   1.800   4.087  13.794 -0.0627 -0.2742 -0.1057
11578TIP3    H156149   1.748   4.121  13.867 -0.3102 -0.9604  0.0462
11578TIP3    H256150   1.836   4.005  13.827  3.4127  1.4275  0.7947
11579TIP3   OH256151   2.628   3.676  11.486 -0.5059 -0.2327  0.9354
11579TIP3    H156152   2.654   3.605  11.428  1.5369 -0.7987  2.4132
11579TIP3    H256153   2.711   3.716  11.513 -1.4250  0.5324  2.8089
11580TIP3   OH256154   0.862   0.577   4.857  0.2674 -0.1869  0.3121
11580TIP3    H156155   0.916   0.588   4.779  2.2407  1.5463  1.7956
11580TIP3    H256156   0.876   0.486   4.883  0.9222 -0.3087 -0.4292
11581TIP3   OH256157   2.680   6.676   5.190 -0.0276  0.3618  0.1728
11581TIP3    H156158   2.768   6.658   5.222 -0.0050 -0.9062 -0.5277
11581TIP3    H256159   2.661   6.604   5.129 -2.0109 -0.1024  1.2166
11582TIP3   OH256160   0.957   0.835   4.139  0.1336 -0.5676 -0.1558
11582TIP3    H156161   0.906   0.776   4.084  0.9672 -1.4603  0.0103
11582TIP3    H256162   1.025   0.780   4.177  0.6177  0.3957  0.4113
11583TIP3   OH256163   2.854   4.273   2.663  0.1542  0.3615 -0.0363
11583TIP3    H156164   2.908   4.276   2.741 -0.8051 -0.0403  0.6558
11583TIP3    H256165   2.818   4.362   2.656 -1.3220 -0.1088  1.1260
11584TIP3   OH256166   6.025   0.925  16.366  0.4218 -0.2488 -0.5316
11584TIP3    H156167   6.116   0.915  16.395  0.1574  0.0918  0.4622
11584TIP3    H256168   6.029   0.993  16.298  0.7935  0.5208  0.2317
11585TIP3   OH256169   5.313   3.689   2.325  0.0948 -0.4049 -0.0016
11585TIP3    H156170   5.276   3.769   2.362  0.6830  0.2367 -0.7657
11585TIP3    H256171   5.287   3.620   2.387  0.6358  0.5433  1.3482
11586TIP3   OH256172   6.337   0.885   4.283  0.0897 -0.0614 -0.0085
11586TIP3    H156173   6.400   0.828   4.238 -0.8306 -1.5135  0.4767
11586TIP3    H256174   6.295   0.934   4.212 -0.1613 -1.0938 -0.5896
11587TIP3   OH256175   0.724   3.450  12.306 -0.3485 -0.5495 -0.1727
11587TIP3    H156176   0.769   3.483  12.383 -2.0378  0.1308  0.5832
11587TIP3    H256177   0.671   3.377  12.339 -0.2222 -0.9858 -0.9201
11588TIP3   OH256178   5.001   3.609  12.422 -0.7029 -0.3910 -0.8022
11588TIP3    H156179   5.011   3.557  12.343 -0.3001 -0.8220 -0.4705
11588TIP3    H256180   5.090   3.637  12.445 -0.6775 -1.1204  0.0629
11589TIP3   OH256181   2.197   3.920   3.991 -0.3296  0.8483 -0.0366
11589TIP3    H156182   2.279   3.912   4.039 -0.3051  1.0225 -0.0496
11589TIP3    H256183   2.169   3.829   3.976 -0.7774  0.7843  1.0662
11590TIP3   OH256184   2.276   6.647   2.124  0.0476  0.5316 -0.6042
11590TIP3    H156185   2.266   6.743   2.122 -0.4232  0.5596  1.2527
11590TIP3    H256186   2.369   6.634   2.144 -0.2236  0.6597  0.8320
11591TIP3   OH256187   4.816   4.973  12.203  0.5295  0.2513 -0.1451
11591TIP3    H156188   4.798   4.894  12.254 -0.3487  1.3536  1.3066
11591TIP3    H256189   4.765   4.961  12.123 -0.6008 -0.1105  0.6034
11592TIP3   OH256190   1.187   4.087   4.009  0.2211  0.6125 -0.6553
11592TIP3    H156191   1.119   4.024   3.985 -0.1889  0.9073 -0.2846
11592TIP3    H256192   1.148   4.172   3.991 -0.6939  0.9422  2.3654
11593TIP3   OH256193   1.128   4.090  11.756  0.4259 -0.8496  0.6666
11593TIP3    H156194   1.166   4.176  11.739 -2.9314  0.6924  0.0350
11593TIP3    H256195   1.099   4.059  11.670  0.3447 -1.9674  1.0813
11594TIP3   OH256196   2.678   1.341  16.054 -0.7672  0.0143  0.0305
11594TIP3    H156197   2.694   1.422  16.006  1.0521  0.0838  0.6974
11594TIP3    H256198   2.689   1.365  16.146 -0.8902 -0.8582  0.2838
11595TIP3   OH256199   4.614   1.131  12.215  0.0201 -0.1582 -0.3524
11595TIP3    H156200   4.525   1.096  12.224 -0.2251  0.4018 -0.5670
11595TIP3    H256201   4.671   1.059  12.244 -0.5271 -0.2734  0.4543
11596TIP3   OH256202   0.898   0.835  14.238 -0.0769 -0.0929  0.8974
11596TIP3    H156203   0.947   0.915  14.255 -1.0838  0.8816 -0.5084
11596TIP3    H256204   0.936   0.801  14.157  1.7914 -2.2901  2.5562
11597TIP3   OH256205   4.153   6.193  13.843 -0.1303 -0.1406 -0.1848
11597TIP3    H156206   4.131   6.274  13.797 -1.2147 -1.0021 -1.2607
11597TIP3    H256207   4.247   6.197  13.856 -0.3273  1.8616  0.9450
11598TIP3   OH256208   0.122   5.952   2.377 -0.6445  0.7009  0.2829
11598TIP3    H156209   0.165   6.037   2.386  2.0537 -0.6492  0.9823
11598TIP3    H256210   0.143   5.923   2.288  2.2393 -1.0570  1.4104
11599TIP3   OH256211   3.242   4.648   6.350  0.4013 -0.1217 -0.0245
11599TIP3    H156212   3.280   4.568   6.386  1.9862  0.7388  0.3347
11599TIP3    H256213   3.318   4.701   6.326 -0.5616  0.1304 -2.9776
11600TIP3   OH256214   2.314   2.483   0.518 -0.2183 -0.2393 -0.6584
11600TIP3    H156215   2.365   2.430   0.456  1.0221 -0.6203  0.6281
11600TIP3    H256216   2.378   2.543   0.556 -0.8908 -0.1982  0.4332
11601TIP3   OH256217   3.035   2.495  16.785 -0.2472 -0.0705  0.1319
11601TIP3    H156218   3.000   2.419  16.832 -1.5447 -0.7824 -1.8718
11601TIP3    H256219   3.078   2.546  16.853 -0.9885 -1.6307  1.8878
11602TIP3   OH256220   1.031   5.275   1.424  0.1359 -0.0100  0.1797
11602TIP3    H156221   0.952   5.301   1.471 -0.0574  1.3552 -0.8079
11602TIP3    H256222   1.008   5.194   1.380 -1.3579  1.2497 -1.4901
11603TIP3   OH256223   6.126   1.339   1.316 -0.0159  0.2351 -0.0896
11603TIP3    H156224   6.087   1.294   1.392 -0.4827 -0.4750 -0.7248
11603TIP3    H256225   6.089   1.427   1.320  0.7820  0.5440  1.0906
11604TIP3   OH256226   4.822   3.990   1.925  0.6095 -0.8815 -0.4201
11604TIP3    H156227   4.745   3.939   1.951  0.8690  0.1596  2.9074
11604TIP3    H256228   4.791   4.081   1.925  1.0290 -0.6875 -2.7012
11605TIP3   OH256229   1.399   5.663   0.076 -0.1241  0.6461 -0.1049
11605TIP3    H156230   1.344   5.693   0.148 -0.4496 -1.2631  0.5123
11605TIP3    H256231   1.480   5.712   0.085 -0.5431  1.1647  0.9499
11606TIP3   OH256232   2.798   2.543  10.755 -0.5997 -0.8143 -0.1317
11606TIP3    H156233   2.852   2.545  10.834 -0.6898 -0.6380 -0.0739
11606TIP3    H256234   2.837   2.474  10.701  0.8169  0.5325 -0.9110
11607TIP3   OH256235   3.362   6.731   3.060  0.5540  0.2844  0.3113
11607TIP3    H156236   3.424   6.740   3.133  1.0005  0.6502 -0.1038
11607TIP3    H256237   3.417   6.705   2.986  0.5976  2.7263 -0.6239
11608TIP3   OH256238   6.090   4.450   3.302  0.3093 -0.0690 -0.0630
11608TIP3    H156239   6.182   4.453   3.330  0.4444  1.4924 -0.5644
11608TIP3    H256240   6.078   4.361   3.269  1.6104 -0.3438  0.1215
11609TIP3   OH256241   0.173   6.004   4.446  0.5150 -0.3525 -0.0533
11609TIP3    H156242   0.142   5.924   4.490  0.7219  0.3601  1.4656
11609TIP3    H256243   0.165   5.985   4.353 -0.6637 -1.6710  0.2807
11610TIP3   OH256244   2.748   2.059  14.729 -0.0091  0.7981 -0.1293
11610TIP3    H156245   2.657   2.042  14.754  0.4070  0.5798  1.3866
11610TIP3    H256246   2.760   2.014  14.646 -1.0694  0.1569  0.0513
11611TIP3   OH256247   4.494   4.166  16.084 -0.5056 -0.1398 -0.0951
11611TIP3    H156248   4.455   4.097  16.030 -1.0814 -1.2082  1.6158
11611TIP3    H256249   4.419   4.213  16.120 -0.1253  0.5629 -0.2011
11612TIP3   OH256250   0.638   2.029   4.993  0.4090 -0.5917  0.5000
11612TIP3    H156251   0.621   2.123   4.981  2.1837 -0.1871  0.8412
11612TIP3    H256252   0.661   1.998   4.905  2.2990 -0.1152  0.7832
11613TIP3   OH256253   4.770   0.588   3.421  0.1480  0.5550 -0.4934
11613TIP3    H156254   4.784   0.535   3.343  0.7434  1.4381 -1.0084
11613TIP3    H256255   4.858   0.600   3.457 -0.1060  0.2689  0.2490
11614TIP3   OH256256   4.718   2.824  14.891 -0.3055  0.3024 -0.1057
11614TIP3    H156257   4.646   2.885  14.879 -1.6889 -0.7604  2.1752
11614TIP3    H256258   4.706   2.759  14.822 -0.6198  0.9314 -0.6565
11615TIP3   OH256259   4.058   4.368  16.222  1.0621  0.2700  0.4711
11615TIP3    H156260   4.056   4.387  16.316 -0.7889  1.3569  0.2696
11615TIP3    H256261   4.006   4.289  16.212  1.1164  0.2506  0.3440
11616TIP3   OH256262   1.439   2.762  16.635  0.5431  0.3131 -0.2492
11616TIP3    H156263   1.465   2.706  16.562 -1.8924 -1.0567 -0.1781
11616TIP3    H256264   1.344   2.763  16.632  0.4138  1.4278  2.0299
11617TIP3   OH256265   2.421   0.246   2.944 -0.0692  0.2862  0.3158
11617TIP3    H156266   2.491   0.205   2.994 -0.0215  2.1281  1.8902
11617TIP3    H256267   2.453   0.249   2.854  2.7102  2.5531  1.2212
11618TIP3   OH256268   0.948   4.319  14.838 -0.2448 -0.1853  0.2590
11618TIP3    H156269   0.947   4.410  14.808  2.6779  0.0037  0.3975
11618TIP3    H256270   0.875   4.278  14.792  0.1162  1.5823 -2.1266
11619TIP3   OH256271   1.166   3.701  15.918 -0.5379  0.1085  0.6367
11619TIP3    H156272   1.085   3.726  15.874 -1.7192  0.9119  3.1006
11619TIP3    H256273   1.140   3.632  15.979  0.7036  0.1171  1.2060
11620TIP3   OH256274   0.939   1.604  11.625 -0.4112  0.1110 -0.1712
11620TIP3    H156275   0.996   1.560  11.562  2.3058  1.1797  1.3579
11620TIP3    H256276   0.917   1.688  11.583  0.2693  0.2475 -0.2739
11621TIP3   OH256277   3.945   4.079  15.763  0.6019  0.9113 -0.0829
11621TIP3    H156278   4.002   4.099  15.689 -1.7644  3.3596 -1.4391
11621TIP3    H256279   3.888   4.156  15.771 -1.0936 -0.4517  2.5257
11622TIP3   OH256280   2.220   0.789   5.152  0.1184 -0.0621  0.1148
11622TIP3    H156281   2.170   0.742   5.219 -0.5828  1.1872  0.4906
11622TIP3    H256282   2.213   0.733   5.074  2.8739 -2.7232  1.5808
11623TIP3   OH256283   4.807   4.529   6.113  0.2841  0.5934  0.0729
11623TIP3    H156284   4.851   4.452   6.147 -1.6627  0.0533  1.5874
11623TIP3    H256285   4.860   4.603   6.144  2.0115 -0.0675 -1.1664
11624TIP3   OH256286   2.228   0.445   5.638 -0.1830  0.4141  0.1692
11624TIP3    H156287   2.231   0.378   5.707 -1.4538  1.2358  1.0724
11624TIP3    H256288   2.260   0.524   5.680 -1.8056  1.1421  0.1242
11625TIP3   OH256289   1.543   5.552   3.471  0.0583 -0.0445 -0.1174
11625TIP3    H156290   1.461   5.591   3.500 -0.6150 -1.8476  0.5373
11625TIP3    H256291   1.538   5.554   3.376 -1.1644 -0.9569 -0.0835
11626TIP3   OH256292   1.225   4.779  15.761  0.5143  0.1153  0.7265
11626TIP3    H156293   1.199   4.701  15.713  2.4189 -0.0161 -0.1845
11626TIP3    H256294   1.279   4.746  15.832  1.6257  0.6018  0.1281
11627TIP3   OH256295   1.968   6.640   6.271 -0.0078 -0.7935 -0.0232
11627TIP3    H156296   1.876   6.664   6.271  0.2660  0.2860  0.2089
11627TIP3    H256297   2.009   6.699   6.334  1.6742  2.0626 -3.4523
11628TIP3   OH256298   5.124   3.490  11.939 -0.7388  0.4147 -0.0941
11628TIP3    H156299   5.085   3.423  11.883  1.9003 -1.0972 -0.2720
11628TIP3    H256300   5.106   3.572  11.894 -2.3684 -0.3449 -0.8998
11629TIP3   OH256301   4.955   2.324  11.942  0.5519 -0.4706  0.0221
11629TIP3    H156302   5.037   2.357  11.979  0.0761  0.4978  0.2344
11629TIP3    H256303   4.982   2.252  11.884  1.6321  0.3139 -0.4815
11630TIP3   OH256304   2.673   5.699   3.371  0.9470 -0.2313 -0.7981
11630TIP3    H156305   2.765   5.694   3.396  0.3087  1.2395  2.3994
11630TIP3    H256306   2.626   5.676   3.451 -1.4531  0.8489 -1.8150
11631TIP3   OH256307   1.326   5.462  11.473 -0.2143  0.3380  0.4362
11631TIP3    H156308   1.359   5.533  11.528  0.2923  1.3858 -1.1424
11631TIP3    H256309   1.255   5.502  11.422  0.5626 -0.0503 -1.0166
11632TIP3   OH256310   5.663   2.922   4.954 -0.2179  0.1840 -0.8881
11632TIP3    H156311   5.739   2.864   4.951 -1.4838 -1.5511 -1.2821
11632TIP3    H256312   5.688   2.991   5.015  1.1597 -1.0673  0.0410
11633TIP3   OH256313   6.444   5.739  10.722  0.2202 -0.1405  0.2142
11633TIP3    H156314   6.393   5.661  10.700 -0.7910  0.9576 -1.6162
11633TIP3    H256315   6.501   5.753  10.646  3.5232 -1.4200  2.2655
11634TIP3   OH256316   6.240   6.168  13.328  0.3161  0.4082 -0.1958
11634TIP3    H156317   6.195   6.248  13.300 -0.5487 -0.0428 -0.1202
11634TIP3    H256318   6.329   6.179  13.296 -0.0458  0.9663 -1.0570
11635TIP3   OH256319   2.659   3.183   3.657  0.5268 -0.1696 -0.5758
11635TIP3    H156320   2.564   3.196   3.647  0.2913 -0.7490  0.6946
11635TIP3    H256321   2.697   3.268   3.636 -0.3733  0.4004  0.0122
11636TIP3   OH256322   2.350   1.481  14.292 -0.1704  0.0497 -0.3216
11636TIP3    H156323   2.409   1.462  14.365  1.0675 -0.0564 -1.3081
11636TIP3    H256324   2.347   1.399  14.242 -0.2975  0.3812 -0.8641
11637TIP3   OH256325   3.152   2.028   1.819  0.3376 -0.1406 -0.0375
11637TIP3    H156326   3.182   1.970   1.889 -0.5307  0.2081  0.6253
11637TIP3    H256327   3.233   2.065   1.783  0.8935 -1.5135 -0.2750
11638TIP3   OH256328   1.685   3.302   4.032 -0.1471  0.2462 -0.2723
11638TIP3    H156329   1.746   3.243   4.076  2.3530  0.4848 -3.1327
11638TIP3    H256330   1.644   3.249   3.964 -0.2246  1.0483 -0.8609
11639TIP3   OH256331   1.599   3.705   3.386 -0.4582  0.1190  0.5444
11639TIP3    H156332   1.526   3.654   3.350  0.4781 -1.3196  0.5967
11639TIP3    H256333   1.621   3.661   3.468  1.6514 -0.6615 -0.3560
11640TIP3   OH256334   0.865   2.058  14.719  0.5125  0.8024  0.0798
11640TIP3    H156335   0.799   2.003  14.678 -1.2506  0.9799  2.4388
11640TIP3    H256336   0.911   2.099  14.646  0.3815 -1.9776 -1.7333
11641TIP3   OH256337   0.530   6.003   4.160 -0.0733 -0.5524 -0.4371
11641TIP3    H156338   0.536   6.038   4.249 -2.4298  3.1753 -1.4895
11641TIP3    H256339   0.457   5.941   4.164 -1.6183  1.1891 -0.0751
11642TIP3   OH256340   3.794   2.522  14.047 -0.3776  0.0887  0.4765
11642TIP3    H156341   3.753   2.491  14.128 -0.5301 -1.8519 -0.2903
11642TIP3    H256342   3.722   2.558  13.996 -0.5388 -0.0899  0.5754
11643TIP3   OH256343   0.600   4.571  10.317  0.4677 -0.2925  0.2334
11643TIP3    H156344   0.666   4.618  10.368 -0.5384  0.0366  1.2835
11643TIP3    H256345   0.634   4.483  10.309  0.9788 -0.1671  0.9015
11644TIP3   OH256346   0.524   3.753  13.304 -0.0681 -0.0761  0.0011
11644TIP3    H156347   0.473   3.683  13.262  0.8897 -0.1398 -1.0899
11644TIP3    H256348   0.468   3.830  13.297 -2.3958 -1.1668  3.6646
11645TIP3   OH256349   3.296   6.686  12.235  0.0616  0.1444  0.4454
11645TIP3    H156350   3.332   6.774  12.242 -1.0320  0.6239  0.3348
11645TIP3    H256351   3.326   6.654  12.150 -0.8268  1.0360 -0.2169
11646TIP3   OH256352   1.095   3.409   4.720 -0.2193 -0.0009 -0.4072
11646TIP3    H156353   1.036   3.377   4.651  1.6468  0.7340 -2.4444
11646TIP3    H256354   1.091   3.504   4.713  0.3586  0.0717  0.1827
11647TIP3   OH256355   3.600   3.774   2.476 -0.2076  0.1942 -0.2043
11647TIP3    H156356   3.522   3.814   2.437 -0.4564  0.8241  0.8867
11647TIP3    H256357   3.580   3.771   2.570  0.1068 -1.8622 -0.1602
11648TIP3   OH256358   0.306   3.747  10.759 -0.1675  0.1433 -0.6318
11648TIP3    H156359   0.309   3.661  10.717  0.7146 -0.0213 -0.2579
11648TIP3    H256360   0.345   3.806  10.695  0.9255 -0.0611 -0.1754
11649TIP3   OH256361   4.234   3.060  11.212 -0.1537  0.3248 -0.2385
11649TIP3    H156362   4.146   3.023  11.209 -0.0895  0.2306 -1.0800
11649TIP3    H256363   4.284   3.000  11.267 -0.5181  0.1858 -0.0563
11650TIP3   OH256364   4.676   3.736  10.861  0.3440  0.0871 -0.6177
11650TIP3    H156365   4.737   3.790  10.810  1.0880 -1.3493 -1.2908
11650TIP3    H256366   4.640   3.673  10.798 -1.4354  0.5273 -0.1075
11651TIP3   OH256367   6.238   1.506   1.591  0.5002 -0.4281  0.0935
11651TIP3    H156368   6.179   1.432   1.576 -2.5149  1.5448  1.3873
11651TIP3    H256369   6.229   1.560   1.512  0.4809 -0.0574  0.3481
11652TIP3   OH256370   4.882   5.438   2.948  0.2475  0.1960 -0.2153
11652TIP3    H156371   4.832   5.357   2.945  0.2532  0.1606  0.4934
11652TIP3    H256372   4.817   5.507   2.939  0.0226  0.1580  0.9772
11653TIP3   OH256373   4.703   2.573   3.323 -0.3130  0.1736  0.8259
11653TIP3    H156374   4.644   2.569   3.398 -1.6476 -2.3280 -0.2417
11653TIP3    H256375   4.647   2.560   3.247  1.1024  1.8270 -0.6044
11654TIP3   OH256376   4.243   1.857   0.429  0.4112 -0.5164  0.3662
11654TIP3    H156377   4.246   1.844   0.524  1.3048 -1.1163  0.2661
11654TIP3    H256378   4.333   1.841   0.400  0.6927  1.9173 -0.3061
11655TIP3   OH256379   3.255   4.794  14.349 -0.1462  0.2912  0.3228
11655TIP3    H156380   3.210   4.743  14.416 -0.5095 -1.5638 -1.2272
11655TIP3    H256381   3.334   4.827  14.392 -1.4504  1.0486  2.2333
11656TIP3   OH256382   4.534   6.031   6.196  0.4794  0.0074 -0.2406
11656TIP3    H156383   4.553   6.003   6.285 -0.1342 -1.8540 -0.6611
11656TIP3    H256384   4.615   6.017   6.148  0.8979  1.2817  0.0571
11657TIP3   OH256385   1.399   0.955   6.298  0.0479  0.1011 -0.2736
11657TIP3    H156386   1.461   1.028   6.305 -1.3803  1.1971  2.0976
11657TIP3    H256387   1.384   0.928   6.388 -0.3576 -2.4361 -1.0221
11658TIP3   OH256388   1.396   4.817   4.535 -0.5568  0.3397 -0.0086
11658TIP3    H156389   1.415   4.865   4.616 -1.6135  2.1930 -0.7956
11658TIP3    H256390   1.348   4.880   4.481  0.5723 -0.6693 -2.3051
11659TIP3   OH256391   5.185   1.291  10.757 -0.9215 -0.4631 -0.0860
11659TIP3    H156392   5.230   1.375  10.748 -0.6301 -0.6147 -0.0773
11659TIP3    H256393   5.161   1.286  10.849  0.5711 -1.1280  0.3113
11660TIP3   OH256394   6.197   6.643   5.148 -0.5855 -0.4072  0.0901
11660TIP3    H156395   6.156   6.573   5.200 -0.2594 -1.9573 -1.6314
11660TIP3    H256396   6.289   6.618   5.142 -0.2510  0.7293  0.2752
11661TIP3   OH256397   4.585   2.729   5.471  0.3701 -0.0776  0.0795
11661TIP3    H156398   4.599   2.784   5.548 -2.3138 -0.0546  0.6541
11661TIP3    H256399   4.572   2.641   5.506  0.5025 -0.3135 -0.4607
11662TIP3   OH256400   6.419   3.800   2.325 -0.5576  0.3423 -0.3927
11662TIP3    H156401   6.393   3.744   2.251 -1.0744 -0.1998  0.1862
11662TIP3    H256402   6.506   3.831   2.301  1.7193 -4.0269  0.9894
11663TIP3   OH256403   4.806   3.944  15.340  0.4688  0.1385 -0.1274
11663TIP3    H156404   4.746   3.871  15.353 -0.3563  0.5979 -1.2359
11663TIP3    H256405   4.890   3.902  15.317 -0.0148 -0.4731 -0.8394
11664TIP3   OH256406   2.219   3.131  12.546 -0.0962 -0.2129 -0.4647
11664TIP3    H156407   2.131   3.123  12.582 -0.6246  1.9312 -1.0942
11664TIP3    H256408   2.246   3.041  12.527 -2.2462 -0.9089 -0.4737
11665TIP3   OH256409   2.969   0.846   4.593 -0.3764  0.1780 -0.1171
11665TIP3    H156410   2.957   0.924   4.646  0.9069  0.2248  0.1334
11665TIP3    H256411   3.063   0.841   4.577 -0.2590 -1.9303  0.8412
11666TIP3   OH256412   1.481   1.385   4.903  0.3878 -0.8204 -0.3286
11666TIP3    H156413   1.417   1.314   4.906  0.6252 -0.9984  1.5543
11666TIP3    H256414   1.534   1.366   4.825 -0.0290 -2.2842 -0.2884
11667TIP3   OH256415   2.878   6.097  11.770  0.2039 -0.1233 -0.6558
11667TIP3    H156416   2.908   6.144  11.848  1.7090  0.1864 -1.3979
11667TIP3    H256417   2.885   6.004  11.794  2.0904 -0.0721 -0.9011
11668TIP3   OH256418   3.071   2.753  11.435 -0.3719  0.3264 -0.3997
11668TIP3    H156419   3.117   2.762  11.352 -2.1143 -0.6707 -1.5412
11668TIP3    H256420   3.134   2.783  11.501  0.4322  3.0394 -2.2009
11669TIP3   OH256421   4.969   6.395   5.653 -0.3963 -0.3999 -0.1814
11669TIP3    H156422   4.879   6.366   5.639 -0.1572 -1.3902  0.2846
11669TIP3    H256423   5.021   6.337   5.598  0.0148 -0.2320  0.0319
11670TIP3   OH256424   0.285   0.002   4.244 -0.2998 -0.3410 -0.1054
11670TIP3    H156425   0.344   0.052   4.188 -1.5375  1.8737  0.4727
11670TIP3    H256426   0.339  -0.021   4.320  0.0781  0.8900  0.0192
11671TIP3   OH256427   6.311   5.649   3.958 -0.9506 -0.5921  0.5655
11671TIP3    H156428   6.311   5.744   3.946 -1.0964 -0.6648 -0.0677
11671TIP3    H256429   6.390   5.631   4.009  0.5890 -0.3792 -1.6028
11672TIP3   OH256430   4.200   0.755   3.893  0.0486  0.6693 -0.1449
11672TIP3    H156431   4.241   0.740   3.978 -0.8631  0.2821  0.2387
11672TIP3    H256432   4.219   0.676   3.843 -0.1996  0.5076  0.0173
11673TIP3   OH256433   0.538   4.974   0.519  0.1337  0.4528  0.2367
11673TIP3    H156434   0.503   4.961   0.431 -1.3394 -0.6095  0.9403
11673TIP3    H256435   0.483   5.041   0.558 -0.6050 -0.5858  1.0451
11674TIP3   OH256436   5.192   6.765  10.337  0.5129  0.0923 -0.1809
11674TIP3    H156437   5.149   6.832  10.391  1.2382 -0.2236  0.8025
11674TIP3    H256438   5.140   6.686  10.351 -0.5034  0.4695 -1.5499
11675TIP3   OH256439   4.965   6.545  16.371 -0.2207 -0.2072 -0.2478
11675TIP3    H156440   4.930   6.516  16.286 -1.2848 -0.3531  0.2254
11675TIP3    H256441   4.928   6.483  16.434 -0.1611  0.4383  0.4332
11676TIP3   OH256442   4.648   1.248  13.424 -0.0637 -0.1598 -0.3167
11676TIP3    H156443   4.599   1.296  13.490  0.7402 -0.9809  0.9134
11676TIP3    H256444   4.643   1.303  13.346  1.0854  2.1000  1.0926
11677TIP3   OH256445   6.694   1.263  10.957  0.1590 -0.1791 -0.5365
11677TIP3    H156446   6.657   1.273  10.869 -1.6980  1.6287  0.3460
11677TIP3    H256447   6.784   1.293  10.949 -0.4272  1.4339 -1.5524
11678TIP3   OH256448   4.440   0.793   4.086 -0.1604 -0.3956 -0.8017
11678TIP3    H156449   4.518   0.842   4.111 -0.1217 -0.3093 -1.0907
11678TIP3    H256450   4.468   0.738   4.013 -0.4519 -0.1033 -1.1422
11679TIP3   OH256451   1.440   5.913   4.037 -0.0293 -0.7840  0.0157
11679TIP3    H156452   1.377   5.974   4.075 -0.9093 -0.1887 -2.2529
11679TIP3    H256453   1.487   5.877   4.113 -2.8013 -0.9797  1.8096
11680TIP3   OH256454   2.312   1.497  10.792 -0.2964 -0.0067 -0.1348
11680TIP3    H156455   2.320   1.403  10.804  0.6622  0.0730 -0.1014
11680TIP3    H256456   2.325   1.534  10.880  1.1614  0.2509 -0.4352
11681TIP3   OH256457   3.070   3.238  13.309 -0.1176  0.1403  0.2172
11681TIP3    H156458   3.067   3.219  13.215 -1.2968 -0.7459  0.4046
11681TIP3    H256459   3.153   3.285  13.322  0.4564 -0.4395 -1.1354
11682TIP3   OH256460   5.831   3.762   2.492  0.4932 -0.6032  0.0937
11682TIP3    H156461   5.886   3.816   2.549  0.6759 -1.7797  1.0729
11682TIP3    H256462   5.742   3.776   2.524  0.5486 -0.9108  0.3961
11683TIP3   OH256463   4.461   4.500  14.162  0.0235  0.4795 -0.4608
11683TIP3    H156464   4.538   4.444  14.153 -1.4167 -1.4109 -1.9022
11683TIP3    H256465   4.471   4.540  14.248  1.9460 -0.7687 -0.0380
11684TIP3   OH256466   1.446   0.917   3.925  0.1242  0.4350 -0.0376
11684TIP3    H156467   1.442   0.920   3.830  1.0706  0.9491 -0.0765
11684TIP3    H256468   1.535   0.945   3.946  0.3347 -0.8751  0.9511
11685TIP3   OH256469   1.769   6.639  13.621 -0.4383 -0.2993 -0.0584
11685TIP3    H156470   1.730   6.657  13.707  0.5879  0.0438  0.3611
11685TIP3    H256471   1.695   6.618  13.565 -1.0519 -1.6428  1.1782
11686TIP3   OH256472   5.913   6.358  14.828  0.0523 -0.0656  0.2373
11686TIP3    H156473   5.945   6.268  14.831 -0.9136 -0.5212 -1.3198
11686TIP3    H256474   5.967   6.400  14.761 -0.2111  0.1908  0.1857
11687TIP3   OH256475   1.575   4.216   1.900 -0.0825  0.1472  0.3788
11687TIP3    H156476   1.667   4.192   1.910 -0.3726 -1.5935 -0.7781
11687TIP3    H256477   1.573   4.278   1.827  0.2083  0.5633  0.7186
11688TIP3   OH256478   6.583   0.938  14.628  0.2707  0.1480  0.7557
11688TIP3    H156479   6.558   1.028  14.649  0.9066  0.7873 -0.9987
11688TIP3    H256480   6.656   0.947  14.566  0.7941 -1.5916  1.0466
11689TIP3   OH256481   6.132   0.726   6.501 -0.9949 -0.4797  0.1928
11689TIP3    H156482   6.200   0.773   6.452 -1.5707  0.4904  0.2950
11689TIP3    H256483   6.176   0.647   6.533 -0.4893 -0.9277 -1.5094
11690TIP3   OH256484   0.230   0.310   2.073  0.0013 -0.3497 -0.6608
11690TIP3    H156485   0.222   0.390   2.124 -0.4712  0.2115 -1.5944
11690TIP3    H256486   0.243   0.241   2.138  1.3205  0.5951  0.0983
11691TIP3   OH256487   1.083   1.184   1.250  0.3355  0.8179 -0.1930
11691TIP3    H156488   1.095   1.090   1.259  2.1699  0.9479 -0.7409
11691TIP3    H256489   1.028   1.209   1.324  0.0634 -0.6399  0.1218
11692TIP3   OH256490   1.292   3.046  14.637 -0.4206  0.2803  0.3567
11692TIP3    H156491   1.286   3.141  14.622 -0.1973  0.7156  2.6265
11692TIP3    H256492   1.201   3.015  14.635 -0.4528  0.4254 -0.9454
11693TIP3   OH256493   4.351   2.782  10.315  0.2672 -0.3084  0.6080
11693TIP3    H156494   4.300   2.856  10.348 -0.2824 -0.3163 -0.1845
11693TIP3    H256495   4.431   2.822  10.280  0.0767 -0.1100  0.3949
11694TIP3   OH256496   4.054   0.945  16.613 -0.1440 -0.1950 -0.8417
11694TIP3    H156497   4.076   0.932  16.521 -0.8507  2.5213 -1.4670
11694TIP3    H256498   4.131   0.988  16.651 -0.5232  0.2857 -0.6073
11695TIP3   OH256499   4.896   2.848   4.795 -0.0022 -0.1125 -0.5954
11695TIP3    H156500   4.962   2.803   4.741 -2.1505 -2.7365 -1.2394
11695TIP3    H256501   4.920   2.826   4.885  0.4750 -0.3218 -0.7704
11696TIP3   OH256502   5.947   0.195   1.908  0.1097 -0.2890  0.0584
11696TIP3    H156503   5.852   0.191   1.905  0.0435  1.0558 -0.1887
11696TIP3    H256504   5.969   0.172   1.998 -0.6083  1.4668  0.7300
11697TIP3   OH256505   0.548   0.150  16.366 -0.7121 -0.7666 -0.1686
11697TIP3    H156506   0.595   0.232  16.381 -0.4163 -1.1750  1.2018
11697TIP3    H256507   0.524   0.154  16.273 -1.4276  1.2583  0.0390
11698TIP3   OH256508   6.652   6.359   0.675  0.7048  0.1439  0.1235
11698TIP3    H156509   6.694   6.435   0.636 -0.3648 -0.2002 -1.7986
11698TIP3    H256510   6.602   6.319   0.604  1.1966 -2.3539  1.0623
11699TIP3   OH256511   3.684   4.712   2.077 -0.7067  0.5971  1.0647
11699TIP3    H156512   3.605   4.755   2.108 -1.5899 -0.6061  0.5425
11699TIP3    H256513   3.660   4.619   2.070  0.4885  0.3403  0.0868
11700TIP3   OH256514   2.923   3.342   4.981 -0.2996  0.3387 -0.0233
11700TIP3    H156515   2.995   3.280   4.975  0.3656  1.1298 -0.3821
11700TIP3    H256516   2.951   3.417   4.928 -0.6611  1.3475  1.1571
11701TIP3   OH256517   6.622   5.493  11.791  0.7880  0.2188  0.1061
11701TIP3    H156518   6.549   5.432  11.807  0.2819  0.8191  0.1285
11701TIP3    H256519   6.652   5.517  11.879 -0.8935  2.2065  0.2261
11702TIP3   OH256520   0.773   5.935   4.110  0.2243 -0.0866  0.5909
11702TIP3    H156521   0.765   5.840   4.124  1.3799 -0.3581 -0.3721
11702TIP3    H256522   0.684   5.965   4.093  0.0679 -1.3315 -0.9798
11703TIP3   OH256523   3.464   1.864   3.572 -0.2568 -0.0181 -0.3764
11703TIP3    H156524   3.442   1.878   3.480  0.5956 -3.0868 -1.1454
11703TIP3    H256525   3.384   1.885   3.619 -0.8097  1.2991 -1.8018
11704TIP3   OH256526   5.456   0.351   5.376 -0.7190 -0.5165 -0.1807
11704TIP3    H156527   5.363   0.371   5.369 -0.5662  0.2421 -0.1158
11704TIP3    H256528   5.466   0.310   5.462 -0.8094  0.4904  0.3218
11705TIP3   OH256529   2.855   0.583   2.629 -0.6061  0.1415 -0.4175
11705TIP3    H156530   2.764   0.570   2.655 -0.7150  0.1181 -0.7958
11705TIP3    H256531   2.900   0.502   2.653 -1.2393 -0.9523 -2.6201
11706TIP3   OH256532   4.931   0.729   1.643 -0.0452  0.5532  0.2137
11706TIP3    H156533   4.842   0.754   1.669 -0.7401 -0.3126 -1.1780
11706TIP3    H256534   4.925   0.635   1.624  1.2276  0.4351  0.3239
11707TIP3   OH256535   3.679   2.569  11.592  0.0972 -0.3764  0.6953
11707TIP3    H156536   3.754   2.548  11.648  0.1780  0.3638  0.8731
11707TIP3    H256537   3.630   2.487  11.586  1.5130 -1.1773 -0.3463
11708TIP3   OH256538   6.726   5.201   5.947 -0.0207 -0.2680 -0.1067
11708TIP3    H156539   6.739   5.295   5.935 -0.2161 -0.5660 -3.9885
11708TIP3    H256540   6.810   5.168   5.978  0.6893  0.9334 -0.7057
11709TIP3   OH256541   6.312   5.030   4.181 -0.2264  0.3356  1.0990
11709TIP3    H156542   6.237   5.082   4.152 -0.0357  1.1070  1.9364
11709TIP3    H256543   6.294   4.941   4.150 -0.3238  0.9778 -0.8229
11710TIP3   OH256544   2.570   2.376   4.177 -0.0248  0.3383  0.0390
11710TIP3    H156545   2.499   2.349   4.236 -0.2107  0.3683 -0.1712
11710TIP3    H256546   2.646   2.385   4.234 -0.2724  0.6411  0.3227
11711TIP3   OH256547   5.676   5.672  14.734 -0.1759 -0.1077 -0.0765
11711TIP3    H156548   5.629   5.694  14.653  1.2446  1.2947 -0.5666
11711TIP3    H256549   5.659   5.579  14.746  0.6752 -0.7224 -2.7727
11712TIP3   OH256550   4.470   2.814  16.752 -0.4541 -0.2052 -0.4709
11712TIP3    H156551   4.490   2.738  16.805 -1.1062  0.5705  0.9383
11712TIP3    H256552   4.409   2.865  16.805 -2.2252 -0.0473 -2.5137
11713TIP3   OH256553   0.372   4.000  12.857  0.6377 -0.1575 -0.2597
11713TIP3    H156554   0.386   3.955  12.774  0.4083 -0.6644 -0.0319
11713TIP3    H256555   0.282   4.033  12.851  0.4868 -0.5239 -0.0676
11714TIP3   OH256556   4.822   4.150   1.682 -0.0486  0.2847  0.3971
11714TIP3    H156557   4.819   4.221   1.746  2.8902  0.7147  0.1964
11714TIP3    H256558   4.852   4.074   1.732 -0.5439 -0.1308  0.0763
11715TIP3   OH256559   5.063   0.638   2.814 -0.5075  0.3093  0.5751
11715TIP3    H156560   5.064   0.698   2.740  1.0502 -0.1470  0.2090
11715TIP3    H256561   5.022   0.688   2.885 -2.3109  0.6422 -0.6324
11716TIP3   OH256562   1.751   4.751   3.835 -0.6964  0.7080 -0.0351
11716TIP3    H156563   1.745   4.836   3.791 -0.2130  1.1355  0.7056
11716TIP3    H256564   1.736   4.771   3.927 -0.5974 -0.0224  0.1431
11717TIP3   OH256565   4.568   1.792  12.848  0.3444 -0.2327 -0.4905
11717TIP3    H156566   4.563   1.704  12.811 -1.7308 -1.6181  2.6798
11717TIP3    H256567   4.631   1.785  12.920 -0.8545  0.4846  0.6596
11718TIP3   OH256568   1.359   0.307  11.809 -0.3336 -0.0885  0.6506
11718TIP3    H156569   1.392   0.377  11.865  1.0239 -1.4803  1.7016
11718TIP3    H256570   1.438   0.266  11.773 -1.1038 -0.7912 -0.2728
11719TIP3   OH256571   1.651   0.339   4.029 -0.5987  0.4110  0.0847
11719TIP3    H156572   1.704   0.259   4.023 -0.1414  0.6182  1.1221
11719TIP3    H256573   1.604   0.330   4.113  0.3998  1.7698  0.8267
11720TIP3   OH256574   1.703   0.652  15.108  0.3142  0.1933 -0.3182
11720TIP3    H156575   1.665   0.585  15.164  0.9034 -0.6967 -0.9559
11720TIP3    H256576   1.628   0.700  15.073 -0.0631  1.0230  1.4950
11721TIP3   OH256577   1.566   6.664  12.930 -0.0764  0.6610 -0.0526
11721TIP3    H156578   1.612   6.639  12.850 -0.6865  1.5265 -0.6888
11721TIP3    H256579   1.554   6.582  12.978 -1.8822 -0.2823 -1.9909
11722TIP3   OH256580   5.292   3.295   6.565 -0.1167  0.4436 -0.2859
11722TIP3    H156581   5.322   3.214   6.525 -0.4696  0.0727  0.1900
11722TIP3    H256582   5.241   3.339   6.497 -1.6235 -0.6870  0.0674
11723TIP3   OH256583   5.523   5.407  11.064  0.6259  0.3392  0.1649
11723TIP3    H156584   5.509   5.357  10.983 -0.4038  1.7239 -0.5648
11723TIP3    H256585   5.466   5.365  11.129  1.1833 -0.5616  0.0797
11724TIP3   OH256586   3.219   6.372   1.581  0.8533  0.2463 -0.0236
11724TIP3    H156587   3.178   6.423   1.511  1.9897  0.8237 -0.3068
11724TIP3    H256588   3.239   6.437   1.648 -1.2350 -0.4593  1.3927
11725TIP3   OH256589   2.517   0.435  13.714 -0.3715  0.1298  0.4397
11725TIP3    H156590   2.471   0.351  13.704 -0.7406  0.1717  1.5948
11725TIP3    H256591   2.459   0.487  13.771  0.6185  0.5731  1.0586
11726TIP3   OH256592   4.126   1.481   4.425 -0.6486  0.3956 -0.3199
11726TIP3    H156593   4.207   1.532   4.416  1.5220 -2.3773  1.6337
11726TIP3    H256594   4.143   1.401   4.375 -1.7638 -0.6974  0.9877
11727TIP3   OH256595   4.462   5.086  12.950 -0.1380  0.0746  0.1577
11727TIP3    H156596   4.419   5.135  13.020 -0.5948  0.2789 -0.2686
11727TIP3    H256597   4.441   4.995  12.969 -0.0387  0.1074  0.4371
11728TIP3   OH256598   4.161   1.013   1.230  0.0833 -0.5120  0.2572
11728TIP3    H156599   4.202   1.035   1.314 -0.7199  1.0382  0.2743
11728TIP3    H256600   4.220   0.949   1.191  0.2111 -1.6437  2.2168
11729TIP3   OH256601   3.886   1.289  14.474  0.2317  0.0817 -0.4891
11729TIP3    H156602   3.842   1.216  14.431 -1.0810  1.3720 -1.4492
11729TIP3    H256603   3.965   1.304  14.421  1.6284 -1.8638  0.8958
11730TIP3   OH256604   1.468   4.947  14.966 -0.5734  0.4364  0.1568
11730TIP3    H156605   1.440   4.984  15.050 -2.9791 -0.0271 -0.3747
11730TIP3    H256606   1.400   4.974  14.904  0.4628 -0.3392 -1.3879
11731TIP3   OH256607   2.402   3.688   4.657  0.4837 -1.3127  0.1874
11731TIP3    H156608   2.388   3.691   4.752  1.4578 -0.4698  0.3211
11731TIP3    H256609   2.489   3.727   4.644  0.3963 -1.4799 -1.0501
11732TIP3   OH256610   6.262   2.589  15.176  0.1619  0.2246  0.8726
11732TIP3    H156611   6.200   2.553  15.239 -0.6764 -2.2637 -1.1728
11732TIP3    H256612   6.332   2.627  15.229 -0.4031 -1.8492  3.2757
11733TIP3   OH256613   1.251   4.713  13.248  0.3758  0.1530 -0.0483
11733TIP3    H156614   1.211   4.769  13.182 -0.7071 -1.0512 -0.4463
11733TIP3    H256615   1.181   4.696  13.311  0.1131 -2.1822 -0.8769
11734TIP3   OH256616   4.558   1.144  10.470 -0.2391 -0.8689 -0.1954
11734TIP3    H156617   4.637   1.127  10.420  0.9468  0.0441  1.2636
11734TIP3    H256618   4.569   1.234  10.502 -1.6673 -0.8744  0.3829
11735TIP3   OH256619   6.514   3.820  15.484  0.6332 -0.6113  0.0099
11735TIP3    H156620   6.567   3.893  15.451 -1.4295  1.0787  0.1381
11735TIP3    H256621   6.435   3.823  15.430 -0.9706 -0.5224  2.2475
11736TIP3   OH256622   0.660   2.371  12.618  0.0566  0.3264 -0.1120
11736TIP3    H156623   0.664   2.436  12.689  0.0278  1.8563 -1.4625
11736TIP3    H256624   0.595   2.307  12.648 -1.2457  1.8693  0.5081
11737TIP3   OH256625   2.477   5.066  16.544 -0.6731  0.0754  0.2777
11737TIP3    H156626   2.466   5.030  16.632 -0.1818 -2.1912 -0.5265
11737TIP3    H256627   2.540   5.137  16.555  1.1622 -1.6438  1.4533
11738TIP3   OH256628   3.861   5.596  11.178 -0.2583  0.5316  0.0832
11738TIP3    H156629   3.872   5.519  11.122 -1.3973  0.5171 -0.1342
11738TIP3    H256630   3.864   5.561  11.267  0.1664  0.3715  0.0116
11739TIP3   OH256631   4.523   4.937   0.467 -0.2271  0.9747  0.2428
11739TIP3    H156632   4.516   4.848   0.435  1.8341  1.0740 -0.6215
11739TIP3    H256633   4.503   4.992   0.391 -1.5083  1.2858  0.7741
11740TIP3   OH256634   4.267   5.700  14.622  0.5433  0.3016 -0.2206
11740TIP3    H156635   4.247   5.639  14.693  1.5310  1.0426  0.7230
11740TIP3    H256636   4.316   5.770  14.664 -0.8922  1.9700 -1.2031
11741TIP3   OH256637   1.919   0.674   1.908 -0.3338 -0.2809 -0.3500
11741TIP3    H156638   1.868   0.742   1.952  1.3823  0.2149  0.9986
11741TIP3    H256639   1.984   0.647   1.974  0.6305 -1.4184 -1.7127
11742TIP3   OH256640   2.467   2.629  13.667 -0.0215 -0.1768 -0.7141
11742TIP3    H156641   2.505   2.650  13.752  0.0193 -0.8008 -0.5740
11742TIP3    H256642   2.537   2.647  13.604 -1.0428  3.5208 -1.0177
11743TIP3   OH256643   3.039   2.722  10.478 -0.6906 -0.0619  0.4479
11743TIP3    H156644   3.075   2.805  10.446  0.6938 -0.7781  0.0691
11743TIP3    H256645   3.062   2.720  10.571  1.1727 -0.9349  0.0145
11744TIP3   OH256646   0.401   2.083   0.917  0.0382  0.1220  0.0471
11744TIP3    H156647   0.313   2.087   0.880  0.2708 -0.2003 -0.5629
11744TIP3    H256648   0.456   2.124   0.851  0.3080  0.5915  0.5599
11745TIP3   OH256649   4.183   6.659   4.493  0.2216 -0.2066 -0.0053
11745TIP3    H156650   4.158   6.702   4.411  0.1577  2.0438  1.1373
11745TIP3    H256651   4.264   6.611   4.471  0.3680  0.5932 -1.3057
11746TIP3   OH256652   4.479   4.256   5.460  0.1865  0.1947 -0.3761
11746TIP3    H156653   4.436   4.195   5.520  0.7696  0.0236 -0.1373
11746TIP3    H256654   4.428   4.337   5.468 -0.7810 -0.3397 -0.9181
11747TIP3   OH256655   1.332   4.786  16.156  0.2575 -0.2376  0.0770
11747TIP3    H156656   1.400   4.726  16.125 -0.0325  0.4234 -2.0394
11747TIP3    H256657   1.250   4.740  16.137  0.0107  1.0152 -2.1944
11748TIP3   OH256658   4.131   4.029   4.412  0.8408 -0.2366  0.1182
11748TIP3    H156659   4.118   4.104   4.353  0.7581 -0.1907  0.1951
11748TIP3    H256660   4.223   4.035   4.438  0.6800  0.1995  0.6157
11749TIP3   OH256661   0.199   2.183  14.382  0.1072  0.1010  0.1202
11749TIP3    H156662   0.288   2.191  14.414  0.2400 -2.1680  0.5082
11749TIP3    H256663   0.145   2.222  14.450  0.7877  2.1118 -0.4269
11750TIP3   OH256664   3.702   6.267   6.587 -0.9307  0.8465 -0.0246
11750TIP3    H156665   3.769   6.311   6.640 -1.5855 -0.1068  1.7096
11750TIP3    H256666   3.623   6.318   6.602 -0.8239  1.4150 -1.2978
11751TIP3   OH256667   5.745   1.446   5.593 -0.8147  0.3229  0.4977
11751TIP3    H156668   5.733   1.437   5.688  0.5546 -1.0735  0.5757
11751TIP3    H256669   5.823   1.503   5.586 -0.5853 -0.0272  0.2247
11752TIP3   OH256670   4.393   4.603  16.761  0.0604 -0.3699 -0.3411
11752TIP3    H156671   4.311   4.555  16.750 -1.1533  1.1236  1.6686
11752TIP3    H256672   4.457   4.535  16.784 -1.3537 -1.2313  1.3002
11753TIP3   OH256673   1.386   4.061   3.781 -0.1361 -0.0472  0.3598
11753TIP3    H156674   1.308   4.011   3.808 -1.4951  2.2952  1.0854
11753TIP3    H256675   1.411   4.023   3.697 -2.8506 -0.1094 -0.5193
11754TIP3   OH256676   2.715   2.429   3.471  0.1140 -0.2432 -0.5863
11754TIP3    H156677   2.663   2.352   3.448 -2.0435  1.3769 -1.5024
11754TIP3    H256678   2.769   2.446   3.394  1.8078 -1.6768  0.2062
11755TIP3   OH256679   0.818   0.504  12.767  0.3204  0.1010  0.2880
11755TIP3    H156680   0.911   0.488  12.749  0.1855 -2.4674  1.4475
11755TIP3    H256681   0.814   0.597  12.786  2.6110  0.3546 -0.0841
11756TIP3   OH256682   0.638   5.934   0.457 -0.9189  0.2092  0.4220
11756TIP3    H156683   0.546   5.944   0.484 -1.3442 -1.1612 -0.4314
11756TIP3    H256684   0.660   5.843   0.477  0.0944  0.3804  0.1537
11757TIP3   OH256685   0.947   2.055  12.885  0.1804  0.1162 -0.0028
11757TIP3    H156686   1.042   2.063  12.895  0.3460 -0.3092 -1.0980
11757TIP3    H256687   0.916   2.145  12.878  0.2300  0.3801  2.4438
11758TIP3   OH256688   0.042   0.381  12.779 -1.0317  0.2322  0.0166
11758TIP3    H156689   0.009   0.459  12.736 -0.5288 -0.2353 -1.2651
11758TIP3    H256690   0.054   0.317  12.708 -1.1262 -0.8990  0.9822
11759TIP3   OH256691   5.070   4.905   4.278  0.9500 -0.1499 -0.0101
11759TIP3    H156692   5.015   4.827   4.278  0.1728  0.3865  0.0308
11759TIP3    H256693   5.115   4.903   4.193  1.0192 -0.6931  0.0383
11760TIP3   OH256694   4.105   4.261  13.129  0.3258  0.1458 -0.4659
11760TIP3    H156695   4.030   4.204  13.113 -0.8265  1.0464  1.3923
11760TIP3    H256696   4.141   4.230  13.213  2.2603 -0.4475 -1.4470
11761TIP3   OH256697   1.298   1.233   2.120  0.9689 -0.2373  0.4126
11761TIP3    H156698   1.263   1.167   2.060 -0.6339  0.8420  0.0956
11761TIP3    H256699   1.247   1.223   2.200  1.4274 -0.0608  0.7294
11762TIP3   OH256700   2.655   1.008   2.838  0.2401  0.1947  0.3454
11762TIP3    H156701   2.713   0.956   2.782  0.5271  0.8384  0.0419
11762TIP3    H256702   2.646   1.092   2.793 -0.3431  0.3622  0.7599
11763TIP3   OH256703   0.458   4.778   5.696  0.4310 -0.5199  0.3417
11763TIP3    H156704   0.540   4.731   5.676  0.4778  0.2637 -1.4438
11763TIP3    H256705   0.389   4.715   5.676  0.5063 -0.0021 -1.7304
11764TIP3   OH256706   5.711   3.232   5.473  0.2811  0.4666  0.0955
11764TIP3    H156707   5.787   3.259   5.422  0.2625 -0.3091 -0.3510
11764TIP3    H256708   5.747   3.204   5.558  0.5751 -0.5002 -0.3343
11765TIP3   OH256709   3.025   1.364  13.848  0.7240 -0.2113  0.4067
11765TIP3    H156710   3.119   1.372  13.862  0.8057 -1.2551  0.5083
11765TIP3    H256711   2.992   1.453  13.860  1.6659  0.1364  0.5479
11766TIP3   OH256712   5.896   6.195  15.814  0.1222  0.0687  0.3830
11766TIP3    H156713   5.807   6.162  15.815  0.1903 -0.1060  0.9047
11766TIP3    H256714   5.917   6.212  15.906  0.6276  0.1029  0.2664
11767TIP3   OH256715   1.104   5.300   6.950 -0.2268  1.1603 -0.3398
11767TIP3    H156716   1.174   5.253   6.905 -0.7602 -0.3671  0.3629
11767TIP3    H256717   1.031   5.298   6.888 -0.7616 -0.3954  0.2983
11768TIP3   OH256718   4.116   6.047   6.080  0.1869  0.2099 -0.2935
11768TIP3    H156719   4.148   6.130   6.043  1.4806 -0.2963 -0.3780
11768TIP3    H256720   4.104   5.990   6.005 -1.2915  0.4950 -0.2883
11769TIP3   OH256721   4.259   1.070  11.277 -0.3329 -0.5991 -0.1375
11769TIP3    H156722   4.282   0.997  11.220  1.8078  1.4825 -2.1616
11769TIP3    H256723   4.186   1.114  11.233 -0.6181 -0.6227  0.2977
11770TIP3   OH256724   4.923   4.296  10.633 -0.2274 -0.3885 -0.4960
11770TIP3    H156725   4.833   4.296  10.599 -0.1656 -0.6081 -0.6644
11770TIP3    H256726   4.948   4.204  10.632 -0.7211 -0.5840  1.5006
11771TIP3   OH256727   6.335   6.108   5.820  0.1891 -0.2026  0.4391
11771TIP3    H156728   6.304   6.093   5.909  1.5339  0.0611  0.9755
11771TIP3    H256729   6.346   6.203   5.813  1.2207 -0.3086  0.4132
11772TIP3   OH256730   3.846   0.310   5.778 -0.5164  0.1769  0.0532
11772TIP3    H156731   3.830   0.230   5.728 -0.4930  0.1536  0.0831
11772TIP3    H256732   3.921   0.351   5.735  0.5986 -0.7039  1.0922
11773TIP3   OH256733   5.313   1.133  14.120 -0.9755  0.5596  0.4020
11773TIP3    H156734   5.357   1.211  14.155 -0.2590  0.4908 -0.3086
11773TIP3    H256735   5.356   1.117  14.036  0.7858 -2.1562  1.6633
11774TIP3   OH256736   3.966   1.695   4.291 -0.1854  0.0430  0.3358
11774TIP3    H156737   4.020   1.637   4.344 -0.0645 -0.0210  0.1435
11774TIP3    H256738   3.999   1.684   4.202  0.2175  0.8425  0.3830
11775TIP3   OH256739   1.188   2.182   3.083  0.5027  0.1828  0.3611
11775TIP3    H156740   1.226   2.199   3.169  2.1466  0.5345 -0.3958
11775TIP3    H256741   1.207   2.090   3.067  0.6021  0.2314  0.1967
11776TIP3   OH256742   5.298   0.144   2.054  0.4416  0.7915  0.0152
11776TIP3    H156743   5.391   0.154   2.074  1.1628 -0.5603 -2.2141
11776TIP3    H256744   5.253   0.190   2.124  2.8061  2.7414  0.3979
11777TIP3   OH256745   4.872   3.060  12.347  0.1136  0.3793 -0.0773
11777TIP3    H156746   4.849   3.105  12.266 -0.7625  1.1050  0.5589
11777TIP3    H256747   4.870   2.967  12.324  0.9163  0.6097 -1.1450
11778TIP3   OH256748   4.514   5.961  12.344  0.0252  0.4159 -0.2362
11778TIP3    H156749   4.488   6.053  12.349 -1.2587  0.0614  0.1001
11778TIP3    H256750   4.577   5.957  12.273 -1.2910  1.2577 -1.5025
11779TIP3   OH256751   3.189   1.237  15.168  0.0567  0.4093 -0.6401
11779TIP3    H156752   3.226   1.238  15.256 -0.6972  1.0361 -0.3240
11779TIP3    H256753   3.246   1.177  15.119 -0.6354 -1.4454  0.7353
11780TIP3   OH256754   5.038   2.919  10.847  0.0169  0.6577  0.8118
11780TIP3    H156755   5.072   2.830  10.857  0.7293  0.8174 -0.0499
11780TIP3    H256756   5.106   2.965  10.796 -2.5645  0.3044 -3.4211
11781TIP3   OH256757   0.400   6.498   0.575 -0.3074  0.3844 -0.0949
11781TIP3    H156758   0.388   6.562   0.506  0.1841  0.7160  0.1248
11781TIP3    H256759   0.360   6.538   0.652  2.4573  1.6988  0.7610
11782TIP3   OH256760   2.393   1.546  15.084  0.3093  0.4601  0.1836
11782TIP3    H156761   2.465   1.527  15.143  0.1721  0.1492  0.2534
11782TIP3    H256762   2.331   1.597  15.137  0.2338  0.2696  0.2789
11783TIP3   OH256763   2.747   3.325   4.184 -0.2513  0.3650  0.2791
11783TIP3    H156764   2.670   3.314   4.239 -0.6366 -1.1988 -0.4942
11783TIP3    H256765   2.818   3.342   4.245 -1.0020  0.7298  1.0860
11784TIP3   OH256766   0.328   5.439  12.000 -0.2046 -0.3394  0.2458
11784TIP3    H156767   0.401   5.420  11.942  1.9870  0.1566  2.6244
11784TIP3    H256768   0.348   5.526  12.035 -0.8847 -0.9623  2.3666
11785TIP3   OH256769   6.496   5.850  12.767  0.5859 -0.2701  0.6262
11785TIP3    H156770   6.575   5.827  12.718 -0.1366 -1.0526 -0.2326
11785TIP3    H256771   6.444   5.901  12.705  1.1159  1.6920  1.7298
11786TIP3   OH256772   3.830   6.563  11.627  0.2687 -0.1272  0.3123
11786TIP3    H156773   3.885   6.602  11.559 -0.3535 -1.5273 -1.0642
11786TIP3    H256774   3.758   6.626  11.638 -1.1065 -1.0347 -2.3742
11787TIP3   OH256775   3.107   6.468   4.607  0.0182 -0.2447  0.3529
11787TIP3    H156776   3.048   6.455   4.681  0.2708  2.0454  1.0248
11787TIP3    H256777   3.195   6.461   4.644  0.1846 -1.1354 -0.1636
11788TIP3   OH256778   3.055   3.030   3.080  0.9382 -0.2945  0.2043
11788TIP3    H156779   3.035   2.940   3.104  1.6841 -0.7178 -0.7103
11788TIP3    H256780   2.991   3.052   3.012  1.4692 -0.5292 -0.3797
11789TIP3   OH256781   1.787   4.813   4.882  0.4378  0.0540 -0.2415
11789TIP3    H156782   1.739   4.730   4.892 -0.6187  0.6213 -0.4596
11789TIP3    H256783   1.821   4.810   4.793  0.6968 -0.2866 -0.1359
11790TIP3   OH256784   4.660   0.375   6.281 -0.1649  0.1489  0.0140
11790TIP3    H156785   4.701   0.328   6.354 -0.8262  0.0385  0.3216
11790TIP3    H256786   4.616   0.307   6.230  2.4437 -0.1895 -2.0204
11791TIP3   OH256787   2.169   6.327   1.357  0.4991 -0.4783  0.6783
11791TIP3    H156788   2.176   6.415   1.322 -0.9233 -0.7701 -0.4322
11791TIP3    H256789   2.134   6.275   1.285  2.0831 -2.1594  1.0234
11792TIP3   OH256790   3.455   0.587   0.774  0.4425  0.0304  0.4042
11792TIP3    H156791   3.468   0.628   0.688  1.0602  0.7753  0.8401
11792TIP3    H256792   3.361   0.596   0.791  0.7397  2.6246  1.1192
11793TIP3   OH256793   5.355   4.840  14.871 -0.1466  0.0092 -0.1767
11793TIP3    H156794   5.426   4.778  14.851  0.5502  0.4845  0.7412
11793TIP3    H256795   5.398   4.925  14.873 -0.5402  0.1882  1.3870
11794TIP3   OH256796   1.770   1.793   4.512  0.4946 -0.7884  0.1351
11794TIP3    H156797   1.771   1.719   4.450 -3.3915 -0.7693 -0.1958
11794TIP3    H256798   1.760   1.870   4.456  0.5031 -0.3981  0.6706
11795TIP3   OH256799   5.691   2.883  16.135 -0.0797  0.3062  0.5818
11795TIP3    H156800   5.769   2.828  16.128  0.4213  1.0784 -0.1643
11795TIP3    H256801   5.713   2.947  16.203 -0.6495 -0.3721  1.4275
11796TIP3   OH256802   2.051   4.513  16.251  0.2743  0.0229  0.2363
11796TIP3    H156803   2.102   4.592  16.271  0.0769  0.1565  0.2070
11796TIP3    H256804   2.117   4.443  16.246  0.3340 -0.0409  1.4499
11797TIP3   OH256805   5.092   1.776  14.036  1.0029 -0.2173 -0.1258
11797TIP3    H156806   5.169   1.790  14.092  0.4502  1.2136  0.3281
11797TIP3    H256807   5.092   1.850  13.976 -1.9349  1.9404  2.1996
11798TIP3   OH256808   2.985   1.774  11.288 -0.1904 -0.5773  0.2224
11798TIP3    H156809   2.958   1.713  11.357 -1.7931 -1.6863 -1.2989
11798TIP3    H256810   2.963   1.729  11.207  0.4018  1.2522 -1.0092
11799TIP3   OH256811   5.610   2.737  13.840 -0.7193 -0.1475 -0.1358
11799TIP3    H156812   5.516   2.723  13.833 -0.9004  1.1225 -0.5996
11799TIP3    H256813   5.619   2.832  13.851  0.5858  0.1411 -2.7707
11800TIP3   OH256814   3.110   4.067   2.002  0.7619  0.2807 -1.0206
11800TIP3    H156815   3.021   4.032   1.994  0.1791  1.4753 -0.1472
11800TIP3    H256816   3.166   3.989   2.005 -0.4122 -0.5816  0.2083
11801TIP3   OH256817   5.641   0.095   5.878  0.1329  0.4536  0.3144
11801TIP3    H156818   5.640   0.070   5.970 -0.2724 -1.2486 -0.1306
11801TIP3    H256819   5.612   0.187   5.879 -0.1109  0.3958  1.8462
11802TIP3   OH256820   1.096   2.406   0.554  0.2150 -0.4062  0.2319
11802TIP3    H156821   1.134   2.461   0.486  0.7461  0.3827  1.1395
11802TIP3    H256822   1.007   2.438   0.565  0.7716  0.8535  1.3179
11803TIP3   OH256823   4.120   0.236   3.225  0.4764  0.4192  0.0335
11803TIP3    H156824   4.146   0.273   3.309 -2.0959  2.7333 -0.0437
11803TIP3    H256825   4.170   0.286   3.161  1.2296 -0.2310  0.0980
11804TIP3   OH256826   3.287   2.451   0.796  0.3781  0.3748  0.0975
11804TIP3    H156827   3.327   2.383   0.743  0.1867 -0.5755  1.1249
11804TIP3    H256828   3.206   2.411   0.828 -1.0462  1.9837 -1.3143
11805TIP3   OH256829   3.558   6.622   0.600 -0.3157  0.3253  0.4777
11805TIP3    H156830   3.580   6.529   0.609  0.4888  0.6081  1.6635
11805TIP3    H256831   3.612   6.666   0.666 -1.1009  1.5761  0.3206
11806TIP3   OH256832   1.031   2.365  17.168  0.9974 -0.2542 -0.1020
11806TIP3    H156833   0.983   2.313  17.105 -0.2518  0.7532 -0.0170
11806TIP3    H256834   1.052   2.446  17.121 -2.8185  1.9580  1.6052
11807TIP3   OH256835   1.985   6.106  11.601  0.3784 -0.4906 -0.1147
11807TIP3    H156836   2.003   6.128  11.509  2.1633 -2.0170 -0.1901
11807TIP3    H256837   2.066   6.067  11.633 -0.1996  0.0101  2.1537
11808TIP3   OH256838   2.933   1.294  13.302 -0.2049  0.1317 -0.3653
11808TIP3    H156839   2.929   1.334  13.389  2.1947  0.7415 -0.4716
11808TIP3    H256840   3.027   1.292  13.281 -0.6464 -1.0479 -2.4689
11809TIP3   OH256841   0.188   1.743   0.499 -0.1736 -0.3863  0.2301
11809TIP3    H156842   0.246   1.771   0.570  0.4885 -0.1459 -0.3834
11809TIP3    H256843   0.213   1.652   0.482 -1.1512 -0.8302  1.0861
11810TIP3   OH256844   6.394   6.650   2.100 -0.0312  0.8211  0.4705
11810TIP3    H156845   6.468   6.611   2.053 -1.3158  0.1772 -1.0941
11810TIP3    H256846   6.432   6.682   2.182  1.5075 -1.9170  0.9469
11811TIP3   OH256847   6.385   6.280   1.931 -0.5610  0.3072  0.2582
11811TIP3    H156848   6.437   6.352   1.965 -1.9136  1.2043  0.5043
11811TIP3    H256849   6.410   6.272   1.839 -1.9229  2.5810 -0.3977
11812TIP3   OH256850   6.623   3.051   1.631 -0.7568  0.1819  0.0441
11812TIP3    H156851   6.666   3.017   1.710 -0.6429  1.2792  0.4642
11812TIP3    H256852   6.594   3.139   1.655  0.4184  1.0547 -1.5293
11813TIP3   OH256853   0.927   6.011  15.819  0.3784 -0.5695 -0.0319
11813TIP3    H156854   0.855   6.056  15.863  1.4746 -0.0278  1.2541
11813TIP3    H256855   0.949   5.937  15.876  2.8368  1.0215  1.2682
11814TIP3   OH256856   0.645   0.582  12.262 -0.0894  0.2481  0.3553
11814TIP3    H156857   0.716   0.642  12.241 -1.9351  1.8551 -1.8455
11814TIP3    H256858   0.610   0.613  12.346  0.0391  1.2239  0.0536
11815TIP3   OH256859   3.368   2.242   2.571  0.6813 -0.1641  0.3727
11815TIP3    H156860   3.403   2.221   2.484  1.5206 -1.1786  0.9435
11815TIP3    H256861   3.314   2.320   2.556  0.5058 -0.5380 -1.1223
11816TIP3   OH256862   0.922   4.077   1.451 -0.4461  0.0137 -0.0405
11816TIP3    H156863   1.007   4.101   1.413 -0.1960 -1.2560 -0.3108
11816TIP3    H256864   0.904   4.147   1.514 -0.2982  1.5354 -1.6221
11817TIP3   OH256865   3.622   2.798   1.128  0.6991 -0.2436  0.0253
11817TIP3    H156866   3.602   2.704   1.136  0.3086 -0.1248  0.4591
11817TIP3    H256867   3.636   2.827   1.218 -0.7445  0.4530  0.0444
11818TIP3   OH256868   3.427   5.288   3.080 -0.1551  0.3775  0.6257
11818TIP3    H156869   3.461   5.200   3.090 -0.3467  0.1005 -0.8637
11818TIP3    H256870   3.340   5.276   3.041  0.0950  1.2128 -0.2461
11819TIP3   OH256871   0.351   5.962  10.980 -0.0516  0.0509  0.8070
11819TIP3    H156872   0.330   5.943  10.889 -0.7353 -0.8295  1.1375
11819TIP3    H256873   0.445   5.983  10.979  0.2532 -1.2509  0.0958
11820TIP3   OH256874   2.473   3.479   2.290 -0.3204  0.3039 -0.0423
11820TIP3    H156875   2.559   3.521   2.291 -0.2535  0.1939 -0.5591
11820TIP3    H256876   2.414   3.544   2.325  0.0505  0.1996  0.7999
11821TIP3   OH256877   1.835   0.092   1.268 -0.1987  0.0032 -0.2444
11821TIP3    H156878   1.862   0.180   1.243  2.1218 -0.3409  0.8030
11821TIP3    H256879   1.902   0.035   1.229 -2.0072 -1.4087 -1.4650
11822TIP3   OH256880   0.563   0.932  16.550 -0.1702 -0.1666  0.2066
11822TIP3    H156881   0.478   0.918  16.509 -0.9532  1.5969  1.1117
11822TIP3    H256882   0.545   0.929  16.644  1.1860 -1.9382  0.4599
11823TIP3   OH256883   2.148   3.892  15.013  0.4446  0.7937  0.3435
11823TIP3    H156884   2.223   3.916  15.069  1.9638  0.0540 -1.2646
11823TIP3    H256885   2.136   3.968  14.956  1.6724 -0.0069 -1.0695
11824TIP3   OH256886   2.986   2.441   5.951 -0.1559  0.0409 -0.1745
11824TIP3    H156887   3.062   2.436   6.008  1.4023  0.6378 -2.1223
11824TIP3    H256888   2.911   2.435   6.011  1.3233  2.9806  2.1983
11825TIP3   OH256889   6.578   4.727   4.952 -0.5094  0.0296 -0.2533
11825TIP3    H156890   6.545   4.800   4.899 -0.4698  0.3029  0.0927
11825TIP3    H256891   6.512   4.658   4.942 -0.3447 -0.0378 -0.9056
11826TIP3   OH256892   5.833   2.535   4.570  0.0718 -0.0771 -0.0117
11826TIP3    H156893   5.855   2.576   4.487  0.4130  0.3940  0.3089
11826TIP3    H256894   5.757   2.479   4.550 -0.9662  1.3773 -0.2587
11827TIP3   OH256895   5.718   6.158  16.580  0.3025  0.0851  0.1399
11827TIP3    H156896   5.750   6.124  16.664 -0.9842  1.3287  1.2076
11827TIP3    H256897   5.651   6.096  16.553 -0.7402  0.7387  1.1333
11828TIP3   OH256898   0.799   0.597  11.346 -0.3762  0.5957 -0.4701
11828TIP3    H156899   0.705   0.606  11.360 -0.9771 -0.9629 -2.8704
11828TIP3    H256900   0.816   0.504  11.356  1.1436  0.9924  0.9365
11829TIP3   OH256901   0.847   3.346   3.123 -0.0349  0.3463 -0.5072
11829TIP3    H156902   0.883   3.388   3.202 -0.8856  1.0298 -0.4653
11829TIP3    H256903   0.923   3.332   3.067  0.2742  2.1954 -0.6298
11830TIP3   OH256904   6.442   4.069   4.857 -0.0645  0.1708 -0.5284
11830TIP3    H156905   6.371   4.120   4.898  1.2512  0.3373  1.7402
11830TIP3    H256906   6.418   3.978   4.873 -1.3506  0.0786 -2.6916
11831TIP3   OH256907   1.883   0.741   5.617  0.2025 -0.5151  0.2363
11831TIP3    H156908   1.801   0.771   5.658  0.6332  0.9236  0.0904
11831TIP3    H256909   1.911   0.668   5.672  0.3998  0.9146  2.1468
11832TIP3   OH256910   5.924   4.947   2.335  0.5621 -0.2856  0.0474
11832TIP3    H156911   5.935   4.921   2.244  0.8714 -0.4092  0.1204
11832TIP3    H256912   6.012   4.967   2.366  0.5759 -1.1219  0.5765
11833TIP3   OH256913   5.279   0.664   4.183  0.1850 -0.1876  0.2971
11833TIP3    H156914   5.200   0.609   4.182  1.1160 -1.5807 -1.2957
11833TIP3    H256915   5.262   0.731   4.117  0.4329 -0.6486 -0.2382
11834TIP3   OH256916   4.274   6.707   1.770  0.2007 -0.2000 -0.2791
11834TIP3    H156917   4.265   6.622   1.728  0.1006 -0.5775  0.5011
11834TIP3    H256918   4.243   6.694   1.860 -1.1986  1.0077 -0.5493
11835TIP3   OH256919   3.690   6.658  15.468  0.4217 -0.6540 -0.0347
11835TIP3    H156920   3.624   6.645  15.399  0.1759 -0.4756  0.1640
11835TIP3    H256921   3.662   6.600  15.539 -0.0575  0.1159  0.4221
11836TIP3   OH256922   0.803   5.973   5.764 -0.6673  0.5113  0.2724
11836TIP3    H156923   0.731   6.003   5.820 -0.1464  1.6879  0.3352
11836TIP3    H256924   0.860   6.049   5.756  0.9645 -0.6080  0.8188
11837TIP3   OH256925   3.426   3.277  12.309 -0.3070  0.0104  0.4435
11837TIP3    H156926   3.369   3.211  12.270  2.2311 -1.0856 -1.6693
11837TIP3    H256927   3.456   3.237  12.391 -0.4105 -0.5790  0.1963
11838TIP3   OH256928   5.289   1.981  11.591 -0.2862  0.0986  0.5879
11838TIP3    H156929   5.277   1.929  11.511  2.7303 -1.6411  1.0886
11838TIP3    H256930   5.302   2.070  11.559  0.2450 -0.4515 -0.8474
11839TIP3   OH256931   3.805   2.045   5.015  0.6635  0.1015  0.3106
11839TIP3    H156932   3.772   1.976   5.072  1.3760 -0.5586 -0.0669
11839TIP3    H256933   3.829   2.116   5.075 -1.4087  0.6264  0.6042
11840TIP3   OH256934   2.919   2.484   0.413 -0.4890 -0.8788  0.3884
11840TIP3    H156935   2.978   2.512   0.483  0.2345  1.4289 -1.0591
11840TIP3    H256936   2.969   2.419   0.363  0.1041 -0.3401  0.2851
11841TIP3   OH256937   3.546   0.947   0.768 -0.1666 -0.3047 -0.3329
11841TIP3    H156938   3.544   1.022   0.828  0.3990  1.0987 -2.0007
11841TIP3    H256939   3.453   0.928   0.752 -0.3902  1.5811 -1.6654
11842TIP3   OH256940   0.174   0.239  11.856 -0.0363 -0.4932 -0.0152
11842TIP3    H156941   0.201   0.203  11.940  0.6203  0.3471  0.1423
11842TIP3    H256942   0.081   0.258  11.866  0.6703  2.7025  1.7033
11843TIP3   OH256943   6.695   3.479  12.425  0.8466 -0.5455 -0.0295
11843TIP3    H156944   6.662   3.423  12.495  2.3139 -1.1486  0.2241
11843TIP3    H256945   6.654   3.564  12.440 -2.4139 -1.7825 -1.1437
11844TIP3   OH256946   3.771   0.397   4.798  0.3713  0.3344  0.0932
11844TIP3    H156947   3.862   0.404   4.767  0.0129  0.9735 -0.8888
11844TIP3    H256948   3.719   0.401   4.718 -0.4727 -2.0373  0.4676
11845TIP3   OH256949   0.846   4.056   5.929  0.4414 -0.3138  0.3804
11845TIP3    H156950   0.881   4.144   5.915  0.9852 -0.5105  0.5014
11845TIP3    H256951   0.921   4.004   5.959  0.1164 -0.8097  0.3485
11846TIP3   OH256952   5.324   4.869  16.364 -0.1028  0.6861 -0.1194
11846TIP3    H156953   5.332   4.775  16.348 -0.7642  1.1404 -3.9512
11846TIP3    H256954   5.412   4.896  16.391  0.2940 -0.8888  0.2368
11847TIP3   OH256955   0.795   0.791   3.923  0.6460  0.2000 -0.3596
11847TIP3    H156956   0.797   0.880   3.891  2.6668  0.0469 -0.7575
11847TIP3    H256957   0.748   0.742   3.856  0.0331  0.8431 -0.4111
11848TIP3   OH256958   6.085   2.494  13.291  0.3246  0.4862  0.1522
11848TIP3    H156959   6.174   2.524  13.274  0.5394 -1.0763 -1.8815
11848TIP3    H256960   6.065   2.436  13.217 -2.1667  0.3307  0.8693
11849TIP3   OH256961   6.368   5.345  10.812  0.0477 -0.1199 -0.2205
11849TIP3    H156962   6.368   5.421  10.754 -0.5496 -1.7293 -2.4433
11849TIP3    H256963   6.294   5.360  10.871 -3.3829 -1.1696 -3.8526
11850TIP3   OH256964   3.079   4.500   0.150 -0.1032  0.2858  0.1338
11850TIP3    H156965   3.023   4.536   0.219  0.2730  1.9078 -0.3554
11850TIP3    H256966   3.141   4.571   0.132 -0.2947 -0.0478 -1.9765
11851TIP3   OH256967   4.064   1.207  11.159  0.3409  0.7980  0.5763
11851TIP3    H156968   4.053   1.218  11.064  0.1417 -3.8933 -0.1806
11851TIP3    H256969   3.979   1.229  11.196 -0.8719 -1.1125 -0.9150
11852TIP3   OH256970   3.679   5.709   3.157 -0.4352  0.0254 -0.0077
11852TIP3    H156971   3.704   5.625   3.196 -2.8768 -0.0447  1.6252
11852TIP3    H256972   3.757   5.764   3.165  0.7961 -1.6546  0.1038
11853TIP3   OH256973   2.186   0.680  15.222  0.4019 -0.2938  0.1005
11853TIP3    H156974   2.223   0.595  15.197  0.3709 -0.7905  1.6555
11853TIP3    H256975   2.260   0.730  15.256  0.3376  0.1511 -0.3974
11854TIP3   OH256976   3.628   3.928  12.792 -0.3977 -0.2771 -0.0611
11854TIP3    H156977   3.576   3.990  12.842  0.5142 -0.5954  1.3458
11854TIP3    H256978   3.716   3.936  12.828 -0.0231 -1.5891 -0.6166
11855TIP3   OH256979   0.579   0.956  13.180 -0.1372 -0.3483 -0.7185
11855TIP3    H156980   0.646   0.927  13.118  0.1317  0.1818 -0.6881
11855TIP3    H256981   0.510   0.993  13.125 -1.0254 -2.0780 -0.8222
11856TIP3   OH256982   0.131   1.452   1.207 -0.4714 -0.0100 -0.3664
11856TIP3    H156983   0.147   1.381   1.270 -1.2210 -0.1009 -0.2793
11856TIP3    H256984   0.154   1.413   1.122 -2.6191 -0.9876 -0.5636
11857TIP3   OH256985   6.648   2.310   2.302  0.7879  0.0494  0.3234
11857TIP3    H156986   6.604   2.342   2.381  1.0890 -0.3527  0.6659
11857TIP3    H256987   6.605   2.356   2.230 -1.0470 -1.2011  0.5336
11858TIP3   OH256988   3.288   5.034   4.058 -0.5673  0.8441  0.0170
11858TIP3    H156989   3.307   5.097   3.988 -2.1600  0.8938 -0.4241
11858TIP3    H256990   3.228   4.972   4.017 -0.7266  0.2970  1.0618
11859TIP3   OH256991   1.756   3.323   1.833  0.2701 -1.0627 -0.4721
11859TIP3    H156992   1.666   3.332   1.803 -0.2467 -1.2167  0.9660
11859TIP3    H256993   1.763   3.232   1.861  1.3295 -1.4644 -1.9060
11860TIP3   OH256994   2.466   1.610  15.559  0.3202 -0.3615  0.3229
11860TIP3    H156995   2.404   1.683  15.551 -0.4622 -1.0532 -0.0958
11860TIP3    H256996   2.543   1.649  15.600  0.4497  1.0084 -1.1126
11861TIP3   OH256997   6.059   1.020   4.319 -0.3418  0.0486  0.3776
11861TIP3    H156998   6.126   1.027   4.250 -0.0426 -0.0134  0.6618
11861TIP3    H256999   6.105   0.982   4.394 -0.9925 -1.2265  0.1707
11862TIP3   OH257000   2.825   5.856   5.193  0.0116  0.0200  0.7641
11862TIP3    H157001   2.833   5.948   5.220  1.2411 -0.0526  0.7086
11862TIP3    H257002   2.736   5.848   5.160 -0.4267  0.9445  1.7022
11863TIP3   OH257003   6.553   1.978  11.134 -0.3909  0.3128 -0.2701
11863TIP3    H157004   6.636   1.940  11.166 -0.5016  0.5718  0.3486
11863TIP3    H257005   6.523   1.916  11.068 -0.4136 -0.5355  0.5034
11864TIP3   OH257006   6.482   2.086  11.814 -0.3696  0.1365  0.2226
11864TIP3    H157007   6.483   2.098  11.719  0.0649  1.2458  0.3541
11864TIP3    H257008   6.458   2.172  11.849 -1.2461 -0.4363  1.1012
11865TIP3   OH257009   5.002   4.878   6.648  0.0445  0.6516  0.0347
11865TIP3    H157010   4.967   4.904   6.733 -0.1297  0.2878  0.0758
11865TIP3    H257011   5.017   4.960   6.602 -0.1019  0.8397  0.3230
11866TIP3   OH257012   1.156   2.475   4.732 -0.2516 -0.2557  0.5569
11866TIP3    H157013   1.154   2.556   4.784  0.3948  0.3762 -0.3687
11866TIP3    H257014   1.227   2.489   4.670 -1.1314 -0.9049 -0.6313
11867TIP3   OH257015   5.272   2.872   3.368 -0.4536 -0.4455 -0.0889
11867TIP3    H157016   5.357   2.830   3.353 -0.4429 -0.7270  0.7134
11867TIP3    H257017   5.208   2.803   3.351 -0.6840  0.3320 -2.9008
11868TIP3   OH257018   2.964   3.824  12.733  0.1546  0.8515  0.7503
11868TIP3    H157019   2.890   3.831  12.673  1.7621  0.8192 -1.3421
11868TIP3    H257020   3.013   3.748  12.702  1.6989  1.5679  1.3352
11869TIP3   OH257021   1.904   1.562   5.217  0.1487  0.5892  0.0207
11869TIP3    H157022   1.894   1.580   5.123  1.8640  0.3516 -0.2549
11869TIP3    H257023   1.826   1.513   5.241 -0.6295  1.2265 -1.1340
11870TIP3   OH257024   6.163   3.879  12.258 -0.2311  0.0531 -0.4433
11870TIP3    H157025   6.149   3.892  12.164  0.0422 -0.0763 -0.5037
11870TIP3    H257026   6.080   3.843  12.289  0.1040 -1.1468 -0.8833
11871TIP3   OH257027   1.214   0.716   1.479  0.4207 -0.1667  0.7109
11871TIP3    H157028   1.168   0.673   1.408 -2.3590  0.4903  1.9989
11871TIP3    H257029   1.231   0.805   1.447  0.1555 -0.2054  0.4630
11872TIP3   OH257030   1.862   3.993   5.973 -0.1132 -0.1834 -0.8792
11872TIP3    H157031   1.899   4.080   5.993  2.8813 -1.7581  1.2941
11872TIP3    H257032   1.775   3.995   6.012  1.6268  0.4552  3.5535
11873TIP3   OH257033   0.416   1.894  11.600 -0.0479 -0.2652  0.1296
11873TIP3    H157034   0.440   1.851  11.682 -1.3970  0.4278  0.9225
11873TIP3    H257035   0.438   1.987  11.614  2.1821 -0.4827 -1.3056
11874TIP3   OH257036   1.562   2.370  15.406 -0.4235  0.1105 -0.2915
11874TIP3    H157037   1.636   2.402  15.353  1.1807  2.3534  2.9496
11874TIP3    H257038   1.603   2.329  15.482 -2.4831  1.1541  1.4805
11875TIP3   OH257039   1.359   6.559  16.794  0.4127 -0.2040 -0.1180
11875TIP3    H157040   1.426   6.597  16.737  1.4578 -0.8261  0.6570
11875TIP3    H257041   1.276   6.586  16.754  1.0702  2.4140  0.0571
11876TIP3   OH257042   3.884   1.060  12.386 -0.6579  0.3968  0.0763
11876TIP3    H157043   3.808   1.010  12.418 -0.7843 -0.0674 -0.9076
11876TIP3    H257044   3.863   1.079  12.294  1.1472 -1.2274 -0.7468
11877TIP3   OH257045   3.363   5.511   2.852 -0.2347 -0.2571  0.3083
11877TIP3    H157046   3.370   5.497   2.947 -0.9432  0.3137  0.4476
11877TIP3    H257047   3.409   5.436   2.814 -0.1812 -0.6367  1.0989
11878TIP3   OH257048   6.353   2.057  14.116 -0.2214 -0.4272 -0.0604
11878TIP3    H157049   6.312   2.081  14.199  1.4075  1.1946  0.3342
11878TIP3    H257050   6.431   2.007  14.141 -0.0895 -0.5178 -0.6434
11879TIP3   OH257051   6.263   5.760   2.654 -0.3959  0.5189  0.4357
11879TIP3    H157052   6.283   5.675   2.615  0.0771  1.1569 -0.7960
11879TIP3    H257053   6.347   5.806   2.653 -1.0307  1.7543 -0.9365
11880TIP3   OH257054   3.452   3.150   4.821 -0.6253  0.3019 -0.6221
11880TIP3    H157055   3.411   3.084   4.765 -0.1515 -0.9540  0.4818
11880TIP3    H257056   3.534   3.170   4.777 -0.0072 -1.0722 -0.1471
11881TIP3   OH257057   2.050   0.136  16.549 -0.1067 -0.2330 -0.0533
11881TIP3    H157058   1.966   0.163  16.584 -1.2022 -1.5522 -1.4902
11881TIP3    H257059   2.110   0.141  16.623 -1.4207  0.8063  0.9921
11882TIP3   OH257060   2.676   5.096   3.573 -0.3294  0.3005 -0.0673
11882TIP3    H157061   2.736   5.030   3.537 -0.5271 -1.2536  2.2075
11882TIP3    H257062   2.628   5.129   3.497  1.9307  0.1172 -1.6951
11883TIP3   OH257063   3.369   6.692   3.639  0.2135  0.0677  0.1120
11883TIP3    H157064   3.424   6.769   3.658  2.3690 -1.3894  0.1768
11883TIP3    H257065   3.357   6.650   3.724 -0.7745  0.2066  0.0444
11884TIP3   OH257066   6.052   1.225  15.880  0.5312 -0.4670  0.2918
11884TIP3    H157067   6.073   1.148  15.827  2.2768 -0.1546  0.4825
11884TIP3    H257068   6.137   1.262  15.904 -0.2627  1.2571  0.6027
11885TIP3   OH257069   6.224   2.011   4.698  0.0907  0.8071 -0.2176
11885TIP3    H157070   6.151   2.008   4.636 -0.2140  1.5909  0.0961
11885TIP3    H257071   6.218   2.098   4.738  0.0094  0.1419  1.2536
11886TIP3   OH257072   1.276   5.745   1.454 -0.0019  0.5616  0.7930
11886TIP3    H157073   1.227   5.676   1.409 -0.0954 -0.2204  2.0409
11886TIP3    H257074   1.354   5.758   1.400  0.0773 -0.6124  0.5901
11887TIP3   OH257075   3.264   0.682  16.540 -0.1583 -0.7632  0.6611
11887TIP3    H157076   3.307   0.719  16.617 -0.1092 -0.8715  0.6853
11887TIP3    H257077   3.313   0.602  16.521 -0.4408 -0.9657  0.7791
11888TIP3   OH257078   6.776   0.410   4.482  0.3621 -0.0842  0.0842
11888TIP3    H157079   6.754   0.489   4.434  1.1738 -1.1324 -2.1692
11888TIP3    H257080   6.871   0.415   4.494  0.4058 -0.6708  0.0015
11889TIP3   OH257081   0.372   2.151   5.181 -0.4393 -0.0556  0.6814
11889TIP3    H157082   0.426   2.169   5.258  1.8180  0.0222 -0.8085
11889TIP3    H257083   0.433   2.115   5.117 -2.7938 -3.1039 -0.0747
11890TIP3   OH257084   3.814   5.085  15.298 -0.2468 -0.4941 -0.0771
11890TIP3    H157085   3.832   5.141  15.373 -1.0935  1.8355 -1.5116
11890TIP3    H257086   3.752   5.020  15.330 -0.0274 -0.0034  1.4100
11891TIP3   OH257087   6.107   1.079   5.625  0.2684  0.5199  0.2556
11891TIP3    H157088   6.181   1.022   5.604 -0.8244 -1.2583  1.0001
11891TIP3    H257089   6.043   1.062   5.556  0.0684  1.1703  0.2701
11892TIP3   OH257090   1.945   1.898  10.264  0.4019  0.1570 -0.1122
11892TIP3    H157091   1.880   1.958  10.300 -0.5600 -1.0484  0.2516
11892TIP3    H257092   1.941   1.821  10.322  2.4559  0.2111  0.1570
11893TIP3   OH257093   2.137   3.019  16.020 -0.1443  0.1430  0.2901
11893TIP3    H157094   2.232   3.009  16.031  0.1382  1.6650 -0.5050
11893TIP3    H257095   2.109   2.937  15.978  0.2343 -1.7069  3.3416
11894TIP3   OH257096   6.688   3.071   3.451  0.1561  0.0090  0.5130
11894TIP3    H157097   6.707   3.137   3.518  0.2241  1.3129 -0.7392
11894TIP3    H257098   6.726   2.990   3.486  2.2377  1.1292  1.0347
11895TIP3   OH257099   2.531   1.156  12.304  0.0499  0.0148 -0.1268
11895TIP3    H157100   2.453   1.122  12.260  0.9772 -3.0087  0.2964
11895TIP3    H257101   2.583   1.195  12.233 -1.0030  0.4224 -0.7071
11896TIP3   OH257102   1.563   3.902   4.963  0.3692  1.1244 -0.0966
11896TIP3    H157103   1.523   3.972   4.911  0.7950  0.6312 -1.0977
11896TIP3    H257104   1.617   3.853   4.902  0.3182  0.0831  0.6508
11897TIP3   OH257105   4.789   5.439   2.675 -0.1431  0.1603  0.4382
11897TIP3    H157106   4.855   5.490   2.628 -0.9627  0.4212 -0.4557
11897TIP3    H257107   4.836   5.403   2.751  0.9101  0.6863  0.0525
11898TIP3   OH257108   5.605   3.743   4.656 -0.3787  0.2470  0.6563
11898TIP3    H157109   5.628   3.717   4.567 -1.5954  0.2910  0.3180
11898TIP3    H257110   5.512   3.766   4.652 -0.7406 -0.8252  2.1766
11899TIP3   OH257111   5.712   4.084   3.910  0.1551 -0.0208  0.1609
11899TIP3    H157112   5.692   4.086   4.004 -1.1624 -2.5005  0.0350
11899TIP3    H257113   5.764   4.163   3.895  1.7033 -0.2636  3.2690
11900TIP3   OH257114   1.796   3.150  16.906 -0.1051 -0.1274 -0.1800
11900TIP3    H157115   1.774   3.132  16.998 -0.6506  1.4707  0.0389
11900TIP3    H257116   1.742   3.226  16.883  0.1279 -0.4226 -1.7966
11901TIP3   OH257117   6.174   0.030  14.409 -0.0738 -0.0521  0.2393
11901TIP3    H157118   6.235   0.012  14.337  0.5051  2.8237 -0.1141
11901TIP3    H257119   6.217  -0.006  14.486  0.1971 -1.4909 -0.5388
11902TIP3   OH257120   4.908   3.570  17.140  0.5027  0.0525  0.1331
11902TIP3    H157121   4.880   3.500  17.198 -1.4513  0.7485  0.0944
11902TIP3    H257122   4.963   3.526  17.074 -1.0468 -1.5425 -0.1728
11903TIP3   OH257123   5.452   3.933  13.612 -0.5591  0.6789  0.5676
11903TIP3    H157124   5.514   3.993  13.654 -1.4370  1.5059  0.7234
11903TIP3    H257125   5.385   3.917  13.678 -1.2279  0.8908 -0.0331
11904TIP3   OH257126   0.389   4.022  16.427 -0.4363  0.4988 -0.0418
11904TIP3    H157127   0.333   3.973  16.487 -1.7760 -1.2504 -2.5289
11904TIP3    H257128   0.475   4.022  16.469 -1.1558 -1.2314  1.5757
11905TIP3   OH257129   6.355   5.739   1.000 -0.0247 -0.6652  0.3660
11905TIP3    H157130   6.331   5.710   1.088  1.9783 -1.8906  0.5618
11905TIP3    H257131   6.321   5.828   0.995 -2.2883 -1.3870  1.4669
11906TIP3   OH257132   0.373   2.100  16.211  0.5853 -0.1857  0.2533
11906TIP3    H157133   0.381   2.129  16.120 -0.2969 -1.3383 -0.2190
11906TIP3    H257134   0.297   2.042  16.211  0.3700  0.0568  1.8067
11907TIP3   OH257135   2.108   5.419   4.876  0.2678 -0.2050  0.0261
11907TIP3    H157136   2.133   5.365   4.951 -2.2013  0.1572  1.2021
11907TIP3    H257137   2.113   5.360   4.801  0.3148 -1.3031  0.8710
11908TIP3   OH257138   3.997   2.977   3.720 -0.2541 -0.5865  0.7248
11908TIP3    H157139   3.925   2.915   3.706  0.2652 -0.9899 -0.3112
11908TIP3    H257140   3.962   3.062   3.694 -0.0412 -0.9545 -0.8513
11909TIP3   OH257141   0.607   4.140  11.167  0.7254  0.2483 -0.0549
11909TIP3    H157142   0.658   4.173  11.092 -0.3697  1.0035 -0.4889
11909TIP3    H257143   0.529   4.100  11.127  0.8630 -0.7189  0.6126
11910TIP3   OH257144   2.385   3.729  13.982  0.1535  0.0001 -0.6309
11910TIP3    H157145   2.425   3.642  13.982 -0.3048 -0.2531  1.0723
11910TIP3    H257146   2.454   3.786  13.948  1.0678 -0.8021 -0.1940
11911TIP3   OH257147   5.224   6.758  16.237 -0.1585 -0.0701 -0.7883
11911TIP3    H157148   5.250   6.839  16.281 -0.9006  0.1752 -0.7775
11911TIP3    H257149   5.132   6.773  16.213 -1.2772 -1.9942  1.8055
11912TIP3   OH257150   5.587   6.641   0.005 -0.7195 -0.8879  0.5040
11912TIP3    H157151   5.591   6.579  -0.069 -2.7883 -0.2883 -0.1644
11912TIP3    H257152   5.606   6.726  -0.035  0.0853 -0.8015  1.0497
11913TIP3   OH257153   5.631   4.954   5.517  0.4676 -0.0889  0.3741
11913TIP3    H157154   5.551   4.970   5.467  1.3229  0.2005 -0.9666
11913TIP3    H257155   5.668   4.875   5.478  1.9232  0.9742 -0.5258
11914TIP3   OH257156   2.757   3.300   1.930 -1.0127 -0.0699 -0.4109
11914TIP3    H157157   2.664   3.323   1.924 -0.7571  0.7997 -1.3365
11914TIP3    H257158   2.802   3.384   1.930 -0.2865 -0.3333  2.6877
11915TIP3   OH257159   3.995   1.472   2.144 -0.2957 -0.3277 -0.2553
11915TIP3    H157160   3.915   1.523   2.129  0.2129 -0.1877 -3.0316
11915TIP3    H257161   4.063   1.538   2.155 -0.5747 -0.4320  2.9249
11916TIP3   OH257162   2.304   0.093  11.086 -0.1358 -0.4257 -0.4838
11916TIP3    H157163   2.391   0.055  11.100 -0.2591 -0.2091  1.1180
11916TIP3    H257164   2.273   0.054  11.005  0.5419 -2.2507  0.0898
11917TIP3   OH257165   5.143   2.457   2.101  0.0789 -0.0018  0.2463
11917TIP3    H157166   5.239   2.460   2.098  0.1855 -0.2246  2.0287
11917TIP3    H257167   5.120   2.520   2.169 -1.1571  1.0693 -1.1114
11918TIP3   OH257168   5.968   2.482  16.314 -0.2631  0.5103  0.5293
11918TIP3    H157169   5.909   2.438  16.374 -1.6614  2.1033  0.3967
11918TIP3    H257170   6.014   2.411  16.268  0.7586 -0.7543  3.3070
11919TIP3   OH257171   6.328   0.167  12.766  0.2335  0.0687  0.1970
11919TIP3    H157172   6.266   0.235  12.790  0.1575  0.2711 -0.5405
11919TIP3    H257173   6.414   0.200  12.794  0.5510  1.6199 -2.3641
11920TIP3   OH257174   4.604   2.932  14.534  0.3212  0.8584 -0.4189
11920TIP3    H157175   4.617   3.026  14.546  1.1757  0.6434  0.5365
11920TIP3    H257176   4.531   2.910  14.592 -0.1712  0.9948 -0.9759
11921TIP3   OH257177   0.791   3.567  12.552  0.2599  0.0551 -0.1005
11921TIP3    H157178   0.835   3.489  12.586 -0.3131  0.9658  3.0726
11921TIP3    H257179   0.836   3.640  12.594  0.2364  1.4644 -2.3308
11922TIP3   OH257180   5.340   4.769   6.277 -0.6801  0.4361 -0.0173
11922TIP3    H157181   5.254   4.801   6.305 -0.3564  0.4565  1.0015
11922TIP3    H257182   5.338   4.675   6.298 -0.8619  0.1911 -1.0619
11923TIP3   OH257183   2.196   4.934  15.116  0.1257  0.5579 -0.0551
11923TIP3    H157184   2.153   4.880  15.182  1.5322 -0.9612 -0.3281
11923TIP3    H257185   2.139   4.929  15.039  0.1345 -0.3586 -0.0057
11924TIP3   OH257186   6.586   0.193   2.085 -0.1250 -0.4658 -0.2447
11924TIP3    H157187   6.559   0.152   2.167  1.0593 -1.2195 -0.2006
11924TIP3    H257188   6.661   0.141   2.056  0.7879  1.0640 -0.7370
11925TIP3   OH257189   3.398   4.407   3.483  0.0906 -0.1812 -0.4675
11925TIP3    H157190   3.347   4.370   3.555  0.3926  0.2069 -0.0502
11925TIP3    H257191   3.393   4.341   3.414 -0.5441 -0.3785 -0.2426
11926TIP3   OH257192   5.411   0.176  16.649  0.4388  0.0402  0.3610
11926TIP3    H157193   5.320   0.181  16.678  0.0220 -0.1850 -0.8672
11926TIP3    H257194   5.448   0.262  16.673  0.2974 -0.3365  2.0503
11927TIP3   OH257195   1.906   0.074   6.037  0.4107  0.3897  0.9540
11927TIP3    H157196   1.811   0.066   6.027  0.3801 -0.4358  1.8025
11927TIP3    H257197   1.917   0.110   6.126  0.8480  2.2909  0.1925
11928TIP3   OH257198   5.148   4.323   4.790  0.3201 -0.5725 -0.1772
11928TIP3    H157199   5.188   4.396   4.839  0.2595 -1.9813  2.0987
11928TIP3    H257200   5.055   4.345   4.785  0.4662  0.0002 -0.4473
11929TIP3   OH257201   2.650   3.964   5.329 -0.2134  0.0361 -0.3134
11929TIP3    H157202   2.585   3.956   5.399 -1.1301 -0.4120 -1.2037
11929TIP3    H257203   2.721   4.015   5.369 -1.2715  0.8762  0.5508
11930TIP3   OH257204   6.286   5.650  12.643  0.1262  0.1434  0.7740
11930TIP3    H157205   6.243   5.622  12.562 -0.9817 -0.6299  1.6132
11930TIP3    H257206   6.330   5.731  12.619 -1.5930  0.8475 -0.1981
11931TIP3   OH257207   4.077   4.007   5.997 -0.3370 -0.7500 -0.0016
11931TIP3    H157208   4.143   3.983   6.063 -0.8114  0.2944  0.8735
11931TIP3    H257209   4.003   4.041   6.047  0.0509  1.9870 -1.0783
11932TIP3   OH257210   5.855   0.540   2.459  0.0532 -0.0728  0.3348
11932TIP3    H157211   5.829   0.582   2.377  1.5828  1.5072  0.5893
11932TIP3    H257212   5.803   0.585   2.526  1.2504  1.0567  0.5443
11933TIP3   OH257213   2.398   0.677   2.168  0.3044 -0.0531 -0.9687
11933TIP3    H157214   2.459   0.751   2.173 -0.6143  0.7211 -0.8617
11933TIP3    H257215   2.442   0.614   2.111  0.8628  0.8330 -1.5620
11934TIP3   OH257216   6.545   4.469   2.671  0.0148 -0.1070  0.4295
11934TIP3    H157217   6.483   4.431   2.734  0.3071  0.7135  1.2377
11934TIP3    H257218   6.497   4.542   2.632  0.2479  0.1265  0.5802
11935TIP3   OH257219   5.559   2.455   4.892  0.4977  0.4414 -0.0295
11935TIP3    H157220   5.484   2.402   4.865  0.0999  0.6910  0.5614
11935TIP3    H257221   5.576   2.428   4.982  1.1019  0.4085 -0.1532
11936TIP3   OH257222   1.581   5.569   2.390 -0.4609 -0.7587 -0.1050
11936TIP3    H157223   1.565   5.659   2.362 -1.0861  0.8547  4.6372
11936TIP3    H257224   1.671   5.571   2.425  0.1138 -2.4852 -1.3596
11937TIP3   OH257225   2.218   1.937  15.448  0.0200  0.2112 -0.1190
11937TIP3    H157226   2.197   1.882  15.523 -1.3092 -0.1715 -0.7338
11937TIP3    H257227   2.133   1.964  15.414  0.5820  0.1154 -1.6760
11938TIP3   OH257228   4.420   5.885   1.043  0.4591  0.0913 -0.7566
11938TIP3    H157229   4.461   5.921   1.122 -1.5208 -0.8302  0.7454
11938TIP3    H257230   4.490   5.836   1.000  0.9334 -1.7531  1.9118
11939TIP3   OH257231   0.366   4.335   0.039  0.6986  0.7340 -0.2502
11939TIP3    H157232   0.458   4.330   0.065  0.4423  1.2595  0.8267
11939TIP3    H257233   0.336   4.244   0.040  0.8475  0.6866  0.8064
11940TIP3   OH257234   4.629   6.720  15.213  0.1428  0.2896 -0.0043
11940TIP3    H157235   4.666   6.699  15.128 -1.1575 -3.9353  0.2162
11940TIP3    H257236   4.697   6.693  15.276 -0.4554 -0.5161  0.3095
11941TIP3   OH257237   2.190   6.770   6.020  0.3191  0.0060 -0.0150
11941TIP3    H157238   2.095   6.770   6.035  0.0678  1.9744 -1.1520
11941TIP3    H257239   2.219   6.855   6.053  1.4514 -0.0087 -0.9037
11942TIP3   OH257240   5.498   5.337   4.125 -0.4478 -0.5690 -0.3392
11942TIP3    H157241   5.555   5.271   4.163 -0.8326  0.3484  2.0423
11942TIP3    H257242   5.551   5.380   4.058 -0.0684 -2.9388 -1.6677
11943TIP3   OH257243   6.350   5.499   3.028 -0.0272  0.5954  0.2082
11943TIP3    H157244   6.361   5.405   3.042  1.2809  0.4246 -1.6424
11943TIP3    H257245   6.417   5.540   3.083 -0.5009  0.4739  0.8993
11944TIP3   OH257246   0.190   5.645   3.947 -0.5002 -0.6572  0.5413
11944TIP3    H157247   0.179   5.674   3.856  2.3043  1.5247  0.7886
11944TIP3    H257248   0.109   5.672   3.990 -0.9346  0.3440 -0.8287
11945TIP3   OH257249   4.949   2.923  15.488  0.3986 -0.1541 -0.7679
11945TIP3    H157250   4.913   2.886  15.408  0.1761 -1.4907 -0.0768
11945TIP3    H257251   4.914   2.868  15.558  2.1171 -0.2235  0.0932
11946TIP3   OH257252   0.094   3.579   1.683  0.1261 -0.6099  0.2347
11946TIP3    H157253   0.024   3.635   1.717 -0.3498 -1.9052  1.4743
11946TIP3    H257254   0.093   3.502   1.740  0.1721 -2.3142 -1.9404
11947TIP3   OH257255   2.600   0.106   3.277  0.2699  0.1147 -0.4163
11947TIP3    H157256   2.590   0.153   3.194  2.0063  0.3289 -0.5333
11947TIP3    H257257   2.678   0.052   3.264  1.2803  1.0396  1.4664
11948TIP3   OH257258   0.973   0.348  16.876  0.2060 -0.5462 -0.4583
11948TIP3    H157259   1.065   0.352  16.852  0.0962  0.0664 -0.7962
11948TIP3    H257260   0.973   0.325  16.969  0.7725  1.2405  0.0266
11949TIP3   OH257261   6.384   4.204   3.520 -0.0166 -0.2297  0.8297
11949TIP3    H157262   6.314   4.177   3.460 -0.0412  0.7133  0.4251
11949TIP3    H257263   6.349   4.186   3.607 -0.7284  0.1473  0.6264
11950TIP3   OH257264   2.746   2.941   3.008  0.0364  0.3437 -0.2379
11950TIP3    H157265   2.655   2.967   3.023  0.6054  1.2684  2.0072
11950TIP3    H257266   2.780   3.008   2.947  0.3631  2.7010  2.3426
11951TIP3   OH257267   6.447   1.984   2.760  0.6483  0.2643 -0.0238
11951TIP3    H157268   6.474   1.895   2.741 -0.6113 -0.1955  0.2657
11951TIP3    H257269   6.437   2.026   2.675  0.7169 -0.0329 -0.1762
11952TIP3   OH257270   0.698   1.381  16.781  0.1613 -0.2079 -0.1885
11952TIP3    H157271   0.687   1.339  16.695  0.1415 -1.9242  0.5985
11952TIP3    H257272   0.613   1.421  16.799  0.7214  1.8720 -1.7611
11953TIP3   OH257273   0.433   1.838  14.876 -0.2147 -0.4162  0.6465
11953TIP3    H157274   0.390   1.872  14.797 -0.7463 -0.4666  0.9150
11953TIP3    H257275   0.505   1.899  14.892 -0.0981 -0.4064  0.1202
11954TIP3   OH257276   4.239   1.795   4.885  0.4655  0.1254 -0.6068
11954TIP3    H157277   4.241   1.729   4.954  0.2358  0.7801  0.0508
11954TIP3    H257278   4.307   1.769   4.824  0.3591 -0.7274 -0.3748
11955TIP3   OH257279   5.988   0.692   5.031 -0.0682 -0.3302  0.4410
11955TIP3    H157280   5.991   0.607   4.988 -0.9407 -0.0679 -0.1565
11955TIP3    H257281   5.979   0.672   5.124  1.8546 -0.9065  0.5529
11956TIP3   OH257282   2.483   1.820  15.346  0.2219 -0.3433 -0.7230
11956TIP3    H157283   2.393   1.850  15.330 -0.1455 -0.4422  1.0153
11956TIP3    H257284   2.534   1.861  15.276 -0.7137  2.0080 -0.1248
11957TIP3   OH257285   1.165   5.285   0.966  0.1142 -0.0244  0.3902
11957TIP3    H157286   1.115   5.205   0.979 -1.1437  0.6779  0.1414
11957TIP3    H257287   1.219   5.268   0.889 -0.8118 -0.3441 -0.2042
11958TIP3   OH257288   3.761   4.243   4.190 -0.2102  0.3967  0.0402
11958TIP3    H157289   3.806   4.229   4.107  1.4526 -0.0061  0.9713
11958TIP3    H257290   3.689   4.179   4.189  0.5172 -0.4311 -0.5727
11959TIP3   OH257291   5.140   6.020  16.308 -0.9226 -0.4618 -0.0295
11959TIP3    H157292   5.163   6.054  16.394 -1.3617 -1.0774  0.3350
11959TIP3    H257293   5.128   6.098  16.254 -1.5273 -0.0480  0.6899
11960TIP3   OH257294   6.380   0.340  15.814 -0.1475 -0.4770 -0.5925
11960TIP3    H157295   6.302   0.373  15.770 -1.6365 -3.1383 -0.1875
11960TIP3    H257296   6.439   0.314  15.743 -1.0278 -1.4425 -0.9838
11961TIP3   OH257297   5.007   5.468  11.116 -0.5253 -0.5680  0.7368
11961TIP3    H157298   4.915   5.460  11.141 -0.3532 -1.0790  1.2395
11961TIP3    H257299   5.015   5.416  11.035 -1.3242  2.0017 -1.1195
11962TIP3   OH257300   6.742   5.202   4.565 -0.7865 -0.0601  0.1817
11962TIP3    H157301   6.742   5.260   4.489  0.5769 -1.5390 -1.0374
11962TIP3    H257302   6.786   5.252   4.633  0.2859  0.4186 -0.8162
11963TIP3   OH257303   3.453   5.734   4.946  0.1835  1.0241 -0.1454
11963TIP3    H157304   3.406   5.658   4.911 -2.1133  2.1939  0.2524
11963TIP3    H257305   3.502   5.700   5.020 -0.6270 -0.1156 -0.1084
11964TIP3   OH257306   0.521   5.786   6.128  1.1451  0.2284 -0.8800
11964TIP3    H157307   0.526   5.710   6.070  2.3878  0.8405 -1.6057
11964TIP3    H257308   0.526   5.750   6.216  1.3409 -0.5540 -1.2062
11965TIP3   OH257309   0.444   2.376   5.669  0.1535 -0.2710  0.0624
11965TIP3    H157310   0.462   2.413   5.756 -0.4499 -0.5408  0.3060
11965TIP3    H257311   0.497   2.297   5.665  2.4248  1.2004 -0.9345
11966TIP3   OH257312   2.506   0.769  11.373 -0.1511 -0.4093 -0.9444
11966TIP3    H157313   2.473   0.855  11.349  0.4464  0.4992  1.2459
11966TIP3    H257314   2.430   0.711  11.366 -0.7991  0.4961 -1.4786
11967TIP3   OH257315   0.119   0.052   0.072  0.2492 -0.1777 -0.0865
11967TIP3    H157316   0.051  -0.007   0.105 -1.0545  1.6247  0.6278
11967TIP3    H257317   0.136   0.022  -0.017 -0.4210 -1.5561  0.2208
11968TIP3   OH257318   4.924   4.940  13.598  0.4136 -0.6890 -0.0375
11968TIP3    H157319   4.954   4.950  13.508 -1.6990  0.9498 -0.6379
11968TIP3    H257320   4.854   4.874  13.593  0.3185 -0.6285  0.4060
11969TIP3   OH257321   1.237   3.857   2.105 -0.2188 -0.3017 -0.0699
11969TIP3    H157322   1.171   3.850   2.173 -2.0226 -2.0578 -1.8648
11969TIP3    H257323   1.241   3.950   2.084 -0.8558  0.0342  1.2453
11970TIP3   OH257324   1.812   0.267  16.208  0.4625  0.0231 -0.0047
11970TIP3    H157325   1.833   0.333  16.142  1.0842  0.2110  0.3698
11970TIP3    H257326   1.780   0.192  16.157  1.5452 -0.0774 -0.5863
11971TIP3   OH257327   2.049   3.305   2.670 -0.4003  0.3502 -0.0305
11971TIP3    H157328   2.048   3.393   2.708 -2.0128 -0.1110  1.0902
11971TIP3    H257329   2.114   3.311   2.600 -0.3098  2.3730  0.1457
11972TIP3   OH257330   3.151   2.733  10.749 -0.3697  0.4116 -0.7820
11972TIP3    H157331   3.170   2.747  10.842 -0.1526  0.7085 -0.8709
11972TIP3    H257332   3.228   2.689  10.715  0.0027  1.2551 -1.0534
11973TIP3   OH257333   3.158   4.291  16.305  0.6862 -0.0468 -0.4754
11973TIP3    H157334   3.070   4.275  16.271  1.2728 -0.9524 -1.6836
11973TIP3    H257335   3.147   4.303  16.399 -0.5871 -1.4648 -0.4163
11974TIP3   OH257336   3.062   4.984   4.863  0.0841  0.0351  0.0078
11974TIP3    H157337   3.005   4.956   4.792  0.9809  0.0593 -0.7479
11974TIP3    H257338   3.043   5.077   4.874 -1.1959 -0.3193  0.8966
11975TIP3   OH257339   6.482   5.917   2.664  0.5383 -0.2438 -0.2140
11975TIP3    H157340   6.532   5.970   2.601 -1.9998  0.9544 -1.3612
11975TIP3    H257341   6.488   5.965   2.746 -1.1392  1.5709 -1.0690
11976TIP3   OH257342   0.261   4.064   0.066  0.0902 -0.5723  0.4625
11976TIP3    H157343   0.245   4.027  -0.021 -0.2480  1.6893 -0.4872
11976TIP3    H257344   0.353   4.045   0.083  0.1111 -1.1958 -0.2934
11977TIP3   OH257345   4.311   6.564   2.865 -0.1276  0.3995 -0.5811
11977TIP3    H157346   4.287   6.472   2.860 -2.0671  0.8791 -0.7624
11977TIP3    H257347   4.327   6.580   2.958  0.1076 -0.0789 -0.5348
11978TIP3   OH257348   0.340   6.212   1.777 -0.3950 -0.0169  0.0317
11978TIP3    H157349   0.254   6.249   1.760 -1.2560 -1.6125  0.7437
11978TIP3    H257350   0.367   6.251   1.860 -1.3846 -1.0488  0.8791
11979TIP3   OH257351   1.196   4.527  17.055  0.0230 -0.5823 -0.4954
11979TIP3    H157352   1.187   4.571  16.970  0.3276 -1.3407 -0.9319
11979TIP3    H257353   1.242   4.445  17.035  0.3958 -0.6198  0.4543
11980TIP3   OH257354   3.663   4.358   3.845  0.5833 -0.0788  0.3974
11980TIP3    H157355   3.569   4.373   3.851  0.7002  0.7234  0.3863
11980TIP3    H257356   3.675   4.266   3.868 -0.3078 -0.4700 -0.6263
11981TIP3   OH257357   0.264   6.363  15.806  0.1164 -0.3122  0.1507
11981TIP3    H157358   0.180   6.410  15.810  0.1780 -0.1971  0.0694
11981TIP3    H257359   0.330   6.432  15.805  0.2260 -0.4066  0.5389
11982TIP3   OH257360   0.547   6.312   5.456  0.1434 -0.2007 -0.1916
11982TIP3    H157361   0.547   6.223   5.422 -1.0438 -0.3808  0.2641
11982TIP3    H257362   0.476   6.356   5.409  1.3551  0.8247 -1.1687
11983TIP3   OH257363   3.127   0.823  12.816  0.1500 -1.1398 -0.3220
11983TIP3    H157364   3.151   0.894  12.876 -0.4137 -0.0379 -1.3440
11983TIP3    H257365   3.207   0.804  12.768 -0.2207  0.4754 -1.6739
11984TIP3   OH257366   2.667   6.196  12.539 -0.1862  0.9136 -0.4518
11984TIP3    H157367   2.611   6.126  12.573 -2.1751  1.9571 -1.3814
11984TIP3    H257368   2.620   6.228  12.461  0.7105  3.1702 -0.1359
11985TIP3   OH257369   0.409   5.409   5.347 -0.5530  0.5421 -0.6210
11985TIP3    H157370   0.424   5.349   5.274 -2.3651 -1.1483  0.3207
11985TIP3    H257371   0.314   5.422   5.349 -0.4685  1.1696  0.9616
11986TIP3   OH257372   1.765   6.100  11.068 -0.7620  0.6385 -0.4522
11986TIP3    H157373   1.705   6.174  11.075 -0.2828  1.2602 -2.3007
11986TIP3    H257374   1.827   6.125  10.999 -0.0597 -1.1266 -0.5308
11987TIP3   OH257375   5.019   0.182   2.506  0.1623 -0.2995 -0.4608
11987TIP3    H157376   5.019   0.089   2.527 -1.6914 -0.3653 -0.5839
11987TIP3    H257377   5.097   0.216   2.550  0.4663 -1.7685  0.2065
11988TIP3   OH257378   5.806   0.999  16.539  0.1424 -0.2071 -0.3801
11988TIP3    H157379   5.745   0.929  16.562  0.4438 -0.8185 -1.3643
11988TIP3    H257380   5.889   0.954  16.522  0.2916  0.3645 -1.2144
11989TIP3   OH257381   6.102   6.487   4.639 -0.2053  0.1135 -0.2869
11989TIP3    H157382   6.070   6.398   4.652 -1.0052  0.4342  0.0071
11989TIP3    H257383   6.089   6.530   4.724  0.7109  0.3506 -0.2598
11990TIP3   OH257384   1.940   0.790  15.102  0.6948  0.3907 -0.8111
11990TIP3    H157385   1.863   0.757  15.147  0.4385 -0.1538 -1.6239
11990TIP3    H257386   2.014   0.767  15.159  0.3123  0.4732 -0.2740
11991TIP3   OH257387   3.017   5.614  15.178  0.1071  0.0021  0.1681
11991TIP3    H157388   3.104   5.582  15.200  0.1741  0.8422  1.2301
11991TIP3    H257389   2.966   5.535  15.162  0.9189 -0.5218  0.0977
11992TIP3   OH257390   1.394   0.457   3.008  0.0918 -0.2222  0.5452
11992TIP3    H157391   1.343   0.378   2.989 -0.0287  0.1325 -0.7047
11992TIP3    H257392   1.477   0.444   2.962 -0.5139  1.0211 -0.9926
11993TIP3   OH257393   6.087   3.674  17.164 -0.0914 -0.5799  0.1049
11993TIP3    H157394   6.066   3.581  17.168  1.0682 -0.8227  1.0697
11993TIP3    H257395   6.076   3.706  17.253  0.4685 -0.0184 -0.0161
11994TIP3   OH257396   3.192   6.649   3.252  0.2833  0.7899 -0.0617
11994TIP3    H157397   3.245   6.670   3.175 -0.5656  1.2513 -0.5295
11994TIP3    H257398   3.150   6.566   3.230  1.2114  0.1478  0.5271
11995TIP3   OH257399   4.607   4.906   5.461 -0.8977 -0.5998 -0.2888
11995TIP3    H157400   4.658   4.908   5.542 -0.3377 -0.5993 -0.6430
11995TIP3    H257401   4.593   4.998   5.439  0.0939 -0.5910 -0.9117
11996TIP3   OH257402   6.784   4.985  15.859  0.1816 -0.1862 -0.1970
11996TIP3    H157403   6.806   5.031  15.940 -1.0250  0.5853 -0.2733
11996TIP3    H257404   6.770   4.895  15.886  0.2480 -0.0316  0.3777
11997TIP3   OH257405   0.647   4.688  12.041 -0.6079 -0.0402  0.0270
11997TIP3    H157406   0.660   4.733  11.957 -0.0382  0.6883  0.4915
11997TIP3    H257407   0.735   4.667  12.071 -0.5781  2.0792  1.6942
11998TIP3   OH257408   0.462   1.596  12.542  0.1844 -0.3918 -0.3146
11998TIP3    H157409   0.386   1.553  12.503 -0.7772 -1.1598  2.2475
11998TIP3    H257410   0.435   1.687  12.554  0.3227 -0.2586 -0.9528
11999TIP3   OH257411   5.014   2.255  15.326  0.3121 -0.9095 -0.2518
11999TIP3    H157412   4.994   2.177  15.274 -1.3777 -0.0005 -1.0499
11999TIP3    H257413   5.000   2.228  15.417 -1.7128 -1.1880 -0.6028
12000TIP3   OH257414   0.987   4.850  14.560  0.5196 -0.1573 -0.4940
12000TIP3    H157415   1.074   4.880  14.532  0.4275 -1.1828 -2.0032
12000TIP3    H257416   0.997   4.756  14.572 -0.4583 -0.3330 -0.9889
12001TIP3   OH257417   0.722   0.822  14.846 -0.0667  0.1410  0.1599
12001TIP3    H157418   0.676   0.759  14.900 -1.1399  0.1803 -0.6888
12001TIP3    H257419   0.653   0.877  14.808  0.6713  0.2405 -1.0887
12002TIP3   OH257420   3.303   4.466   1.256 -0.8618 -0.1402  0.2951
12002TIP3    H157421   3.299   4.506   1.169  1.4711  0.7570  0.5375
12002TIP3    H257422   3.239   4.516   1.308 -1.6987 -0.1672 -0.6835
12003TIP3   OH257423   2.824   5.364  13.733  0.1648  0.0961  0.0446
12003TIP3    H157424   2.888   5.308  13.776  1.1661  0.4972 -0.8794
12003TIP3    H257425   2.778   5.407  13.805  1.0305 -0.0903  0.7319
12004TIP3   OH257426   6.531   3.056  14.769  0.1731  0.1560  0.1633
12004TIP3    H157427   6.579   2.995  14.824 -0.5697  0.4757  1.2042
12004TIP3    H257428   6.588   3.132  14.761 -0.2983  0.7174  1.7676
12005TIP3   OH257429   5.113   0.952  13.178  0.8117 -0.8184 -0.3442
12005TIP3    H157430   5.055   1.028  13.177  0.5206 -1.0444 -0.6921
12005TIP3    H257431   5.159   0.956  13.094  1.2446 -0.6860 -0.1041
12006TIP3   OH257432   4.123   4.006   3.343  1.0655  0.4485  0.1255
12006TIP3    H157433   4.055   4.052   3.293 -0.4337 -1.9100 -0.1414
12006TIP3    H257434   4.095   4.015   3.434  0.3497 -0.5007  0.0182
12007TIP3   OH257435   4.580   3.723  10.412 -0.4991  0.5959  0.2167
12007TIP3    H157436   4.660   3.676  10.390 -1.1380 -0.1763 -0.5708
12007TIP3    H257437   4.546   3.678  10.490  0.8317  2.1899  1.7932
12008TIP3   OH257438   2.334   1.407   4.047  0.2519 -0.3698 -0.4774
12008TIP3    H157439   2.359   1.324   4.007  0.1925 -0.7571  0.2702
12008TIP3    H257440   2.240   1.415   4.028 -0.2473 -1.5400  1.2556
12009TIP3   OH257441   0.561   0.635   0.750 -0.0304 -0.5217  0.2888
12009TIP3    H157442   0.522   0.720   0.768 -0.9839 -1.1705  1.4351
12009TIP3    H257443   0.487   0.580   0.723  0.6175 -0.9180 -0.7580
12010TIP3   OH257444   1.634   3.268   2.129  0.3642 -0.7762  0.0255
12010TIP3    H157445   1.729   3.268   2.130  0.3855 -1.1770 -1.1770
12010TIP3    H257446   1.610   3.194   2.072 -0.6541 -0.3122 -0.1728
12011TIP3   OH257447   3.677   5.892  17.177 -0.2347 -0.4524 -0.2981
12011TIP3    H157448   3.588   5.917  17.155  0.0775  0.9950 -0.0429
12011TIP3    H257449   3.697   5.820  17.117 -1.9842 -1.6796  0.5248
12012TIP3   OH257450   6.190   3.728  11.461  0.3520 -0.0423  0.3798
12012TIP3    H157451   6.246   3.799  11.491 -1.7749  1.6995  0.4498
12012TIP3    H257452   6.211   3.654  11.519  1.4944  0.9976  1.3322
12013TIP3   OH257453   4.044   3.409   6.014  0.5301  0.4878  0.1570
12013TIP3    H157454   3.987   3.365   6.077  1.1291  0.8368  0.9727
12013TIP3    H257455   4.021   3.502   6.022  1.0904  0.6132  0.3813
12014TIP3   OH257456   0.502   1.699   1.662 -0.2133 -0.2446 -0.1586
12014TIP3    H157457   0.427   1.718   1.717  0.0181 -2.2649  0.9769
12014TIP3    H257458   0.552   1.781   1.659 -0.2678 -0.0310  2.6373
12015TIP3   OH257459   6.225   2.775   3.708  0.8305 -0.2173 -0.0162
12015TIP3    H157460   6.178   2.859   3.703  0.6872 -0.2730  0.4046
12015TIP3    H257461   6.223   2.751   3.800  1.4860 -0.3397 -0.0280
12016TIP3   OH257462   1.638   5.621   0.391  0.2232  0.3573  0.6385
12016TIP3    H157463   1.622   5.664   0.306  2.9306  0.6817  0.1971
12016TIP3    H257464   1.594   5.537   0.384 -1.2402  1.1649 -0.3198
12017TIP3   OH257465   5.155   3.097   4.039  0.2302 -0.0567 -0.3313
12017TIP3    H157466   5.118   3.081   3.952  0.1012  0.9106 -0.4701
12017TIP3    H257467   5.234   3.043   4.042 -0.4306 -1.0606 -0.5676
12018TIP3   OH257468   4.182   2.634   0.048 -0.5590 -0.3454  0.2450
12018TIP3    H157469   4.197   2.592  -0.036  1.4322 -0.4502  0.6016
12018TIP3    H257470   4.268   2.633   0.091 -1.3423  0.4701  1.9199
12019TIP3   OH257471   3.409   5.271  16.307 -0.0985  0.1199  0.1629
12019TIP3    H157472   3.499   5.247  16.332 -0.6458 -0.2850  1.8805
12019TIP3    H257473   3.355   5.197  16.337 -1.1593  1.0067  0.5139
12020TIP3   OH257474   5.696   5.721   6.224 -0.2288 -0.2223  0.2905
12020TIP3    H157475   5.653   5.673   6.295 -0.0745 -1.4217 -0.4182
12020TIP3    H257476   5.628   5.731   6.157  0.4281 -1.6986 -0.6288
12021TIP3   OH257477   0.025   5.156  12.776 -0.0536  0.3457  0.2753
12021TIP3    H157478  -0.021   5.093  12.832 -0.3066 -1.0491 -1.4233
12021TIP3    H257479  -0.016   5.240  12.796 -0.4443 -0.1847  1.8318
12022TIP3   OH257480   4.143   0.764   0.507  0.5446 -0.3496  0.4725
12022TIP3    H157481   4.226   0.810   0.513 -0.2769  1.6367 -1.8814
12022TIP3    H257482   4.096   0.789   0.587  0.8691  1.4043  0.1527
12023TIP3   OH257483   2.939   5.137   2.277  0.2268 -0.4893 -0.2227
12023TIP3    H157484   2.971   5.060   2.323  1.5952  0.1699 -0.0134
12023TIP3    H257485   2.900   5.103   2.196  2.7647 -1.2943 -1.2064
12024TIP3   OH257486   4.843   0.928   2.787  0.3322 -0.0083 -0.7544
12024TIP3    H157487   4.796   0.996   2.739 -0.9933 -0.8636 -0.7084
12024TIP3    H257488   4.841   0.852   2.729 -3.2334 -1.7779  1.3367
12025TIP3   OH257489   1.605   3.031  14.013 -0.2225  0.4188 -0.2652
12025TIP3    H157490   1.548   3.051  13.939 -1.0599 -0.3637  0.1505
12025TIP3    H257491   1.546   3.020  14.087  0.4997 -0.0098  0.2629
12026TIP3   OH257492   2.017   0.971  15.852  0.5198  0.4418  0.2575
12026TIP3    H157493   2.084   1.028  15.889  0.8544 -0.8435  1.7307
12026TIP3    H257494   1.960   1.030  15.803  0.6613  2.0948  1.9690
12027TIP3   OH257495   3.559   1.585   4.584  0.2066  0.1284  0.2006
12027TIP3    H157496   3.486   1.609   4.527  1.0860  0.2658 -0.8962
12027TIP3    H257497   3.559   1.653   4.652  1.2963  2.1190 -1.6311
12028TIP3   OH257498   6.364   4.906   5.950 -0.5233 -0.9574  0.3702
12028TIP3    H157499   6.326   4.840   6.008 -1.4681 -1.0276 -0.3068
12028TIP3    H257500   6.432   4.859   5.902 -0.2860 -1.0993  0.8402
12029TIP3   OH257501   5.275   0.475  12.722 -0.1532  0.2355 -0.3394
12029TIP3    H157502   5.295   0.442  12.810  4.0080  1.0872 -0.7930
12029TIP3    H257503   5.254   0.397  12.671  0.4376 -0.6318  0.7032
12030TIP3   OH257504   1.359   0.210  14.475  0.0548  0.1595 -0.1347
12030TIP3    H157505   1.339   0.235  14.565 -2.1511  1.2311 -0.8371
12030TIP3    H257506   1.401   0.287  14.437  2.2682 -0.7709  0.2910
12031TIP3   OH257507   3.667   0.822  14.560 -0.0959  0.1744 -0.1180
12031TIP3    H157508   3.677   0.854  14.650  0.3932 -2.2726  0.8028
12031TIP3    H257509   3.732   0.753  14.552 -0.5531 -0.0883 -2.1726
12032TIP3   OH257510   0.360   4.962   5.095 -0.5638 -0.6974 -0.3352
12032TIP3    H157511   0.309   4.888   5.061  0.0782 -0.6290 -1.4624
12032TIP3    H257512   0.376   5.018   5.019  0.3754 -0.2300  0.1880
12033TIP3   OH257513   2.016   3.498  16.295 -0.1147  0.1509  0.2333
12033TIP3    H157514   2.038   3.513  16.387  0.5098  1.4763 -0.1059
12033TIP3    H257515   1.921   3.492  16.294 -0.0921 -0.5571  1.0490
12034TIP3   OH257516   1.152   1.573  15.506 -0.0964  0.2153  0.4234
12034TIP3    H157517   1.153   1.534  15.593  0.6359 -1.7196 -0.4040
12034TIP3    H257518   1.244   1.586  15.483 -0.3039  2.5326  0.6594
12035TIP3   OH257519   3.277   2.017  13.019 -0.5146  0.1141  0.3254
12035TIP3    H157520   3.284   1.938  13.073  1.3847 -0.4225 -0.6350
12035TIP3    H257521   3.243   1.985  12.936  0.5403  0.2414 -0.1633
12036TIP3   OH257522   5.165   5.603  13.001  0.1377 -0.3354 -0.3184
12036TIP3    H157523   5.259   5.616  12.988 -0.3019  1.7975 -1.9456
12036TIP3    H257524   5.127   5.614  12.913 -1.8525  1.3588  0.6908
12037TIP3   OH257525   0.037   4.853   5.006  0.3102 -0.1068  0.2337
12037TIP3    H157526   0.050   4.947   4.996  0.4114 -0.3424 -2.5991
12037TIP3    H257527  -0.056   4.838   4.990  0.2460 -0.4962  0.8949
12038TIP3   OH257528   3.715   1.263  15.091  0.0522 -0.8689 -0.5488
12038TIP3    H157529   3.728   1.171  15.113 -0.2889 -0.9999 -0.8857
12038TIP3    H257530   3.769   1.277  15.014  0.9978 -0.4902  0.1605
12039TIP3   OH257531   3.466   4.999   5.502 -0.3724  0.8505  0.0640
12039TIP3    H157532   3.488   5.083   5.462 -1.4043  0.4782 -1.3618
12039TIP3    H257533   3.384   5.014   5.548 -1.3058  0.3312 -1.3597
12040TIP3   OH257534   1.584   3.420   2.509  0.2897 -0.8549 -0.2154
12040TIP3    H157535   1.580   3.511   2.540 -1.9388 -1.0432  0.1764
12040TIP3    H257536   1.634   3.374   2.577  1.3044  0.0131 -0.3406
12041TIP3   OH257537   2.798   0.790  16.621 -0.6618  0.0757 -0.3123
12041TIP3    H157538   2.815   0.884  16.615 -0.3690 -0.0013 -0.7778
12041TIP3    H257539   2.846   0.753  16.547  1.7137 -0.7743  1.5281
12042TIP3   OH257540   0.076   0.382  11.452 -0.0091  0.6424  0.3778
12042TIP3    H157541   0.109   0.454  11.506 -2.9911  1.1741  1.7497
12042TIP3    H257542   0.107   0.401  11.364  2.2746  1.5777  1.3112
12043TIP3   OH257543   5.036   2.578   0.907 -0.2203 -0.0115  0.4764
12043TIP3    H157544   4.992   2.658   0.879 -0.5652 -0.2649  0.2854
12043TIP3    H257545   4.996   2.509   0.855  1.5092 -0.0611 -0.8840
12044TIP3   OH257546   5.257   2.170  16.419  0.1644  0.5847 -0.2500
12044TIP3    H157547   5.237   2.091  16.469  0.4458  1.4052  1.1991
12044TIP3    H257548   5.346   2.156  16.386  0.5582  0.6407  0.7445
12045TIP3   OH257549   5.972   0.345   3.326 -0.2381  0.0505  0.4502
12045TIP3    H157550   5.982   0.270   3.385 -1.1437 -1.3328 -1.0511
12045TIP3    H257551   6.047   0.337   3.266 -0.1507  0.5633  0.4903
12046TIP3   OH257552   0.784   5.722   6.394  0.1442 -0.4449 -0.1146
12046TIP3    H157553   0.807   5.646   6.447  1.0909  0.3030  0.5794
12046TIP3    H257554   0.703   5.696   6.349 -0.2519 -1.3829  1.0890
12047TIP3   OH257555   4.260   5.616   1.764 -0.2267  0.3755  0.3166
12047TIP3    H157556   4.340   5.628   1.814  1.6182 -1.5286 -1.9327
12047TIP3    H257557   4.213   5.546   1.810  1.1614 -0.9451 -0.1882
12048TIP3   OH257558   5.491   5.343  16.263  0.2744 -0.1017  0.1529
12048TIP3    H157559   5.442   5.359  16.182 -2.7980  0.7366  2.0462
12048TIP3    H257560   5.493   5.248  16.271 -0.0032 -0.1765 -0.5501
12049TIP3   OH257561   5.536   5.475  13.192  0.2427  0.2716 -0.2549
12049TIP3    H157562   5.630   5.468  13.176  0.3991  0.6293  0.4815
12049TIP3    H257563   5.500   5.512  13.111  0.6227 -0.5419 -0.8215
12050TIP3   OH257564   0.255   4.442  11.849  0.0535 -0.0560  0.0487
12050TIP3    H157565   0.324   4.382  11.823 -0.6809 -1.7995  1.8217
12050TIP3    H257566   0.296   4.499  11.915  0.3560  0.4134 -0.5355
12051TIP3   OH257567   0.599   2.902  16.255 -0.6593 -0.0590  0.2972
12051TIP3    H157568   0.546   2.976  16.224 -0.1464 -0.0535 -0.6199
12051TIP3    H257569   0.556   2.825  16.219 -0.0067 -0.0461 -0.5737
12052TIP3   OH257570   2.685   6.320  14.660 -0.3448  0.3332 -0.9637
12052TIP3    H157571   2.639   6.263  14.722 -0.4149  2.8886  1.5469
12052TIP3    H257572   2.776   6.320  14.690 -0.0121  0.2763 -1.9390
12053TIP3   OH257573   5.264   4.969  16.113 -0.2215  0.5532 -0.1696
12053TIP3    H157574   5.279   5.062  16.096  2.0375 -0.0159 -1.6838
12053TIP3    H257575   5.273   4.960  16.208  1.3898  1.6397 -0.1825
12054TIP3   OH257576   2.892   3.488  12.678  0.2940  0.1496  0.5305
12054TIP3    H157577   2.902   3.518  12.768 -0.7779  0.4628  0.5462
12054TIP3    H257578   2.886   3.392  12.685 -1.1702  0.2562  0.9270
12055TIP3   OH257579   4.715   3.593  14.102  0.2055  0.1679  0.6496
12055TIP3    H157580   4.792   3.634  14.064  0.6909 -1.2545  0.0118
12055TIP3    H257581   4.747   3.509  14.137 -0.8958 -0.0946  1.0899
12056TIP3   OH257582   3.587   2.953   2.056  0.3159  0.4894  0.3510
12056TIP3    H157583   3.622   2.956   1.967  0.5271 -1.7452  0.3081
12056TIP3    H257584   3.663   2.962   2.113  0.6282 -1.1574  0.2549
12057TIP3   OH257585   4.314   0.153   2.001  0.2604  0.3163  0.1794
12057TIP3    H157586   4.286   0.118   1.917 -0.1500  0.4802  0.2465
12057TIP3    H257587   4.233   0.159   2.053  0.5810 -0.2626  0.7560
12058TIP3   OH257588   5.837   1.154   0.421 -0.0090  0.0839 -0.9497
12058TIP3    H157589   5.929   1.140   0.398 -0.1163 -2.0145 -0.2659
12058TIP3    H257590   5.805   1.214   0.353  1.3587 -0.7178 -2.3933
12059TIP3   OH257591   3.777   6.124   3.616 -0.0382  0.7748  0.1783
12059TIP3    H157592   3.840   6.140   3.546 -1.6208  1.5866 -1.1301
12059TIP3    H257593   3.786   6.030   3.636  0.5432  0.5633 -1.0185
12060TIP3   OH257594   2.275   5.963   5.334  0.4611 -0.3146 -0.0914
12060TIP3    H157595   2.193   5.917   5.314  0.0245 -0.1622  1.2504
12060TIP3    H257596   2.316   5.910   5.401  0.7913  0.3433  0.2318
12061TIP3   OH257597   0.044   1.100   3.769 -0.4479 -0.0560 -0.1337
12061TIP3    H157598   0.050   1.009   3.798  0.9195 -0.1534 -0.6805
12061TIP3    H257599   0.122   1.142   3.804 -1.6348  1.2296  1.1121
12062TIP3   OH257600   3.839   1.477  12.521  0.1626  0.1387  0.3156
12062TIP3    H157601   3.931   1.460  12.540  0.5455  1.2827 -0.4372
12062TIP3    H257602   3.820   1.425  12.443  0.1084 -0.2677  0.5986
12063TIP3   OH257603   4.536   6.738   0.351  0.2437 -0.1458 -0.5239
12063TIP3    H157604   4.596   6.666   0.373  0.2123 -0.0424 -0.1036
12063TIP3    H257605   4.498   6.711   0.267  1.4131  0.1273 -1.1628
12064TIP3   OH257606   6.570   2.625  13.695 -0.3762  0.3244  0.0963
12064TIP3    H157607   6.656   2.609  13.656 -0.6938 -0.3120 -0.3586
12064TIP3    H257608   6.588   2.635  13.789  0.4061  1.9457 -0.1961
12065TIP3   OH257609   4.493   2.353  16.601  0.3165 -0.1548  0.9056
12065TIP3    H157610   4.401   2.327  16.599  0.3670 -0.4381  1.7397
12065TIP3    H257611   4.493   2.435  16.651  0.1994  1.3401 -1.4059
12066TIP3   OH257612   2.412   2.774   2.923 -0.0343  0.2193 -0.0033
12066TIP3    H157613   2.437   2.856   2.965 -0.9805  0.1943  0.6345
12066TIP3    H257614   2.482   2.757   2.861  1.2619  0.4229  1.3495
12067TIP3   OH257615   3.462   5.940   1.751 -0.0856  0.0538  0.0163
12067TIP3    H157616   3.398   6.011   1.752 -0.7480 -0.5289  0.3431
12067TIP3    H257617   3.529   5.967   1.813 -1.5381 -0.6484  1.9908
12068TIP3   OH257618   3.615   6.044   1.965  0.3305  0.0151 -0.1449
12068TIP3    H157619   3.680   6.083   2.023  0.5957  1.6424 -1.4709
12068TIP3    H257620   3.538   6.030   2.020  0.8592  0.7067  0.7891
12069TIP3   OH257621   1.065   6.342  14.841  0.7451  0.5633 -0.3059
12069TIP3    H157622   1.102   6.260  14.874  0.4732  0.3065 -0.6373
12069TIP3    H257623   0.977   6.318  14.812 -0.3743  1.4777  2.0261
12070TIP3   OH257624   2.358   0.670  14.865 -0.3374 -0.2498 -0.3068
12070TIP3    H157625   2.277   0.712  14.836  0.3451  1.4924  0.1775
12070TIP3    H257626   2.426   0.714  14.815  0.4900 -0.0925  0.9270
12071TIP3   OH257627   6.503   2.949  13.009  0.0985 -0.6887 -1.2939
12071TIP3    H157628   6.455   2.896  13.074  0.9990  0.2815  0.2294
12071TIP3    H257629   6.522   2.888  12.938 -1.0381 -1.7735 -0.7124
12072TIP3   OH257630   4.994   1.270   3.247 -0.1486  0.4696  0.2922
12072TIP3    H157631   4.937   1.203   3.284  0.6340  0.0175  0.7027
12072TIP3    H257632   5.056   1.290   3.317  1.1151 -0.0985 -0.6351
12073TIP3   OH257633   3.609   1.316   4.684 -0.2248  0.0285  0.1762
12073TIP3    H157634   3.570   1.258   4.618  2.2416 -1.2109 -0.3150
12073TIP3    H257635   3.616   1.401   4.640 -1.0653 -0.0744 -0.1795
12074TIP3   OH257636   0.093   6.047  13.648 -0.0781 -0.4110  0.7231
12074TIP3    H157637   0.059   6.094  13.572  1.1073 -1.7664 -0.7402
12074TIP3    H257638   0.156   6.107  13.687 -1.7244  0.8596  1.5563
12075TIP3   OH257639   0.049   0.038   3.567  0.1350 -0.1395  0.3987
12075TIP3    H157640   0.037  -0.057   3.569  0.4577 -0.2116 -0.6133
12075TIP3    H257641   0.088   0.059   3.652  1.0581 -1.0563  0.2168
12076TIP3   OH257642   0.672   3.206   2.949 -0.3424 -0.6887 -0.2726
12076TIP3    H157643   0.680   3.258   2.869 -1.7903 -0.3473 -0.2112
12076TIP3    H257644   0.739   3.243   3.007  0.2874 -0.5152 -1.0873
12077TIP3   OH257645   1.437   4.806   3.120  0.8804 -0.1308  0.8128
12077TIP3    H157646   1.482   4.869   3.176  0.4553  0.1594  0.8345
12077TIP3    H257647   1.439   4.724   3.170  0.6204  0.0942  1.1984
12078TIP3   OH257648   6.253   4.082   2.403  0.1957  0.0366  0.7648
12078TIP3    H157649   6.223   3.992   2.398 -0.6236  0.2582  1.5009
12078TIP3    H257650   6.204   4.128   2.334  1.4516 -0.2817 -0.3889
12079TIP3   OH257651   3.099   1.143   4.584  0.2749  0.3600 -0.4450
12079TIP3    H157652   3.193   1.129   4.585  0.2479  0.1092 -1.0804
12079TIP3    H257653   3.079   1.175   4.672  0.7907 -0.5914  0.0324
12080TIP3   OH257654   5.501   4.349  13.596 -0.2774  0.0402  0.2329
12080TIP3    H157655   5.532   4.259  13.595 -1.7977 -0.5233  0.3459
12080TIP3    H257656   5.501   4.375  13.504 -0.7097 -0.4042  0.1035
12081TIP3   OH257657   6.564   4.991   4.828 -0.1974  0.4832 -0.1461
12081TIP3    H157658   6.628   5.046   4.874 -1.2653  1.6973 -0.0705
12081TIP3    H257659   6.516   5.052   4.772  0.3523 -0.7949 -2.1117
12082TIP3   OH257660   1.108   6.431   3.581  0.2018 -0.0571 -0.2404
12082TIP3    H157661   1.036   6.408   3.640 -0.1167 -0.6719 -0.8583
12082TIP3    H257662   1.170   6.359   3.588 -0.5397 -0.9121 -1.7575
12083TIP3   OH257663   3.577   1.260   4.361  0.9680 -0.4689  0.3939
12083TIP3    H157664   3.646   1.194   4.352  1.7694  0.4944 -0.9183
12083TIP3    H257665   3.622   1.343   4.349 -0.2814  0.2374  0.4160
12084TIP3   OH257666   4.184   5.189  11.610 -0.3537  0.3894 -0.3819
12084TIP3    H157667   4.090   5.200  11.627 -0.2615  0.7420 -0.0911
12084TIP3    H257668   4.221   5.276  11.622  0.4049 -0.1797  1.9699
12085TIP3   OH257669   5.014   2.944  13.288 -0.4505  0.3160 -0.1488
12085TIP3    H157670   4.973   2.886  13.353 -0.9693  0.0688 -0.6859
12085TIP3    H257671   5.062   3.008  13.340  0.0259 -0.5157  0.4619
12086TIP3   OH257672   6.430   2.150  17.035  0.2579  0.0457 -0.4808
12086TIP3    H157673   6.402   2.241  17.021 -1.1764 -0.2841  0.1459
12086TIP3    H257674   6.525   2.156  17.040  0.1429  1.6628  0.5827
12087TIP3   OH257675   3.271   2.597   2.261 -0.1147  0.1453  0.2335
12087TIP3    H157676   3.326   2.532   2.216  1.4575  2.2864 -1.1085
12087TIP3    H257677   3.303   2.598   2.351 -0.0336 -0.7958  0.2245
12088TIP3   OH257678   2.252   6.297   5.644 -0.2555  0.1817  0.3051
12088TIP3    H157679   2.224   6.389   5.650  0.1773  0.3854 -0.5529
12088TIP3    H257680   2.178   6.252   5.604 -0.1533  0.3252 -0.0536
12089TIP3   OH257681   0.636   4.089   5.737  0.1931 -0.1901  0.0734
12089TIP3    H157682   0.693   4.052   5.804  0.8169  1.4756  0.5104
12089TIP3    H257683   0.596   4.166   5.779 -3.5931 -2.0735  0.3177
12090TIP3   OH257684   6.649   2.538  13.977  0.6045  0.2557  0.4408
12090TIP3    H157685   6.678   2.468  14.036 -0.6223 -0.0876  0.6553
12090TIP3    H257686   6.658   2.618  14.030 -0.7348 -0.0797  1.2043
12091TIP3   OH257687   2.357   4.678  17.049  0.4140 -0.6509  0.1866
12091TIP3    H157688   2.299   4.623  16.996  2.5776 -3.4217  0.4610
12091TIP3    H257689   2.358   4.635  17.134 -0.8858  2.1950  1.7862
12092TIP3   OH257690   3.993   5.590  12.990 -0.7175 -0.0574  0.6106
12092TIP3    H157691   4.020   5.635  12.910 -1.6200 -0.0845  0.2741
12092TIP3    H257692   3.993   5.497  12.966 -0.0402 -0.1503  0.9426
12093TIP3   OH257693   1.966   0.522   5.786  0.5440 -0.3946  0.2588
12093TIP3    H157694   2.008   0.442   5.817  1.5689  0.9978  2.7351
12093TIP3    H257695   1.956   0.576   5.864 -2.3850  0.9545 -0.8738
12094TIP3   OH257696   3.028   6.378   2.729  0.7315  0.3279  0.3254
12094TIP3    H157697   2.958   6.322   2.762  0.2808  0.3908 -0.5269
12094TIP3    H257698   3.016   6.380   2.635  0.3335  2.4246  0.3917
12095TIP3   OH257699   0.282   4.248  15.793  0.4217 -0.8662  0.0551
12095TIP3    H157700   0.208   4.204  15.749 -0.2977 -0.6959  1.0585
12095TIP3    H257701   0.256   4.252  15.885  0.9651  0.6625  0.1712
12096TIP3   OH257702   6.419   2.790  14.745  0.0023  0.1175  0.2663
12096TIP3    H157703   6.362   2.752  14.678 -0.1058  1.0815 -0.2082
12096TIP3    H257704   6.480   2.845  14.696  0.6380 -0.0386  0.8735
12097TIP3   OH257705   3.270   0.663   1.325 -0.3099 -0.5837 -0.2185
12097TIP3    H157706   3.333   0.728   1.295 -0.6110 -0.4770 -0.6207
12097TIP3    H257707   3.312   0.579   1.307 -0.2703 -0.5123 -0.4642
12098TIP3   OH257708   0.522   5.943   0.158 -0.3968  0.6245 -0.0659
12098TIP3    H157709   0.535   5.947   0.253 -0.7437  1.6704 -0.0457
12098TIP3    H257710   0.459   5.872   0.146 -0.7780  0.8442  0.5455
12099TIP3   OH257711   1.548   3.752   2.890  0.3888 -0.0294  0.6162
12099TIP3    H157712   1.569   3.828   2.836  0.1522 -0.0871  0.4407
12099TIP3    H257713   1.628   3.734   2.938 -0.0884  1.4807  2.0766
12100TIP3   OH257714   1.924   1.797   0.825  0.1278  0.4396  0.0263
12100TIP3    H157715   1.998   1.815   0.767  0.4362  2.7126  1.0128
12100TIP3    H257716   1.883   1.883   0.838 -2.9566 -0.7849 -0.7769
12101TIP3   OH257717   2.409   2.975  15.201  0.3352  0.4256 -0.2192
12101TIP3    H157718   2.468   2.917  15.153  0.2982  0.1029  0.1254
12101TIP3    H257719   2.378   2.923  15.275 -0.1160  0.7036 -0.2054
12102TIP3   OH257720   3.394   5.492  11.643 -0.4863 -0.3952 -1.2069
12102TIP3    H157721   3.395   5.548  11.566  0.4540  0.6326 -0.4777
12102TIP3    H257722   3.301   5.477  11.660 -0.8700  2.1565 -0.5908
12103TIP3   OH257723   4.987   2.850  11.711 -0.7278 -0.4245  0.0837
12103TIP3    H157724   5.081   2.869  11.708 -0.6895 -0.3613  1.1420
12103TIP3    H257725   4.969   2.800  11.632  0.6174 -2.3082  0.9204
12104TIP3   OH257726   3.267   2.511   1.675 -0.1678  0.5097 -0.1544
12104TIP3    H157727   3.286   2.426   1.635 -1.3776 -0.1015  0.5014
12104TIP3    H257728   3.201   2.492   1.742  2.0538  1.3921  2.5082
12105TIP3   OH257729   2.477   5.127   3.401  0.1787  0.0702 -0.1979
12105TIP3    H157730   2.443   5.201   3.452  1.8917  0.4262  0.4955
12105TIP3    H257731   2.466   5.154   3.309  0.9820  1.3091  0.0462
12106TIP3   OH257732   4.659   5.936   1.529  0.5134  0.1595  0.0897
12106TIP3    H157733   4.638   5.994   1.602  0.0997  0.4308 -0.2381
12106TIP3    H257734   4.742   5.894   1.553  0.9487  1.0838  0.2114
12107TIP3   OH257735   4.995   1.286   1.337  0.0264  0.7874  0.1814
12107TIP3    H157736   5.004   1.249   1.249  0.3218  1.1016  0.0722
12107TIP3    H257737   4.946   1.367   1.323 -1.0521  0.1908  0.4850
12108TIP3   OH257738   3.299   0.212  16.157 -0.3279  0.4956 -0.0884
12108TIP3    H157739   3.359   0.190  16.228 -0.5555  2.9408  0.9729
12108TIP3    H257740   3.217   0.169  16.180 -0.2520  0.8629  0.9203
12109TIP3   OH257741   3.615   3.123  14.908 -0.5847  0.1433  0.3899
12109TIP3    H157742   3.691   3.083  14.950  0.0802  0.9086 -0.0619
12109TIP3    H257743   3.540   3.077  14.945  0.1470 -1.4846 -0.0615
12110TIP3   OH257744   3.403   3.729  15.083  0.6991  0.2742 -0.1730
12110TIP3    H157745   3.360   3.812  15.061 -2.1185 -1.1433 -0.3807
12110TIP3    H257746   3.461   3.712  15.010 -0.0898  1.1613 -1.0355
12111TIP3   OH257747   4.544   2.351  15.615  0.0186 -0.1767 -0.0956
12111TIP3    H157748   4.636   2.327  15.623  0.3384  0.0157 -2.5418
12111TIP3    H257749   4.497   2.278  15.656  1.2116 -0.7247  0.3602
12112TIP3   OH257750   6.275   0.834  12.983  0.6586 -0.9042  0.0937
12112TIP3    H157751   6.223   0.787  13.048 -0.6252 -0.2943 -0.4484
12112TIP3    H257752   6.223   0.913  12.963  1.2350 -0.8493 -1.3160
12113TIP3   OH257753   2.437   2.886  14.164  0.2485 -0.8725  0.0151
12113TIP3    H157754   2.411   2.967  14.120  0.8292 -1.7348 -2.0444
12113TIP3    H257755   2.356   2.837  14.173 -0.2336  0.1938  1.9505
12114TIP3   OH257756   5.438   5.742   3.835  0.3592 -0.6701 -0.1947
12114TIP3    H157757   5.343   5.752   3.840  0.3890 -0.3500 -0.2583
12114TIP3    H257758   5.451   5.663   3.783  0.1065 -1.5874  1.0819
12115TIP3   OH257759   1.787   5.580   6.531  0.2471  0.4427 -0.2456
12115TIP3    H157760   1.705   5.595   6.579 -0.3533 -0.2421 -1.0343
12115TIP3    H257761   1.795   5.656   6.473 -0.4467 -0.0301 -0.9899
12116TIP3   OH257762   2.171   0.550   1.419  0.0123  0.3375  0.2681
12116TIP3    H157763   2.147   0.458   1.420 -1.6931  0.7336  1.8287
12116TIP3    H257764   2.094   0.595   1.383  1.0666  1.1258 -1.1157
12117TIP3   OH257765   1.463   3.277  13.033  0.1509 -0.1571  0.3357
12117TIP3    H157766   1.551   3.240  13.036  0.6707  0.6976 -2.0302
12117TIP3    H257767   1.477   3.369  13.010 -1.3510  0.0623  0.1980
12118TIP3   OH257768   3.905   2.476  13.679  0.5848 -0.1277 -0.1837
12118TIP3    H157769   3.865   2.419  13.744 -0.0984  2.8193  2.2198
12118TIP3    H257770   3.988   2.504  13.719 -0.2598  2.4535 -0.0056
12119TIP3   OH257771   1.000   0.635  13.549  0.5802 -0.0973  0.6376
12119TIP3    H157772   0.917   0.599  13.582  0.6876 -0.0040  1.0168
12119TIP3    H257773   1.035   0.566  13.493 -0.7799  0.6765 -1.2785
12120TIP3   OH257774   2.851   3.039  15.447  0.6428  0.2781  0.1603
12120TIP3    H157775   2.765   3.057  15.484  0.4960  1.4032 -0.6701
12120TIP3    H257776   2.904   3.115  15.470  0.5758  0.9732 -1.7767
12121TIP3   OH257777   4.158   2.595   2.664 -0.1901 -0.3192 -0.2374
12121TIP3    H157778   4.233   2.561   2.616  1.3429  1.9742  0.3543
12121TIP3    H257779   4.115   2.654   2.602 -0.1193  0.1630  0.1681
12122TIP3   OH257780   2.627   1.021   3.695 -0.7872  0.1574 -0.3871
12122TIP3    H157781   2.557   1.002   3.757 -0.6003 -1.2893 -0.5916
12122TIP3    H257782   2.583   1.029   3.610 -0.8673  0.7065 -0.2987
12123TIP3   OH257783   1.291   2.780   1.988  0.4454 -0.3833  0.2607
12123TIP3    H157784   1.204   2.777   2.028 -0.7331  0.1339 -2.1004
12123TIP3    H257785   1.279   2.834   1.910  2.6799 -1.0955 -0.6327
12124TIP3   OH257786   5.672   5.379   1.493  0.5284 -0.1710  0.0889
12124TIP3    H157787   5.638   5.357   1.406  0.0799  0.2261  0.1599
12124TIP3    H257788   5.595   5.407   1.542  0.7967 -0.3042  0.5872
12125TIP3   OH257789   5.388   5.222   1.118  0.2721 -0.1536  0.3143
12125TIP3    H157790   5.331   5.298   1.115  0.3875 -0.0217  1.3269
12125TIP3    H257791   5.340   5.154   1.070  0.2868  0.6214 -0.8264
12126TIP3   OH257792   2.027   0.762   3.532  0.2930 -0.1350 -0.3949
12126TIP3    H157793   1.958   0.698   3.518  1.2067 -1.7430  1.8394
12126TIP3    H257794   1.988   0.828   3.589  0.3584 -0.6339  0.2378
12127TIP3   OH257795   3.325   2.103  12.497 -0.0855  0.1333  0.2097
12127TIP3    H157796   3.301   2.011  12.508  0.8428 -0.0554  0.7188
12127TIP3    H257797   3.360   2.107  12.408  1.3676 -0.3658  0.7232
12128TIP3   OH257798   4.671   5.740  13.747 -0.1267  0.1761  0.4280
12128TIP3    H157799   4.766   5.728  13.748  0.2915  2.9481  0.8718
12128TIP3    H257800   4.645   5.725  13.838  0.0249  0.3746  0.5040
12129TIP3   OH257801   2.206   5.140   3.826 -0.0555 -0.1825  0.1901
12129TIP3    H157802   2.165   5.058   3.852  0.3196 -0.2254  0.6853
12129TIP3    H257803   2.290   5.114   3.788 -1.4675 -0.2727 -3.1313
12130TIP3   OH257804   2.880   2.244   1.825 -0.1711  0.2699  0.5220
12130TIP3    H157805   2.904   2.151   1.830 -0.8507 -0.0838 -1.6986
12130TIP3    H257806   2.788   2.246   1.848 -0.2399  0.3248  0.2521
12131TIP3   OH257807   0.854   0.392   1.700 -0.6590 -0.1845 -0.5034
12131TIP3    H157808   0.910   0.376   1.776  0.6335 -2.2718 -1.8170
12131TIP3    H257809   0.910   0.440   1.639 -0.0777 -2.5585 -1.9552
12132TIP3   OH257810   5.138   3.649   0.682  0.0077  0.2139 -0.4795
12132TIP3    H157811   5.047   3.678   0.670  0.0549  2.0762  2.6322
12132TIP3    H257812   5.188   3.729   0.693  1.6359 -0.8597  0.3136
12133TIP3   OH257813   2.388   3.621  12.732 -0.5436 -0.0011  0.1774
12133TIP3    H157814   2.294   3.623  12.716 -0.7711  0.2552  1.4217
12133TIP3    H257815   2.425   3.578  12.655 -1.6048  0.4759 -0.6219
12134TIP3   OH257816   3.111   6.453   3.054  0.6157 -0.3673  1.0082
12134TIP3    H157817   3.093   6.467   2.961  0.4131  1.5665  1.2827
12134TIP3    H257818   3.159   6.370   3.057 -0.1698 -0.9322 -0.7091
12135TIP3   OH257819   1.645   3.768  16.440 -0.8661  0.5226 -0.4290
12135TIP3    H157820   1.580   3.763  16.510  1.1576  2.6268  1.7744
12135TIP3    H257821   1.634   3.857  16.405 -1.3965 -0.2702 -2.4115
12136TIP3   OH257822   3.370   4.084  14.598 -0.5444 -0.0189  0.0746
12136TIP3    H157823   3.377   4.179  14.593  0.2202 -0.1149 -0.9079
12136TIP3    H257824   3.426   4.060  14.672 -0.8970  0.3040  0.4519
12137TIP3   OH257825   3.237   2.766  12.402  0.2965 -0.4305 -0.3755
12137TIP3    H157826   3.173   2.697  12.421  0.6402 -0.4178  0.9369
12137TIP3    H257827   3.231   2.825  12.477  1.2874 -0.0086 -0.6152
12138TIP3   OH257828   2.125   0.022   6.484 -0.0443  0.2056  0.0686
12138TIP3    H157829   2.067  -0.022   6.547 -1.9993  0.9045 -1.1384
12138TIP3    H257830   2.130   0.112   6.516  1.6844 -0.1822  1.0021
12139TIP3   OH257831   3.759   5.046   2.926 -0.0830  0.1383  0.4703
12139TIP3    H157832   3.843   5.063   2.969 -1.2897  0.8103  2.7023
12139TIP3    H257833   3.759   5.104   2.850  2.0193 -0.8945 -0.3922
12140TIP3   OH257834   4.811   4.914  14.312  0.2829 -0.2278 -0.7654
12140TIP3    H157835   4.869   4.990  14.305  2.5167 -1.8105 -0.8133
12140TIP3    H257836   4.789   4.909  14.404  1.6925 -0.5384 -0.4117
12141TIP3   OH257837   5.718   5.615   3.060  0.1994  0.5790  0.3539
12141TIP3    H157838   5.787   5.645   3.001  0.4521  0.8340  0.7752
12141TIP3    H257839   5.716   5.520   3.048  0.5607  0.5792  0.2759
12142TIP3   OH257840   4.333   5.037   4.202 -0.3894 -0.6776  0.3582
12142TIP3    H157841   4.301   4.967   4.146 -0.5897  0.2381 -0.7088
12142TIP3    H257842   4.426   5.044   4.180 -0.7602  0.6167 -0.9379
12143TIP3   OH257843   6.743   1.137   3.507  0.2335  0.0261  0.2375
12143TIP3    H157844   6.819   1.122   3.451  0.2731 -2.1742  0.7618
12143TIP3    H257845   6.779   1.136   3.596 -0.4095 -1.4969  0.5161
12144TIP3   OH257846   1.658   3.286  14.182 -0.6570  0.3019  0.0067
12144TIP3    H157847   1.746   3.257  14.204 -0.5160  1.2453  0.7541
12144TIP3    H257848   1.662   3.309  14.089 -0.4863 -0.9532 -0.3110
12145TIP3   OH257849   5.607   3.795   1.475  0.6192 -0.3509  0.3564
12145TIP3    H157850   5.682   3.853   1.486  2.4782 -2.7794  1.7279
12145TIP3    H257851   5.596   3.788   1.380  2.0833  0.1519  0.1179
12146TIP3   OH257852   3.132   1.945  13.840 -0.2909 -0.1158  0.0217
12146TIP3    H157853   3.081   1.945  13.921 -0.9863 -1.0716 -0.3983
12146TIP3    H257854   3.194   1.873  13.851 -0.7181 -0.5660 -0.4946
12147TIP3   OH257855   0.866   1.366  15.467 -0.0497  0.1055  0.0751
12147TIP3    H157856   0.954   1.352  15.433 -0.5476 -0.3431 -1.0777
12147TIP3    H257857   0.864   1.459  15.491  0.6653  0.1682 -0.1068
12148TIP3   OH257858   3.293   3.162   2.281 -0.6136 -0.6139  0.2090
12148TIP3    H157859   3.238   3.085   2.263  0.9318 -1.6418 -0.3017
12148TIP3    H257860   3.362   3.129   2.338 -0.3015  0.5603  0.5243
12149TIP3   OH257861   0.646   3.266  12.769  0.0264  0.3094  0.2019
12149TIP3    H157862   0.651   3.315  12.851 -0.6644  2.5596 -1.0293
12149TIP3    H257863   0.552   3.256  12.753  0.1429  0.3950 -0.5864
12150TIP3   OH257864   4.597   2.817  12.567 -0.1882 -0.5042 -0.2321
12150TIP3    H157865   4.638   2.904  12.574 -1.4079  0.2973 -2.1087
12150TIP3    H257866   4.553   2.805  12.651 -0.1273  0.7667  0.0103
12151TIP3   OH257867   2.913   3.676   6.383  0.4560 -0.0034 -0.0137
12151TIP3    H157868   2.826   3.637   6.376  1.1349 -1.7383  0.6155
12151TIP3    H257869   2.923   3.696   6.476  0.1713  1.6701 -0.3024
12152TIP3   OH257870   6.682   1.368  13.644  0.2947  0.0338 -0.0258
12152TIP3    H157871   6.657   1.434  13.579  0.9363  2.3230  1.9204
12152TIP3    H257872   6.750   1.317  13.601  3.0312  3.5090 -0.2243
12153TIP3   OH257873   4.594   0.031   6.462  0.1599  0.5460  0.2792
12153TIP3    H157874   4.504   0.027   6.428  0.7832  0.4168 -1.4302
12153TIP3    H257875   4.643  -0.032   6.410  2.0186  3.1476 -1.4006
12154TIP3   OH257876   2.378   0.326  11.597 -0.4565 -0.0124  0.6299
12154TIP3    H157877   2.309   0.336  11.662 -1.4164 -2.1263  0.0242
12154TIP3    H257878   2.436   0.401  11.611 -1.8541  0.7994  2.3884
12155TIP3   OH257879   5.926   4.591  11.168 -0.3536 -0.6038 -0.2586
12155TIP3    H157880   5.953   4.503  11.195  0.7335  0.2472  1.6674
12155TIP3    H257881   6.006   4.630  11.131 -1.6546 -1.5269 -4.5371
12156TIP3   OH257882   5.233   4.459   1.403 -0.2061 -0.6209 -0.2766
12156TIP3    H157883   5.224   4.503   1.487  0.7800 -1.4861  0.3060
12156TIP3    H257884   5.315   4.492   1.366  0.5299 -1.8906  0.1566
12157TIP3   OH257885   1.139   1.310  12.719  0.5659  0.1513  0.5167
12157TIP3    H157886   1.175   1.378  12.662 -0.0972 -0.2318 -0.3766
12157TIP3    H257887   1.214   1.253  12.737  1.2022  1.2711  1.5350
12158TIP3   OH257888   6.542   0.586   4.625 -0.1358 -0.2925  0.3324
12158TIP3    H157889   6.483   0.514   4.603  0.1610 -0.7623  1.0312
12158TIP3    H257890   6.613   0.580   4.561 -0.4970 -0.1443 -0.0853
12159TIP3   OH257891   1.920   5.198   5.406 -0.3483 -0.3083  0.0100
12159TIP3    H157892   2.007   5.183   5.369  0.4976 -0.8469  2.0511
12159TIP3    H257893   1.877   5.113   5.404  0.0569 -0.5583  1.0284
12160TIP3   OH257894   3.405   4.348  14.379 -0.1158  0.2268  0.4604
12160TIP3    H157895   3.367   4.422  14.331 -0.5959 -1.5090 -2.0050
12160TIP3    H257896   3.381   4.364  14.471 -3.2436  1.3611 -0.4309
12161TIP3   OH257897   5.216   6.463   3.228 -0.1509 -0.2165  0.1438
12161TIP3    H157898   5.257   6.384   3.193  0.6484  0.8955 -1.5913
12161TIP3    H257899   5.281   6.502   3.285 -0.2806 -0.4483  0.4512
12162TIP3   OH257900   3.359   5.001  12.536  0.1931 -0.2601  0.4565
12162TIP3    H157901   3.318   4.924  12.496  2.9340 -1.0583 -1.1022
12162TIP3    H257902   3.287   5.061  12.553 -1.8930 -2.6320  0.5258
12163TIP3   OH257903   4.923   0.786  12.651 -0.1289  0.2516 -0.0263
12163TIP3    H157904   4.930   0.699  12.613  2.4320  0.7192 -0.8803
12163TIP3    H257905   4.959   0.777  12.739 -0.7438  0.2775  0.2321
12164TIP3   OH257906   3.815   1.295  11.291 -0.4296  0.1453 -0.1274
12164TIP3    H157907   3.756   1.234  11.336 -0.1714 -0.4349 -0.5562
12164TIP3    H257908   3.766   1.321  11.213 -0.4475  0.3111 -0.0609
12165TIP3   OH257909   3.597   4.560   3.271 -0.0038  0.1504  0.2274
12165TIP3    H157910   3.528   4.607   3.225  0.4604 -0.3950 -1.0779
12165TIP3    H257911   3.567   4.556   3.362 -2.9393 -2.1862 -0.6620
12166TIP3   OH257912   6.192   4.913  14.702  0.8530 -0.6663 -0.5080
12166TIP3    H157913   6.102   4.908  14.670  0.7762  0.4231 -0.4687
12166TIP3    H257914   6.217   5.005  14.693  1.3646 -0.6171  1.0761
12167TIP3   OH257915   5.954   6.733   4.238  0.0112 -0.5952  0.0843
12167TIP3    H157916   5.878   6.789   4.254  1.5876  1.5189  0.6916
12167TIP3    H257917   5.933   6.651   4.282 -2.4504 -0.5873 -0.9184
12168TIP3   OH257918   0.374   5.425  13.691  0.5838  0.2855 -0.0337
12168TIP3    H157919   0.437   5.480  13.644  0.6756 -1.2489 -1.7725
12168TIP3    H257920   0.318   5.488  13.737  1.5350  1.7840 -0.8407
12169TIP3   OH257921   0.486   0.465  11.696  0.2159  0.0017  0.5252
12169TIP3    H157922   0.395   0.441  11.676  0.3828 -1.5433  1.4248
12169TIP3    H257923   0.490   0.464  11.792  0.8450  1.5072  0.5478
12170TIP3   OH257924   2.889   4.792   2.282 -0.2343 -0.2881 -0.1445
12170TIP3    H157925   2.809   4.754   2.247 -0.2971 -1.3068  1.0127
12170TIP3    H257926   2.959   4.739   2.244 -0.2311 -0.5656  0.2368
12171TIP3   OH257927   2.624   0.812   0.226 -0.5478  0.2160  0.3068
12171TIP3    H157928   2.644   0.720   0.209  0.0510  0.5046 -0.6129
12171TIP3    H257929   2.545   0.828   0.173  0.8006  0.8744 -1.6302
12172TIP3   OH257930   3.018   4.011  16.519 -0.1816 -0.2317  0.2292
12172TIP3    H157931   2.957   3.960  16.572  0.7792 -0.4722  1.1610
12172TIP3    H257932   2.965   4.050  16.450 -1.6161  0.5728  1.7144
12173TIP3   OH257933   0.929   5.223   1.805  0.3158 -0.4852  0.4733
12173TIP3    H157934   0.912   5.304   1.853  0.6294 -1.0963  1.6245
12173TIP3    H257935   0.879   5.234   1.723  1.8728  1.6966 -0.2994
12174TIP3   OH257936   3.686   6.336  14.436  0.1465 -0.5696 -0.1829
12174TIP3    H157937   3.748   6.394  14.393  0.7070 -1.4807 -0.6118
12174TIP3    H257938   3.611   6.333  14.376  0.2103 -0.4728 -0.2684
12175TIP3   OH257939   5.185   4.017  13.816  0.4170 -0.4451  0.2002
12175TIP3    H157940   5.209   3.997  13.906  1.3921 -1.6273 -0.2973
12175TIP3    H257941   5.206   4.110  13.806 -1.9529  0.3649  1.8619
12176TIP3   OH257942   4.558   4.108  14.770 -0.6979 -0.0749 -1.0368
12176TIP3    H157943   4.582   4.072  14.685  0.1863  0.9452 -1.2435
12176TIP3    H257944   4.514   4.191  14.748 -0.7639  0.0292 -0.5125
12177TIP3   OH257945   1.394   3.581  11.965 -0.3492  0.1507 -0.5955
12177TIP3    H157946   1.427   3.556  12.051  0.7344 -0.4149 -1.1591
12177TIP3    H257947   1.440   3.663  11.945  2.3352 -1.6082 -2.2140
12178TIP3   OH257948   2.029   6.252  13.914 -0.1779 -0.1482 -0.1644
12178TIP3    H157949   2.010   6.162  13.889 -0.6697 -0.3560  0.8986
12178TIP3    H257950   2.124   6.256  13.923 -0.1718 -0.6316  0.0094
12179TIP3   OH257951   4.164   6.029  13.002 -0.3282 -0.2849  0.4476
12179TIP3    H157952   4.232   5.967  12.976 -1.4391 -1.3136 -0.0680
12179TIP3    H257953   4.199   6.071  13.081  1.0938 -0.4620 -0.0618
12180TIP3   OH257954   0.366   5.024  16.966  0.4643  1.0742  0.1557
12180TIP3    H157955   0.373   5.061  17.054 -0.9133  1.5312  0.1127
12180TIP3    H257956   0.331   4.936  16.979 -0.5302  1.4381  0.0470
12181TIP3   OH257957   0.519   5.325  16.129  0.0086 -0.5245  0.0117
12181TIP3    H157958   0.582   5.320  16.058 -0.3051 -0.4507 -0.2733
12181TIP3    H257959   0.461   5.251  16.115 -0.5630 -0.0285 -0.3056
12182TIP3   OH257960   3.558   2.764  12.272  0.2293  0.1386 -0.2215
12182TIP3    H157961   3.488   2.758  12.207  0.6719  0.2894 -0.7133
12182TIP3    H257962   3.531   2.705  12.342  0.2187 -0.7607 -0.9771
12183TIP3   OH257963   4.422   2.809   5.133  0.6800  0.1167 -0.2413
12183TIP3    H157964   4.433   2.770   5.220 -2.7238 -0.4677  0.0548
12183TIP3    H257965   4.477   2.755   5.076  0.0021 -2.0030  0.9854
12184TIP3   OH257966   1.114   3.376   0.701  0.3732 -0.0892 -0.4683
12184TIP3    H157967   1.054   3.376   0.775  1.7918  0.1500  0.7314
12184TIP3    H257968   1.183   3.315   0.726  1.4141  0.7709 -1.1323
12185TIP3   OH257969   0.539   2.191   3.185  0.2938 -0.2105 -0.0771
12185TIP3    H157970   0.568   2.111   3.230 -0.2525 -1.3006 -1.5682
12185TIP3    H257971   0.449   2.172   3.160 -0.2058  1.3238  0.4585
12186TIP3   OH257972   1.393   0.515  16.443 -0.7167  0.1463 -0.5812
12186TIP3    H157973   1.425   0.523  16.533 -1.2262 -3.1083  0.0048
12186TIP3    H257974   1.340   0.594  16.430 -0.5812  0.7438  1.9579
12187TIP3   OH257975   2.862   3.087   0.865 -0.4283 -0.2581  0.3777
12187TIP3    H157976   2.927   3.121   0.804  0.4362 -0.0764  1.3802
12187TIP3    H257977   2.788   3.148   0.859  1.1714  2.0562  2.3205
12188TIP3   OH257978   1.376   2.886   2.658  0.4232 -0.4116 -0.4676
12188TIP3    H157979   1.455   2.923   2.697 -0.4139  2.0594 -0.9374
12188TIP3    H257980   1.403   2.855   2.572  0.9610  0.0714 -0.4752
12189TIP3   OH257981   2.206   5.382  10.828 -0.2911 -0.2277 -0.7324
12189TIP3    H157982   2.114   5.358  10.832 -0.1244 -0.7355  0.2123
12189TIP3    H257983   2.211   5.466  10.874 -0.0147 -1.0702  0.8357
12190TIP3   OH257984   2.428   0.742   3.411  0.1711 -0.0889  0.0598
12190TIP3    H157985   2.397   0.697   3.489 -0.3446 -0.9407 -0.6122
12190TIP3    H257986   2.351   0.748   3.354  0.6115  0.2257 -0.5152
12191TIP3   OH257987   4.581   6.565   0.715  0.4367  0.1997 -0.4199
12191TIP3    H157988   4.604   6.599   0.628  1.2119  1.9108  0.3994
12191TIP3    H257989   4.547   6.642   0.762  1.6882 -0.2775  1.3432
12192TIP3   OH257990   0.798   1.340   5.016  0.3010 -0.3833 -0.0810
12192TIP3    H157991   0.724   1.321   5.073  0.7574  1.4916  1.2432
12192TIP3    H257992   0.875   1.328   5.072  0.8812 -0.3444 -0.8568
12193TIP3   OH257993   1.263   2.983  10.744  0.0022  0.6545 -0.2064
12193TIP3    H157994   1.262   2.937  10.828 -0.7076 -1.7272 -1.3920
12193TIP3    H257995   1.170   3.002  10.727  0.1224  0.9650 -0.5137
12194TIP3   OH257996   2.995   0.237  11.953  0.1046  0.2000  0.0581
12194TIP3    H157997   3.032   0.319  11.984 -0.2128  0.1628  0.5519
12194TIP3    H257998   2.980   0.186  12.033 -0.7416  0.1025 -0.1558
12195TIP3   OH257999   0.383   0.048   1.631 -0.1003  0.1173  0.5780
12195TIP3    H158000   0.327  -0.030   1.635  0.2420 -0.3449 -2.0646
12195TIP3    H258001   0.335   0.110   1.576  1.1338  0.4409 -0.1755
12196TIP3   OH258002   2.910   6.396   4.372 -0.0601  0.1157 -0.7415
12196TIP3    H158003   2.960   6.350   4.305  0.8004 -0.1803  0.0742
12196TIP3    H258004   2.955   6.375   4.454 -1.8037 -0.5524  0.0977
12197TIP3   OH258005   0.216   4.092  11.660  0.1172 -0.1120  0.0027
12197TIP3    H158006   0.206   4.130  11.747 -1.5244 -1.0270  0.2565
12197TIP3    H258007   0.305   4.117  11.633  0.3798  0.8417  1.5968
12198TIP3   OH258008   4.460   3.166   3.319  0.5556  0.1935  0.0446
12198TIP3    H158009   4.520   3.092   3.307  0.9877 -0.0615  2.9690
12198TIP3    H258010   4.373   3.128   3.310  0.7929 -0.2915 -0.2641
12199TIP3   OH258011   2.101   4.852  15.766  0.0845  0.5369 -0.2308
12199TIP3    H158012   2.191   4.874  15.790 -0.9290  2.3757  2.3759
12199TIP3    H258013   2.064   4.934  15.734 -1.3200  0.4673  1.1174
12200TIP3   OH258014   3.646   0.248  15.674  0.0738 -0.3239  0.0939
12200TIP3    H158015   3.711   0.210  15.616 -0.8413 -0.5067 -0.8483
12200TIP3    H258016   3.679   0.232  15.762  1.0428 -0.8442 -0.3540
12201TIP3   OH258017   6.075   5.602   2.352  0.0943 -0.4111 -0.1734
12201TIP3    H158018   6.034   5.646   2.277  0.3717  0.1517 -0.0017
12201TIP3    H258019   6.011   5.611   2.423  0.1142 -0.3567 -0.1620
12202TIP3   OH258020   2.876   4.493  14.713  0.1405  0.0344 -0.6151
12202TIP3    H158021   2.920   4.570  14.750  1.5060 -1.0590  0.1326
12202TIP3    H258022   2.806   4.530  14.658  0.8976  1.8087 -0.4713
12203TIP3   OH258023   0.249   3.594   2.373 -0.1508  0.5123  0.4362
12203TIP3    H158024   0.289   3.588   2.287 -1.1883  0.1691 -0.0368
12203TIP3    H258025   0.316   3.559   2.433 -0.3907 -1.8593 -0.5441
12204TIP3   OH258026   3.436   0.394   2.637  0.3351 -0.7997 -0.0451
12204TIP3    H158027   3.429   0.326   2.704  0.1163 -0.4211  0.3242
12204TIP3    H258028   3.530   0.410   2.627  0.3271  0.0985  1.1607
12205TIP3   OH258029   1.144   1.198   4.199 -0.2588 -0.2310  0.1774
12205TIP3    H158030   1.061   1.162   4.228 -1.5568 -0.2816 -3.1821
12205TIP3    H258031   1.182   1.130   4.142  0.9040  0.7172 -0.2352
12206TIP3   OH258032   0.418   2.782  17.149 -0.0832  0.3368  0.0065
12206TIP3    H158033   0.383   2.814  17.232 -2.2259  0.1683 -0.7774
12206TIP3    H258034   0.368   2.703  17.130  1.6456 -0.6635 -0.5774
12207TIP3   OH258035   5.700   2.260   1.451  0.4505 -0.1079 -0.4642
12207TIP3    H158036   5.769   2.194   1.456 -0.2122 -1.1255 -3.0474
12207TIP3    H258037   5.633   2.231   1.513  1.3325 -0.3570  0.3832
12208TIP3   OH258038   6.074   1.071  13.413  0.3777 -0.1897 -0.1178
12208TIP3    H158039   6.014   1.143  13.432 -0.3272 -0.6688 -0.4750
12208TIP3    H258040   6.020   0.992  13.419  0.5359 -0.5153 -2.1765
12209TIP3   OH258041   5.460   3.821  12.002 -0.4121 -0.3543  0.2755
12209TIP3    H158042   5.448   3.726  11.991  0.6782 -0.6923  1.6727
12209TIP3    H258043   5.519   3.846  11.931  0.9854 -1.1598  1.0939
12210TIP3   OH258044   1.358   3.663  14.968  0.3311 -0.9352 -0.0157
12210TIP3    H158045   1.266   3.674  14.992 -0.2352 -0.3781 -2.2086
12210TIP3    H258046   1.365   3.573  14.938  0.9613 -1.5265  1.7424
12211TIP3   OH258047   4.034   2.080   0.539  0.3105  0.1182  0.5966
12211TIP3    H158048   4.062   2.006   0.487  0.9388 -0.2346  1.4061
12211TIP3    H258049   3.939   2.071   0.545  0.3744 -0.5843  0.6271
12212TIP3   OH258050   6.750   2.397  16.819 -0.1500  0.3005 -0.1546
12212TIP3    H158051   6.787   2.448  16.891 -1.2673  2.6234 -1.1203
12212TIP3    H258052   6.743   2.308  16.854  0.4923  1.0788  2.1521
12213TIP3   OH258053   1.956   2.839   4.945  0.0807 -0.1987 -0.2741
12213TIP3    H158054   1.991   2.855   5.032 -1.7681 -1.0821  0.6812
12213TIP3    H258055   2.032   2.842   4.887  1.3835  0.1023  1.3956
12214TIP3   OH258056   4.985   0.674  16.542 -0.5351 -0.3224  0.2089
12214TIP3    H158057   5.016   0.755  16.583 -1.6122  0.7301 -0.9764
12214TIP3    H258058   5.032   0.604  16.589 -1.0303  0.8405  2.5871
12215TIP3   OH258059   3.066   6.788   5.835  0.3096 -0.1457 -0.0960
12215TIP3    H158060   3.066   6.876   5.873 -0.4283 -0.4572  0.6594
12215TIP3    H258061   2.990   6.745   5.874  2.7388 -2.3810  2.6501
12216TIP3   OH258062   5.983   5.693   1.268  0.1229  0.2593 -0.2293
12216TIP3    H158063   5.913   5.722   1.327  0.5140  0.7547 -0.0004
12216TIP3    H258064   6.014   5.774   1.227 -1.0488 -0.2153 -2.1388
12217TIP3   OH258065   2.954   5.834  16.503 -0.6598  0.0657 -0.1470
12217TIP3    H158066   3.007   5.830  16.582 -1.0221 -0.7004  0.0671
12217TIP3    H258067   2.863   5.829  16.534 -0.7880 -1.9897 -0.6673
12218TIP3   OH258068   2.433   4.250  17.157 -0.2546 -0.3013  0.3832
12218TIP3    H158069   2.415   4.258  17.063 -3.0240 -1.4283  0.7152
12218TIP3    H258070   2.524   4.275  17.166  0.1465 -0.2787 -2.6319
12219TIP3   OH258071   4.323   3.674  14.384 -0.2941 -0.1049  0.7055
12219TIP3    H158072   4.364   3.705  14.303 -0.0027 -1.1965  0.4275
12219TIP3    H258073   4.231   3.662  14.360 -0.5169  0.9865  0.9514
12220TIP3   OH258074   0.899   6.287   5.822 -0.3094 -1.3439  0.3560
12220TIP3    H158075   0.815   6.288   5.777  0.1093  0.5795 -0.4751
12220TIP3    H258076   0.960   6.251   5.758 -0.1834 -1.0090  0.2826
12221TIP3   OH258077   5.359   6.713   1.677 -0.4160  0.2842 -0.2805
12221TIP3    H158078   5.367   6.623   1.645  0.6326  0.0955  0.4483
12221TIP3    H258079   5.432   6.759   1.635  2.7532 -0.5661  3.6521
12222TIP3   OH258080   5.468   3.602   0.875 -0.2303 -0.3728  0.7563
12222TIP3    H158081   5.411   3.533   0.840 -2.0478  0.7842  1.2971
12222TIP3    H258082   5.450   3.603   0.969 -1.4858  1.8738  0.5605
12223TIP3   OH258083   1.867   6.485  13.906  0.0004  0.2018  0.1785
12223TIP3    H158084   1.928   6.412  13.915  0.3123  0.6498  1.8858
12223TIP3    H258085   1.789   6.446  13.867  0.2385 -1.0148  0.8719
12224TIP3   OH258086   0.768   0.789  12.833 -0.0181  0.2232 -0.0879
12224TIP3    H158087   0.850   0.817  12.791 -0.5834  1.2484 -0.5642
12224TIP3    H258088   0.755   0.853  12.903 -0.9913  0.7847 -0.7572
12225TIP3   OH258089   4.851   0.700  10.868 -0.7376  0.0252 -0.7604
12225TIP3    H158090   4.907   0.664  10.938 -1.6539  1.5638  0.8234
12225TIP3    H258091   4.803   0.624  10.835 -0.7359 -0.6410  0.7012
12226TIP3   OH258092   3.347   2.134  15.501 -0.1576 -0.3102  0.0821
12226TIP3    H158093   3.403   2.058  15.519  0.6390 -0.1887 -1.6178
12226TIP3    H258094   3.337   2.133  15.406 -0.0148  1.7907 -0.0064
12227TIP3   OH258095   3.047   0.264   3.639  0.3119 -0.0444 -0.5460
12227TIP3    H158096   3.038   0.183   3.689 -0.2257 -0.1403 -0.7894
12227TIP3    H258097   2.958   0.298   3.633  0.7859  1.8123  1.5894
12228TIP3   OH258098   1.391   0.565  17.187 -0.7422  0.2384  1.0619
12228TIP3    H158099   1.396   0.660  17.177  0.2675  0.0300 -1.1986
12228TIP3    H258100   1.303   0.543  17.156 -0.8758  0.3991  1.3186
12229TIP3   OH258101   2.952   3.172  14.909  0.0953  0.0138  0.3800
12229TIP3    H158102   2.864   3.202  14.884 -0.5327 -0.6128  1.6981
12229TIP3    H258103   2.952   3.178  15.005  1.6505  0.3919  0.3817
12230TIP3   OH258104   2.378   2.011   1.861  0.1099  0.0574  0.2435
12230TIP3    H158105   2.360   2.064   1.783  0.5638  0.8475  0.6659
12230TIP3    H258106   2.312   1.942   1.858 -0.4934  0.6359 -0.3237
12231TIP3   OH258107   6.049   5.872   3.853 -0.3056  0.0140  0.5801
12231TIP3    H158108   6.040   5.835   3.941  1.1618 -0.8143  0.4144
12231TIP3    H258109   6.133   5.840   3.822 -0.4923  0.8439 -0.8811
12232TIP3   OH258110   5.775   4.487  13.098 -0.2199 -0.5755 -0.0234
12232TIP3    H158111   5.740   4.561  13.049 -3.1589 -1.6845  0.2059
12232TIP3    H258112   5.709   4.419  13.089  1.2763 -2.3929  1.7325
12233TIP3   OH258113   5.533   2.778  16.802 -0.3092 -0.0604  0.5289
12233TIP3    H158114   5.568   2.690  16.794  0.0832 -0.1455  2.5882
12233TIP3    H258115   5.583   2.830  16.738  2.8476 -0.4237  2.4738
12234TIP3   OH258116   1.672   2.962   0.211  0.2630 -0.1795  0.5348
12234TIP3    H158117   1.674   3.058   0.206 -0.6939 -0.1592  0.3473
12234TIP3    H258118   1.764   2.937   0.211  0.5719  0.8059  2.1014
12235TIP3   OH258119   6.524   2.022   3.299  0.0306  0.4470  0.0326
12235TIP3    H158120   6.542   1.990   3.210 -0.2654 -0.7373  0.3833
12235TIP3    H258121   6.430   2.041   3.298  0.1269  0.9226 -0.0548
12236TIP3   OH258122   4.955   3.776   5.513  0.0480  0.5574  0.7494
12236TIP3    H158123   5.022   3.738   5.570  0.4820 -0.1429 -0.2024
12236TIP3    H258124   4.942   3.711   5.444  1.2840  2.3697 -1.3311
12237TIP3   OH258125   3.353   4.303  15.990 -0.6241  0.3341 -0.2649
12237TIP3    H158126   3.274   4.322  15.938 -0.6280  2.0746  0.3300
12237TIP3    H258127   3.359   4.375  16.052  2.2313  1.0421 -1.2153
12238TIP3   OH258128   2.745   6.429   5.865 -0.2328 -0.5284 -0.3167
12238TIP3    H158129   2.742   6.524   5.878 -1.6028 -0.4589 -0.9948
12238TIP3    H258130   2.654   6.403   5.855  0.2104 -1.6989 -1.6130
12239TIP3   OH258131   1.455   2.759   4.314  0.5035  0.0347  0.3679
12239TIP3    H158132   1.433   2.682   4.262  0.0986 -0.8629  1.7956
12239TIP3    H258133   1.514   2.810   4.259  1.3596 -1.6586 -0.3469
12240TIP3   OH258134   2.601   5.730   2.344  0.0800 -0.0019  0.4074
12240TIP3    H158135   2.640   5.664   2.286 -0.6778  0.5461 -0.7609
12240TIP3    H258136   2.639   5.711   2.430  1.5680 -0.5796 -0.3342
12241TIP3   OH258137   5.610   2.629  12.813 -0.2348 -0.3454  0.1269
12241TIP3    H158138   5.663   2.554  12.785 -1.6896 -0.6138 -2.2487
12241TIP3    H258139   5.585   2.672  12.731 -2.6783  0.4292  1.1704
12242TIP3   OH258140   2.468   6.540   2.659 -0.3440 -0.1892  0.5704
12242TIP3    H158141   2.470   6.512   2.751  0.5662  1.2675  1.0164
12242TIP3    H258142   2.375   6.554   2.641 -0.5935 -1.1247  1.0471
12243TIP3   OH258143   4.010   4.326   1.043  0.5445 -0.3931 -0.4693
12243TIP3    H158144   3.974   4.312   0.955  0.4187 -2.8193 -0.0903
12243TIP3    H258145   4.034   4.419   1.044 -0.7185  0.0289 -2.5797
12244TIP3   OH258146   0.459   4.762   3.183  0.1404 -0.1729  0.3038
12244TIP3    H158147   0.510   4.738   3.106 -0.4025 -2.7145  0.6306
12244TIP3    H258148   0.520   4.757   3.256 -0.2785 -2.3268  0.5753
12245TIP3   OH258149   1.626   1.165  16.371 -0.3112 -0.0437  0.4896
12245TIP3    H158150   1.633   1.257  16.344  2.7837  0.0637  1.3291
12245TIP3    H258151   1.616   1.117  16.288 -2.1421  0.9972  0.0510
12246TIP3   OH258152   3.323   5.066   2.862  0.2798 -0.0605  0.1054
12246TIP3    H158153   3.266   4.995   2.892  0.7350 -1.3444 -1.8821
12246TIP3    H258154   3.322   5.059   2.766  0.9208  2.1803 -0.1219
12247TIP3   OH258155   6.582   5.164   3.516  0.0345  0.9871 -0.1600
12247TIP3    H158156   6.545   5.252   3.524 -0.6727  0.7652 -0.8721
12247TIP3    H258157   6.547   5.117   3.591 -1.7275  0.5891 -1.1770
12248TIP3   OH258158   1.649   5.686  13.272  0.0568  0.6889  0.0434
12248TIP3    H158159   1.564   5.721  13.247  0.1853  1.8930  1.1987
12248TIP3    H258160   1.699   5.762  13.301  1.4361 -0.0373 -0.3182
12249TIP3   OH258161   0.609   4.363  13.520 -0.0794  0.2640 -0.0034
12249TIP3    H158162   0.609   4.287  13.578 -0.3755 -0.4356 -0.8890
12249TIP3    H258163   0.622   4.326  13.432 -1.5104  1.0990 -0.6060
12250TIP3   OH258164   3.484   0.061  12.562 -0.0821  0.1274  0.1094
12250TIP3    H158165   3.465   0.099  12.648  0.0898  1.9488 -0.6258
12250TIP3    H258166   3.432  -0.019  12.560 -0.7989  0.5165  1.5457
12251TIP3   OH258167   4.471   0.555  16.575  0.0323  0.2253  0.8824
12251TIP3    H158168   4.562   0.536  16.598  0.0263 -0.8709  0.0654
12251TIP3    H258169   4.473   0.643  16.537  0.7390  0.2077  0.8761
12252TIP3   OH258170   3.426   2.178   2.283 -0.2544  0.7673  0.0497
12252TIP3    H158171   3.343   2.226   2.287 -0.0882  1.0367  0.3079
12252TIP3    H258172   3.493   2.246   2.285 -0.0311  0.6374 -1.6097
12253TIP3   OH258173   1.630   2.970   5.769 -0.1590  0.1055  0.2624
12253TIP3    H158174   1.655   3.031   5.700  0.6040  0.0252  0.4517
12253TIP3    H258175   1.703   2.975   5.832  1.8187 -3.6352 -1.3979
12254TIP3   OH258176   1.705   5.737   1.542  0.2783 -0.2922 -0.3662
12254TIP3    H158177   1.679   5.805   1.604 -2.0382 -0.6777 -0.8236
12254TIP3    H258178   1.643   5.665   1.558  0.0858 -0.6823 -2.5765
12255TIP3   OH258179   6.457   6.239  15.929 -0.5638 -0.5185 -0.2394
12255TIP3    H158180   6.468   6.257  16.023  1.1382  0.4672 -0.5960
12255TIP3    H258181   6.528   6.179  15.908 -1.1012 -0.9477 -0.8574
12256TIP3   OH258182   3.353   2.886   3.121  0.2878 -0.0270  0.0258
12256TIP3    H158183   3.297   2.868   3.197  1.5420 -0.8285  0.8003
12256TIP3    H258184   3.359   2.981   3.118 -0.9089  0.0648  0.0716
12257TIP3   OH258185   3.968   6.433  14.992  0.6465  0.3808  0.1064
12257TIP3    H158186   3.878   6.463  15.005  1.1979  4.1406 -2.8544
12257TIP3    H258187   3.966   6.387  14.908  1.4687  0.5277  0.0007
12258TIP3   OH258188   0.433   2.263  16.658  0.2894  0.0612 -0.0392
12258TIP3    H158189   0.414   2.297  16.571  0.4143 -2.5417 -1.1875
12258TIP3    H258190   0.428   2.168  16.648  1.0079 -0.3495  2.6515
12259TIP3   OH258191   4.431   0.115   4.440  0.2425 -0.0183  0.0322
12259TIP3    H158192   4.429   0.028   4.479 -1.0529 -0.0853 -0.1283
12259TIP3    H258193   4.388   0.105   4.355  0.0905  0.7596  0.0055
12260TIP3   OH258194   2.716   6.206  13.445  0.0840  0.2247  0.2153
12260TIP3    H158195   2.792   6.176  13.495 -0.4140 -0.8294  0.3691
12260TIP3    H258196   2.643   6.199  13.507  0.0064  2.2172  0.3986
12261TIP3   OH258197   2.398   5.376   2.340 -0.3105 -0.1009 -0.2083
12261TIP3    H158198   2.472   5.350   2.396  1.8925  0.1637 -2.7914
12261TIP3    H258199   2.359   5.451   2.386  1.6184  0.3504  0.8214
12262TIP3   OH258200   6.001   0.498   4.453 -0.2451 -0.1091  0.0726
12262TIP3    H158201   6.080   0.445   4.453 -1.0894 -1.4318  0.5413
12262TIP3    H258202   6.010   0.555   4.376  0.3584 -1.4726 -0.9026
12263TIP3   OH258203   3.277   1.322   3.955 -0.1639  0.7349  0.1879
12263TIP3    H158204   3.319   1.402   3.921 -1.4469  1.2684 -0.1889
12263TIP3    H258205   3.262   1.268   3.878  1.7525 -0.4452  0.5562
12264TIP3   OH258206   0.866   4.120  12.518 -0.1531  0.2532 -0.1848
12264TIP3    H158207   0.796   4.172  12.478  0.7477  0.0610 -2.1171
12264TIP3    H258208   0.822   4.041  12.551 -1.4901  1.9684  2.5276
12265TIP3   OH258209   1.191   4.656   2.363 -0.2592  0.3545 -0.0181
12265TIP3    H158210   1.119   4.656   2.299 -0.9063  0.1691  0.6916
12265TIP3    H258211   1.161   4.715   2.433 -0.3855 -0.8546  0.9855
12266TIP3   OH258212   4.106   2.436  15.366 -0.5488  0.1197 -0.2272
12266TIP3    H158213   4.184   2.485  15.341 -1.2099  0.9236 -0.7730
12266TIP3    H258214   4.091   2.376  15.293 -0.6372  0.2036 -0.2779
12267TIP3   OH258215   5.826   1.586  12.040 -0.0486  0.1070  0.1260
12267TIP3    H158216   5.884   1.521  12.079  0.4872  0.2667 -0.3789
12267TIP3    H258217   5.792   1.636  12.114 -0.6374 -0.8793  0.5326
12268TIP3   OH258218   3.039   0.832  13.330 -0.0736 -0.4108 -0.0283
12268TIP3    H158219   3.011   0.887  13.403 -1.0155 -0.3606 -0.4073
12268TIP3    H258220   3.022   0.886  13.252 -1.7083 -1.4647 -0.4619
12269TIP3   OH258221   0.958   2.186  14.258  0.6040 -0.4241 -0.1301
12269TIP3    H158222   1.038   2.150  14.297  0.9378  0.7497  0.3014
12269TIP3    H258223   0.890   2.121  14.278  1.3598 -1.2410 -0.1575
12270TIP3   OH258224   5.462   4.741  11.034  0.0813 -0.1759  0.2543
12270TIP3    H158225   5.376   4.707  11.009 -0.1422 -0.0778  0.8525
12270TIP3    H258226   5.519   4.664  11.034 -0.1992 -0.3892  0.6586
12271TIP3   OH258227   0.723   5.434  12.996  1.0495 -0.1982  0.1849
12271TIP3    H158228   0.631   5.409  13.000  1.1179 -0.6672 -0.7561
12271TIP3    H258229   0.729   5.514  13.048 -0.2646  0.8792 -1.2385
12272TIP3   OH258230   5.240   1.523  11.832  0.2583  0.5161 -0.0691
12272TIP3    H158231   5.198   1.512  11.917  0.3072  1.9275  0.1668
12272TIP3    H258232   5.197   1.459  11.775  0.0485 -0.2666  0.9433
12273TIP3   OH258233   5.295   2.906   2.868 -0.2213  0.8088  0.7874
12273TIP3    H158234   5.277   2.965   2.942  1.2515  2.3545 -0.0116
12273TIP3    H258235   5.302   2.819   2.908 -0.3878  1.4680  2.3342
12274TIP3   OH258236   5.532   0.627  16.150 -0.2128 -0.1364 -0.0738
12274TIP3    H158237   5.623   0.624  16.177  0.2185 -0.9857 -1.5249
12274TIP3    H258238   5.489   0.558  16.201  0.8652 -2.6528 -2.3229
12275TIP3   OH258239   6.173   0.414  12.854 -0.3753 -0.0542  0.1447
12275TIP3    H158240   6.109   0.438  12.921  0.0617  3.5869 -0.5072
12275TIP3    H258241   6.215   0.497  12.830  0.7874 -1.4371 -3.3300
12276TIP3   OH258242   1.712   1.886   3.003  0.4594  0.3266 -0.2452
12276TIP3    H158243   1.689   1.975   3.029  1.6241  1.2807 -2.2237
12276TIP3    H258244   1.704   1.887   2.907 -1.0542 -2.1805 -0.2254
12277TIP3   OH258245   1.168   2.274  16.916  0.5819  0.1729  0.4056
12277TIP3    H158246   1.200   2.362  16.894 -1.2790  0.4322 -1.6752
12277TIP3    H258247   1.073   2.284  16.918  0.1520 -2.2230 -2.3778
12278TIP3   OH258248   0.724   1.570  14.454  0.5671 -0.3176  0.1044
12278TIP3    H158249   0.736   1.644  14.394  0.2592 -1.0317 -0.8578
12278TIP3    H258250   0.666   1.510  14.407  1.7372 -1.7163  0.3794
12279TIP3   OH258251   6.529   0.736  10.419 -0.0264 -0.0322  0.0186
12279TIP3    H158252   6.536   0.818  10.369 -1.3088  0.0672 -0.0170
12279TIP3    H258253   6.438   0.733  10.448  0.9113  0.4990  3.3970
12280TIP3   OH258254   2.711   0.560   1.153  0.5514 -0.5833 -0.0089
12280TIP3    H158255   2.692   0.469   1.127  2.3005 -0.8766 -0.3493
12280TIP3    H258256   2.647   0.578   1.221 -0.8239 -1.5476 -0.9740
12281TIP3   OH258257   3.595   5.264   0.805 -0.0738  0.2263  0.1097
12281TIP3    H158258   3.522   5.271   0.866  0.7566 -1.1916  1.3292
12281TIP3    H258259   3.624   5.354   0.791 -1.2746  0.6945  0.5685
12282TIP3   OH258260   4.681   5.851  16.135 -0.0744 -0.0008 -0.0784
12282TIP3    H158261   4.680   5.940  16.171  0.6191 -0.6380  1.6240
12282TIP3    H258262   4.774   5.834  16.118 -0.1272 -0.6498  0.2748
12283TIP3   OH258263   3.433   1.154  12.088 -0.3636  0.4501 -0.2358
12283TIP3    H158264   3.475   1.073  12.058  0.8580  0.8072  0.4454
12283TIP3    H258265   3.483   1.223  12.045 -2.6806  0.8798 -2.4941
12284TIP3   OH258266   3.954   0.659   0.748  0.2561 -0.2753  0.0490
12284TIP3    H158267   3.907   0.704   0.678  0.8746 -1.5634 -1.2650
12284TIP3    H258268   3.898   0.666   0.825 -0.1101  1.8267 -0.3564
12285TIP3   OH258269   0.956   2.621   2.658 -0.3918 -0.0426 -0.3619
12285TIP3    H158270   0.975   2.636   2.565  3.2066 -1.6665 -0.0477
12285TIP3    H258271   0.896   2.546   2.658  1.3199 -1.4697 -1.3914
12286TIP3   OH258272   2.025   4.269   4.603 -0.3603 -0.1427  0.1289
12286TIP3    H158273   2.094   4.318   4.558  1.1763 -2.5069 -0.2829
12286TIP3    H258274   2.002   4.199   4.542 -1.5282 -0.7290  1.1971
12287TIP3   OH258275   6.737   1.072  16.368  0.0772 -0.4542 -0.5810
12287TIP3    H158276   6.703   1.150  16.323  0.0151  0.8074  1.4855
12287TIP3    H258277   6.805   1.107  16.426 -0.9345 -1.7104  1.4386
12288TIP3   OH258278   1.766   3.973  11.696  0.5859  0.1138 -0.5627
12288TIP3    H158279   1.722   3.889  11.691  0.7395  0.0700 -1.2140
12288TIP3    H258280   1.718   4.030  11.637  2.6696 -0.5288 -3.0695
12289TIP3   OH258281   0.387   1.283   0.925  0.0840 -0.0795 -0.2750
12289TIP3    H158282   0.303   1.245   0.954 -2.2326  0.5494 -5.1602
12289TIP3    H258283   0.387   1.371   0.962 -0.4587 -0.6793  1.2536
12290TIP3   OH258284   0.740   4.427   1.028  0.0909 -0.5079  0.0703
12290TIP3    H158285   0.744   4.445   0.934 -0.3778 -0.0819  0.1289
12290TIP3    H258286   0.784   4.343   1.038 -1.3760 -1.4042 -0.7589
12291TIP3   OH258287   2.580   4.108   3.694 -0.5491 -0.1916 -0.4375
12291TIP3    H158288   2.493   4.088   3.728  0.1699 -2.1537  0.3927
12291TIP3    H258289   2.640   4.077   3.762  0.8318  1.4755 -0.8090
12292TIP3   OH258290   0.774   2.829   0.530 -0.0304  0.1908 -0.2343
12292TIP3    H158291   0.827   2.793   0.601 -0.1250 -1.6390 -1.0317
12292TIP3    H258292   0.780   2.764   0.460 -1.9916  0.7181 -0.9656
12293TIP3   OH258293   0.630   1.027   2.879 -0.1946 -0.2233 -0.9339
12293TIP3    H158294   0.723   1.021   2.902  0.0882  1.3346 -1.4856
12293TIP3    H258295   0.584   1.020   2.962  0.2322 -3.1144 -0.8438
12294TIP3   OH258296   4.470   3.241  13.476 -0.0699 -0.3084  0.4371
12294TIP3    H158297   4.503   3.330  13.465  2.0264 -1.0588  0.1210
12294TIP3    H258298   4.388   3.239  13.426  0.1386  1.2829 -0.0165
12295TIP3   OH258299   0.328   1.123  14.919 -0.2758  0.3299 -0.0359
12295TIP3    H158300   0.313   1.205  14.873 -0.4216  0.1295 -0.3504
12295TIP3    H258301   0.420   1.127  14.946 -0.8012  1.5130  1.8000
12296TIP3   OH258302   3.458   4.915  10.759 -0.7718 -0.4179 -0.2678
12296TIP3    H158303   3.527   4.864  10.717  0.7172  0.3612  1.1283
12296TIP3    H258304   3.446   4.991  10.702 -0.2012 -0.3836 -0.3493
12297TIP3   OH258305   3.411   4.438   4.110  0.5078  0.1277  0.4414
12297TIP3    H158306   3.431   4.528   4.139  1.1185  0.0970  0.1374
12297TIP3    H258307   3.412   4.386   4.191  0.0406  0.4077  0.6340
12298TIP3   OH258308   6.209   5.226   3.122  0.0542 -0.4204 -0.0700
12298TIP3    H158309   6.292   5.242   3.168 -0.5124  1.2158  0.4510
12298TIP3    H258310   6.227   5.247   3.031 -0.0584  1.0663  0.2286
12299TIP3   OH258311   5.637   1.420   3.459 -0.2782  0.1035  0.5245
12299TIP3    H158312   5.552   1.463   3.470  0.2636  1.2610  0.2995
12299TIP3    H258313   5.688   1.448   3.535  0.2634  0.3010  0.0951
12300TIP3   OH258314   6.196   4.724   3.108  0.2544  0.0729  0.4897
12300TIP3    H158315   6.148   4.804   3.085  0.7897  0.3612  0.3423
12300TIP3    H258316   6.226   4.739   3.197  0.7273  0.2329  0.3118
12301TIP3   OH258317   5.871   2.892   1.858  0.3600 -0.1957 -0.3874
12301TIP3    H158318   5.828   2.934   1.783  0.4980  1.4466  0.4165
12301TIP3    H258319   5.907   2.811   1.823  0.6433  0.6636 -2.1535
12302TIP3   OH258320   4.212   5.421  14.759  0.0936 -0.6437 -0.6406
12302TIP3    H158321   4.250   5.430  14.846 -2.5426 -0.8125  0.6101
12302TIP3    H258322   4.252   5.342  14.723  0.7696 -0.9117  0.6611
12303TIP3   OH258323   4.439   4.462   1.703  0.0036 -0.7631  0.6195
12303TIP3    H158324   4.391   4.451   1.785 -1.7027 -2.8917 -0.5569
12303TIP3    H258325   4.503   4.391   1.703  1.5438  0.5640  1.0422
12304TIP3   OH258326   0.387   0.932   4.380 -0.0427 -0.8035  0.1197
12304TIP3    H158327   0.406   0.960   4.470 -0.1013  0.2586 -0.1861
12304TIP3    H258328   0.473   0.925   4.338 -0.0944  0.8648 -0.3485
12305TIP3   OH258329   4.440   6.014   1.923 -0.1064  0.1968  0.0762
12305TIP3    H158330   4.517   6.021   1.866  1.6157 -2.1933  1.9029
12305TIP3    H258331   4.434   6.099   1.966  0.3609  1.0344 -1.4292
12306TIP3   OH258332   5.440   1.524  10.627  0.4275  0.1401  0.1485
12306TIP3    H158333   5.373   1.557  10.687 -1.0126  0.1633 -1.3885
12306TIP3    H258334   5.511   1.588  10.632 -1.0964  2.0031 -0.6484
12307TIP3   OH258335   5.104   1.843   1.293  0.2276 -0.3131  0.2517
12307TIP3    H158336   5.059   1.770   1.250  0.4405 -0.2673 -0.0561
12307TIP3    H258337   5.066   1.921   1.252 -1.1639 -0.1747  1.7116
12308TIP3   OH258338   1.989   6.568  13.481 -0.6504 -0.1856  0.7130
12308TIP3    H158339   1.908   6.570  13.532 -2.1030  1.1129 -1.4764
12308TIP3    H258340   1.985   6.648  13.429  1.9812 -0.2005  0.3860
12309TIP3   OH258341   0.981   4.157  15.508 -0.4634 -0.5186 -0.4433
12309TIP3    H158342   0.938   4.241  15.491 -1.3556 -0.8551  0.0818
12309TIP3    H258343   0.910   4.092  15.502 -0.0273 -1.0967  0.4088
12310TIP3   OH258344   5.108   0.250  16.378 -0.2125  0.4802 -0.2954
12310TIP3    H158345   5.128   0.317  16.443  1.3596  0.1507 -0.3995
12310TIP3    H258346   5.105   0.298  16.295  1.2396  0.4001 -0.4128
12311TIP3   OH258347   0.770   5.251   1.057 -0.3344 -0.0410 -0.8374
12311TIP3    H158348   0.721   5.226   1.135  1.1852  0.4465  0.3278
12311TIP3    H258349   0.724   5.210   0.985 -1.3223 -1.1795  0.4071
12312TIP3   OH258350   5.502   3.571  15.197  0.0491  0.3620  0.1144
12312TIP3    H158351   5.501   3.667  15.199  1.5198  0.4367 -1.1567
12312TIP3    H258352   5.564   3.549  15.127  0.0145 -1.5192  0.6291
12313TIP3   OH258353   4.688   3.619   4.475 -0.5672 -0.4928 -0.0291
12313TIP3    H158354   4.701   3.659   4.561 -0.6657 -0.3995 -0.0586
12313TIP3    H258355   4.623   3.550   4.490  0.9813 -1.9448  0.4306
12314TIP3   OH258356   6.249   3.544   1.739 -0.0379 -0.0422 -0.2577
12314TIP3    H158357   6.249   3.454   1.770 -0.4526  0.7695  2.3345
12314TIP3    H258358   6.330   3.581   1.773  0.0471  0.6269 -1.1540
12315TIP3   OH258359   2.807   1.195   3.771 -0.1329  0.4702  0.3515
12315TIP3    H158360   2.864   1.154   3.837 -0.4509  1.3892  1.2204
12315TIP3    H258361   2.729   1.139   3.770  0.9484 -1.1455 -1.2736
12316TIP3   OH258362   1.100   2.272  14.941  0.1930 -0.1455  0.4081
12316TIP3    H158363   1.156   2.321  14.880 -1.1893  0.4803 -0.4141
12316TIP3    H258364   1.162   2.225  14.998  1.5321 -0.0683 -0.9141
12317TIP3   OH258365   0.039   1.402  13.088 -0.3910  0.0683 -0.1742
12317TIP3    H158366   0.128   1.433  13.073  0.1017 -1.3636 -0.3334
12317TIP3    H258367  -0.017   1.472  13.054  0.6853  0.3752 -1.3803
12318TIP3   OH258368   0.503   6.318   0.017 -0.0347  0.1373  0.4949
12318TIP3    H158369   0.560   6.342  -0.056  0.5526 -0.7210  0.6493
12318TIP3    H258370   0.479   6.227  -0.000 -0.8825  0.3007  0.7523
12319TIP3   OH258371   2.340   2.683  14.488 -0.7063  0.2454 -0.2451
12319TIP3    H158372   2.421   2.706  14.535  0.3205  0.0912 -1.8586
12319TIP3    H258373   2.279   2.753  14.510  0.2837  1.0535  0.0059
12320TIP3   OH258374   3.605   0.620   2.272 -0.9258  0.0512 -0.3463
12320TIP3    H158375   3.656   0.644   2.349  0.0505 -0.2312 -0.8911
12320TIP3    H258376   3.516   0.610   2.305 -0.6146  0.4227  0.6496
12321TIP3   OH258377   2.003   0.765   1.034  0.1981  0.0644  0.4064
12321TIP3    H158378   2.024   0.708   0.960 -1.4070  0.6364 -0.5307
12321TIP3    H258379   1.909   0.780   1.027  0.3725  1.8517  1.3303
12322TIP3   OH258380   3.246   6.468   3.526  0.3820 -0.5845 -0.1582
12322TIP3    H158381   3.253   6.479   3.432 -1.5966 -0.0779 -0.2959
12322TIP3    H258382   3.309   6.531   3.563  0.6181 -0.2468 -1.1238
12323TIP3   OH258383   2.086   2.051  13.729 -0.5014 -0.7357  1.0363
12323TIP3    H158384   2.102   2.072  13.637  0.6329 -0.5781  1.2569
12323TIP3    H258385   2.126   1.965  13.741  0.3861 -0.2610  1.6449
12324TIP3   OH258386   5.335   3.306   2.332  0.9323  0.7036 -0.0556
12324TIP3    H158387   5.415   3.352   2.357  1.4029  0.2662 -0.7345
12324TIP3    H258388   5.266   3.348   2.384  1.8045  0.0909  1.6767
12325TIP3   OH258389   0.904   1.758   1.706  0.2157  0.1173  0.0591
12325TIP3    H158390   0.859   1.843   1.701  0.1800  0.0499 -1.3886
12325TIP3    H258391   0.876   1.720   1.789 -2.2305  0.1953 -0.6572
12326TIP3   OH258392   6.059   3.748  14.973 -0.7083 -0.1921 -1.0562
12326TIP3    H158393   6.008   3.693  15.033 -0.8542  0.0543 -0.9543
12326TIP3    H258394   6.048   3.707  14.888 -3.8608  1.6715 -1.7215
12327TIP3   OH258395   4.195   3.316  11.259  0.2045 -0.1189  0.1795
12327TIP3    H158396   4.231   3.244  11.208 -0.3841 -1.1253  1.1484
12327TIP3    H258397   4.106   3.289  11.280  0.1236  0.6979  0.9428
12328TIP3   OH258398   1.926   4.471  12.662  0.6000 -0.1135 -0.2021
12328TIP3    H158399   1.901   4.560  12.684 -0.8254 -0.6395  0.3864
12328TIP3    H258400   1.958   4.434  12.745 -0.5921 -0.7159  0.0098
12329TIP3   OH258401   0.250   2.694   5.990  0.0153  0.0240 -0.8280
12329TIP3    H158402   0.168   2.719   6.032 -1.0230 -2.4325 -1.1693
12329TIP3    H258403   0.317   2.708   6.056 -0.7014  1.8416 -0.4527
12330TIP3   OH258404   6.419   6.284   6.524  0.0194  0.1715 -0.3477
12330TIP3    H158405   6.510   6.302   6.549  0.1497 -1.0416  0.1418
12330TIP3    H258406   6.366   6.334   6.586  0.3404  1.0870 -0.7931
12331TIP3   OH258407   2.964   6.306   1.745  0.0169 -0.4117  0.1280
12331TIP3    H158408   2.991   6.223   1.706  0.9715  0.0385 -0.1900
12331TIP3    H258409   2.928   6.357   1.672 -0.1794 -0.3796  0.2450
12332TIP3   OH258410   2.597   0.852   0.953 -0.5277 -0.2681  0.4674
12332TIP3    H158411   2.644   0.849   1.037  0.3311 -0.0685  0.0139
12332TIP3    H258412   2.601   0.944   0.926  0.6505 -0.5872 -0.5577
12333TIP3   OH258413   6.219   6.238   5.233  0.4034  0.1178  0.2061
12333TIP3    H158414   6.155   6.246   5.162  0.5505 -0.8644 -0.0564
12333TIP3    H258415   6.291   6.295   5.207  0.6849 -0.6239 -0.7065
12334TIP3   OH258416   6.047   1.580  13.976 -0.4802 -0.2801  0.1949
12334TIP3    H158417   5.991   1.639  13.925 -1.6511 -0.2464  1.4608
12334TIP3    H258418   6.135   1.594  13.940 -0.7151  2.2052  0.3954
12335TIP3   OH258419   6.147   2.030   1.592 -0.5900 -0.3144  0.1498
12335TIP3    H158420   6.222   1.997   1.541 -0.5985  0.6918 -0.5477
12335TIP3    H258421   6.160   1.993   1.680  2.9879  2.8880  1.2621
12336TIP3   OH258422   4.728   2.270   4.356  0.3883 -0.3191  0.4626
12336TIP3    H158423   4.641   2.274   4.397 -0.0758 -0.4079 -0.4976
12336TIP3    H258424   4.756   2.362   4.351 -0.3184 -0.1456 -0.6053
12337TIP3   OH258425   4.502   6.034  14.546  0.3929  0.1194  0.2288
12337TIP3    H158426   4.573   5.971  14.558 -1.7710 -2.1187  2.5898
12337TIP3    H258427   4.498   6.081  14.628 -0.8658  0.1776  0.1477
12338TIP3   OH258428   4.889   1.544   2.853 -0.3723 -0.7045  0.2354
12338TIP3    H158429   4.807   1.571   2.813  0.4096  1.4943 -0.0065
12338TIP3    H258430   4.896   1.451   2.833 -1.7393 -0.4577 -1.6215
12339TIP3   OH258431   1.550   2.274  17.005 -0.0455  0.3764 -0.4756
12339TIP3    H158432   1.618   2.218  16.968 -0.4176 -0.1305 -0.4028
12339TIP3    H258433   1.493   2.214  17.052 -0.1710  0.8822  0.0292
12340TIP3   OH258434   6.194   5.293   2.472  0.0988  0.0834 -0.4113
12340TIP3    H158435   6.130   5.236   2.428 -1.7351  1.9253 -0.2822
12340TIP3    H258436   6.246   5.233   2.525 -2.1958 -1.4427  0.2714
12341TIP3   OH258437   2.805   5.605   4.694  0.6634 -0.2033  0.0831
12341TIP3    H158438   2.739   5.576   4.631  0.9671  1.0525 -0.8428
12341TIP3    H258439   2.800   5.541   4.765 -1.6033 -0.1241  0.0664
12342TIP3   OH258440   2.789   3.966   1.674 -0.4597  0.3224 -0.9202
12342TIP3    H158441   2.864   3.913   1.702 -1.2790 -0.0477  0.7402
12342TIP3    H258442   2.717   3.904   1.666 -1.3998  1.0830  0.9143
12343TIP3   OH258443   5.012   1.240   2.986 -0.0165  0.3828 -0.5590
12343TIP3    H158444   5.017   1.223   3.080  0.5371 -0.4723 -0.7277
12343TIP3    H258445   5.103   1.257   2.961 -0.3737  2.4096 -0.6408
12344TIP3   OH258446   5.834   3.434  16.871 -0.1847 -0.6712  0.6183
12344TIP3    H158447   5.757   3.403  16.823  0.4159 -0.9326 -0.1741
12344TIP3    H258448   5.905   3.377  16.844  0.5967  0.3959  0.3334
12345TIP3   OH258449   3.381   6.485   4.675  0.1268  0.0598 -0.0729
12345TIP3    H158450   3.474   6.504   4.680  0.2595 -0.6247  0.2433
12345TIP3    H258451   3.373   6.397   4.714 -0.6713  0.2011  0.0944
12346TIP3   OH258452   4.457   6.483   2.122 -0.0931  0.6259 -0.1558
12346TIP3    H158453   4.409   6.555   2.082 -0.5522  2.0553  2.7192
12346TIP3    H258454   4.540   6.522   2.151 -1.3492  0.8504  3.6903
12347TIP3   OH258455   6.579   0.712  15.461  0.1357 -0.1075  0.5038
12347TIP3    H158456   6.569   0.808  15.465  0.3783 -0.0234 -0.5848
12347TIP3    H258457   6.670   0.696  15.486  0.2751  0.0025  0.0736
12348TIP3   OH258458   2.042   6.643   0.835  0.1017  0.2381 -0.3342
12348TIP3    H158459   1.949   6.646   0.811 -0.4216  1.3630  1.5975
12348TIP3    H258460   2.073   6.561   0.797 -2.2267 -1.2630  0.7097
12349TIP3   OH258461   0.518   1.257  11.488  0.4719  0.2244 -0.2141
12349TIP3    H158462   0.486   1.225  11.572  1.8641  1.0076  0.6659
12349TIP3    H258463   0.593   1.312  11.511  0.1526  1.4241 -1.8959
12350TIP3   OH258464   6.549   3.899  10.841 -0.5010 -0.2393 -0.1759
12350TIP3    H158465   6.559   3.968  10.774 -0.7909 -0.5147 -0.5034
12350TIP3    H258466   6.573   3.943  10.923  0.7685 -0.1429 -0.5732
12351TIP3   OH258467   3.042   1.557   2.091  0.3024 -0.3815 -0.0180
12351TIP3    H158468   3.002   1.530   2.174  0.0740 -1.8577 -0.5760
12351TIP3    H258469   2.983   1.624   2.056 -0.6338 -1.1045  0.1282
12352TIP3   OH258470   5.956   0.985   3.580  0.3970 -0.5083 -0.3865
12352TIP3    H158471   5.906   0.906   3.602  0.6785 -0.4226  0.5787
12352TIP3    H258472   5.995   0.964   3.495  1.8570 -2.1106  0.6163
12353TIP3   OH258473   1.916   5.553   2.084  0.2392  0.1388  0.2347
12353TIP3    H158474   2.010   5.543   2.102  0.3576  2.0511  0.9002
12353TIP3    H258475   1.904   5.514   1.998  1.9671  1.2171 -0.5511
12354TIP3   OH258476   2.394   4.308  14.680  0.0010  0.4535 -0.6790
12354TIP3    H158477   2.366   4.384  14.730 -0.3260  0.1628 -0.4124
12354TIP3    H258478   2.353   4.318  14.595 -0.8828  0.0642 -0.3132
12355TIP3   OH258479   2.726   4.811  16.797  0.0473  0.2830  0.0841
12355TIP3    H158480   2.729   4.873  16.870 -0.1739  1.0180 -0.5133
12355TIP3    H258481   2.816   4.812  16.762 -0.0401  0.5424 -0.1403
12356TIP3   OH258482   4.209   5.659  11.703  1.3987  0.1045  0.6100
12356TIP3    H158483   4.297   5.649  11.738  0.8781 -3.6288  1.3111
12356TIP3    H258484   4.205   5.596  11.631 -0.7838 -0.2092  0.9323
12357TIP3   OH258485   2.616   2.785   2.713  0.7455  0.3215 -0.2889
12357TIP3    H158486   2.601   2.752   2.625  1.8286  1.8998 -1.1186
12357TIP3    H258487   2.681   2.726   2.750  0.5557 -0.1373 -0.6801
12358TIP3   OH258488   0.990   2.964   1.663 -0.2227  0.6848  0.2815
12358TIP3    H158489   0.998   2.980   1.757 -0.5072  3.7070 -0.0859
12358TIP3    H258490   0.904   3.001   1.640 -0.6722 -1.0449 -1.0271
12359TIP3   OH258491   5.479   0.920  16.156 -0.0871 -0.5264 -0.1942
12359TIP3    H158492   5.516   0.947  16.240  0.1685 -1.5682  0.0411
12359TIP3    H258493   5.502   0.827  16.148 -0.8430 -0.6588 -1.0223
12360TIP3   OH258494   3.223   3.255  14.894  0.5862  0.3523 -0.3925
12360TIP3    H158495   3.129   3.238  14.899  0.7768 -0.8113 -0.4961
12360TIP3    H258496   3.241   3.312  14.968 -0.1652  0.4276 -0.2595
12361TIP3   OH258497   2.819   5.459  14.654 -0.3985  0.4843  0.5244
12361TIP3    H158498   2.799   5.367  14.669 -1.8290  0.7301  0.2732
12361TIP3    H258499   2.734   5.499  14.636  0.3687  1.5859 -0.8226
12362TIP3   OH258500   5.660   2.629  15.862 -0.5016 -0.0005 -0.2809
12362TIP3    H158501   5.623   2.717  15.850  1.0046  0.7458  0.3811
12362TIP3    H258502   5.610   2.592  15.935  0.4066  1.2457  1.0336
12363TIP3   OH258503   6.575   6.718  16.083  0.3069  0.0761  0.0987
12363TIP3    H158504   6.615   6.722  16.170  0.5721 -2.2061  0.1554
12363TIP3    H258505   6.512   6.645  16.090 -0.0958  0.2458 -1.4578
12364TIP3   OH258506   5.641   1.233  12.489 -1.3778 -0.3094 -0.4888
12364TIP3    H158507   5.730   1.225  12.455 -1.3383 -0.5771 -0.3224
12364TIP3    H258508   5.589   1.173  12.435 -1.3244 -0.6989 -0.1187
12365TIP3   OH258509   1.741   0.077   5.779 -0.8632  0.2965  0.8237
12365TIP3    H158510   1.681   0.036   5.841  0.1987  0.8616  2.3045
12365TIP3    H258511   1.818   0.019   5.778 -0.6427  0.5912  0.4728
12366TIP3   OH258512   4.608   1.894   3.877  0.3175 -0.5344 -0.1156
12366TIP3    H158513   4.608   1.938   3.962 -1.2267 -2.5736  1.0053
12366TIP3    H258514   4.700   1.880   3.857  0.7615  1.2891  0.4769
12367TIP3   OH258515   6.660   5.933  14.260  0.5226  0.0340 -0.6925
12367TIP3    H158516   6.676   5.943  14.353 -0.7885 -2.9660 -0.0207
12367TIP3    H258517   6.593   5.998  14.240 -1.4280 -1.2703  1.2220
12368TIP3   OH258518   0.057   6.534  14.091 -0.0512  0.6437 -0.3043
12368TIP3    H158519  -0.027   6.544  14.136  0.3793  0.4428  0.5692
12368TIP3    H258520   0.059   6.442  14.064  0.5129  0.2539  0.9941
12369TIP3   OH258521   2.895   4.657   4.483  0.2865 -0.4889 -0.1994
12369TIP3    H158522   2.909   4.739   4.436  0.0655 -1.2088 -1.5526
12369TIP3    H258523   2.936   4.672   4.568  1.4012  0.5642 -0.8829
12370TIP3   OH258524   1.650   3.111   1.012 -0.1759  0.1159  0.9314
12370TIP3    H158525   1.731   3.062   1.001 -0.0720  0.2143  1.2534
12370TIP3    H258526   1.677   3.202   1.021 -0.4975  0.6617 -2.3455
12371TIP3   OH258527   4.003   0.308   4.140 -0.7325  0.5315  0.1094
12371TIP3    H158528   4.044   0.340   4.060 -0.1639  0.1567  0.2470
12371TIP3    H258529   3.910   0.324   4.127 -0.8609 -1.1163 -1.3644
12372TIP3   OH258530   5.018   4.126   0.380 -0.4099  0.2388  0.1948
12372TIP3    H158531   4.961   4.074   0.437  0.8651 -0.0593  1.2284
12372TIP3    H258532   5.083   4.065   0.346  0.3887  0.9092  0.4714
12373TIP3   OH258533   0.298   0.114  12.658  0.9793 -0.4501 -0.0969
12373TIP3    H158534   0.206   0.126  12.636  0.7465 -0.3856  0.8812
12373TIP3    H258535   0.327   0.200  12.688  1.3471 -0.4858 -0.3416
12374TIP3   OH258536   2.330   2.447   4.367 -0.3007  0.1500 -0.2397
12374TIP3    H158537   2.285   2.451   4.283 -1.6522 -0.2166  0.4229
12374TIP3    H258538   2.317   2.534   4.405 -0.0628  0.1805 -0.2272
12375TIP3   OH258539   1.937   1.186  14.076  0.0381 -0.4659 -0.1285
12375TIP3    H158540   1.970   1.201  14.164  0.4931  1.2063 -0.5591
12375TIP3    H258541   1.842   1.193  14.084  0.0266 -1.0576  0.3408
12376TIP3   OH258542   5.493   4.050  16.023  0.1556 -0.0717 -0.0727
12376TIP3    H158543   5.434   3.976  16.035 -0.0578  0.1061 -0.0290
12376TIP3    H258544   5.580   4.010  16.013  0.2271 -0.2609  1.2277
12377TIP3   OH258545   0.373   0.981  14.495 -0.3893 -0.1140  0.0351
12377TIP3    H158546   0.316   0.915  14.456  0.1117 -0.8119  0.4577
12377TIP3    H258547   0.419   1.019  14.420 -1.6978  0.7619 -0.3531
12378TIP3   OH258548   2.042   3.101   5.637 -0.0099  0.3175 -0.4395
12378TIP3    H158549   2.073   3.157   5.708  1.3280 -1.9233  0.8722
12378TIP3    H258550   2.086   3.134   5.559  2.9642 -0.4649  0.7594
12379TIP3   OH258551   3.042   4.720  12.194 -0.0431  0.1408  0.8945
12379TIP3    H158552   3.079   4.636  12.221  2.2069  0.3672 -1.1194
12379TIP3    H258553   2.985   4.698  12.120  0.9865  0.3680 -0.0020
12380TIP3   OH258554   2.420   4.270   6.919 -0.1501 -0.1445  0.6500
12380TIP3    H158555   2.338   4.305   6.952 -0.4339 -0.1485 -0.0309
12380TIP3    H258556   2.437   4.319   6.839 -0.3170 -1.2131 -0.0729
12381TIP3   OH258557   1.081   4.296   0.723 -0.3906 -0.7962  0.3250
12381TIP3    H158558   1.106   4.312   0.813 -2.8151  0.6857  0.8368
12381TIP3    H258559   1.000   4.244   0.728  0.6787 -2.7590 -1.1056
12382TIP3   OH258560   2.559   4.561  16.884 -0.0386 -0.0840 -0.5686
12382TIP3    H158561   2.633   4.621  16.872 -0.5091  0.2600 -1.9671
12382TIP3    H258562   2.496   4.611  16.936  0.4220 -0.1365  0.0537
12383TIP3   OH258563   0.534   0.379   4.035 -0.5304  0.3406 -0.0142
12383TIP3    H158564   0.613   0.367   4.088 -0.9799 -2.9604  0.1211
12383TIP3    H258565   0.523   0.474   4.029  1.9175  0.8789  2.2161
12384TIP3   OH258566   0.734   3.831  16.666 -0.9369  0.0792 -0.3712
12384TIP3    H158567   0.774   3.883  16.736 -1.4558 -0.6152  0.4561
12384TIP3    H258568   0.796   3.838  16.593 -0.6536  1.2530 -0.0373
12385TIP3   OH258569   5.450   4.148  16.523 -0.0197  0.4254 -0.0001
12385TIP3    H158570   5.517   4.192  16.575 -2.2811  2.2065  1.6776
12385TIP3    H258571   5.474   4.165  16.432  2.1476  0.3435  0.5018
12386TIP3   OH258572   4.181   1.056   2.647  0.3824 -0.3599 -0.0876
12386TIP3    H158573   4.220   1.142   2.663  1.7523 -0.7777 -0.9533
12386TIP3    H258574   4.130   1.068   2.567 -0.3185 -0.1085  0.3844
12387TIP3   OH258575   1.246   6.044  14.300  0.0192 -0.0570 -0.2752
12387TIP3    H158576   1.171   6.079  14.348  0.7954  0.3234  0.6872
12387TIP3    H258577   1.212   6.030  14.211 -0.7855  1.5691 -0.2801
12388TIP3   OH258578   5.100   4.623  13.890  0.3058  0.1878 -0.1437
12388TIP3    H158579   5.054   4.704  13.866  2.2061  0.5314 -3.1252
12388TIP3    H258580   5.192   4.643  13.877  0.9070 -2.1793  0.0086
12389TIP3   OH258581   0.450   1.360   4.909  0.1346 -0.0849  0.1706
12389TIP3    H158582   0.378   1.324   4.857 -1.1662 -0.1246  1.9232
12389TIP3    H258583   0.435   1.455   4.908  0.1570 -0.0795  0.4134
12390TIP3   OH258584   5.992   2.263   1.255 -0.5876  0.0922 -0.1051
12390TIP3    H158585   5.953   2.347   1.233  0.9866  0.3453 -2.3601
12390TIP3    H258586   6.023   2.228   1.171  1.5258 -1.2914  1.1317
12391TIP3   OH258587   0.482   1.210   6.658 -0.2349 -0.4564  0.1100
12391TIP3    H158588   0.574   1.188   6.664 -0.2705 -0.9217 -0.8909
12391TIP3    H258589   0.444   1.180   6.741  1.0482  2.6768  2.0076
12392TIP3   OH258590   5.024   3.672   4.495 -0.3691  0.2564 -0.7824
12392TIP3    H158591   4.965   3.636   4.561 -1.3595  0.7821 -1.3521
12392TIP3    H258592   5.050   3.597   4.442  0.8563 -0.2600  0.4959
12393TIP3   OH258593   5.801   0.864  13.896 -0.6482  0.4526  0.4038
12393TIP3    H158594   5.770   0.778  13.868  0.6939  0.5857 -1.6923
12393TIP3    H258595   5.859   0.846  13.969 -0.4720 -0.4269  0.0663
12394TIP3   OH258596   0.702   2.938  12.105  0.0444 -0.0132  0.3507
12394TIP3    H158597   0.713   2.943  12.200 -0.8338  1.1548  0.4131
12394TIP3    H258598   0.658   2.854  12.090  0.9997 -0.6308  0.8745
12395TIP3   OH258599   4.959   3.365  11.744 -0.3697  0.0710 -0.0243
12395TIP3    H158600   5.007   3.402  11.670 -2.3169  2.0412 -0.4203
12395TIP3    H258601   4.948   3.273  11.722  0.1757  0.3538 -1.5891
12396TIP3   OH258602   0.991   3.227  13.028 -0.8494 -0.2195  0.7710
12396TIP3    H158603   0.989   3.312  13.072 -0.5505  0.4525 -0.4570
12396TIP3    H258604   0.903   3.217  12.991 -0.4286  0.3218 -0.4360
12397TIP3   OH258605   3.639   4.195   2.523  0.2292 -0.5072 -0.0145
12397TIP3    H158606   3.634   4.142   2.602 -2.7008 -0.0709  0.1768
12397TIP3    H258607   3.549   4.223   2.506  1.2687  2.4098 -1.4628
12398TIP3   OH258608   2.752   3.955   3.850  0.2207  0.1010  0.0688
12398TIP3    H158609   2.757   3.911   3.765 -0.4576 -0.4398  0.2920
12398TIP3    H258610   2.712   3.890   3.908  1.2367  0.2364  0.9644
12399TIP3   OH258611   6.038   5.980  11.277  0.2384 -0.1308  0.0785
12399TIP3    H158612   6.072   6.017  11.358  0.5728  1.4864 -0.7418
12399TIP3    H258613   6.038   6.054  11.216 -2.9144 -0.5081 -0.5300
12400TIP3   OH258614   3.722   6.218   4.605 -0.4520  0.1495  0.0870
12400TIP3    H158615   3.709   6.126   4.581  2.1818  0.0954 -1.4258
12400TIP3    H258616   3.730   6.264   4.522 -0.6243  1.5914  0.8376
12401TIP3   OH258617   6.261   6.062  16.080 -0.5106  0.1892  0.2968
12401TIP3    H158618   6.234   5.970  16.082 -2.3073  0.6438 -0.8864
12401TIP3    H258619   6.323   6.068  16.007 -1.6905  0.2142 -0.7235
12402TIP3   OH258620   5.419   5.118   1.675 -0.2915  0.9115 -0.3066
12402TIP3    H158621   5.363   5.126   1.598  0.2083 -2.0964 -1.1048
12402TIP3    H258622   5.478   5.046   1.654 -1.3208 -1.3323  3.5985
12403TIP3   OH258623   5.118   6.283   2.091 -0.4889  0.4353  0.1803
12403TIP3    H158624   5.182   6.353   2.083 -1.5043  1.2951 -0.5938
12403TIP3    H258625   5.124   6.236   2.008 -0.9195  0.5609  0.0801
12404TIP3   OH258626   6.763   2.788   0.343  0.5416 -0.2910 -0.3865
12404TIP3    H158627   6.686   2.803   0.399  0.9100 -0.9135  0.3039
12404TIP3    H258628   6.831   2.844   0.381  0.8383 -0.8362 -0.1030
12405TIP3   OH258629   5.643   1.461   2.889 -0.0072 -0.1214  0.0737
12405TIP3    H158630   5.636   1.457   2.984  1.6697 -3.5850  0.1942
12405TIP3    H258631   5.731   1.493   2.872 -0.7995  1.9314 -0.4229
12406TIP3   OH258632   5.884   0.677  15.358  0.1325  0.0453 -0.2625
12406TIP3    H158633   5.834   0.733  15.298  1.8815  1.1965 -0.7287
12406TIP3    H258634   5.923   0.610  15.302 -1.0413 -1.0017  0.1359
12407TIP3   OH258635   1.218   6.766   5.548 -0.4562 -0.4736  0.5076
12407TIP3    H158636   1.158   6.759   5.622 -0.4113 -1.4848  0.4587
12407TIP3    H258637   1.305   6.753   5.586 -0.2997  0.4526  0.4945
12408TIP3   OH258638   3.996   1.339  15.496  0.0466  0.4481 -0.7797
12408TIP3    H158639   4.016   1.283  15.571  2.4793  0.3986 -1.4024
12408TIP3    H258640   3.994   1.279  15.421 -0.6260  0.7515 -1.0137
12409TIP3   OH258641   0.325   5.735   1.599  0.3008  0.0684 -0.0082
12409TIP3    H158642   0.331   5.830   1.603 -0.1040  0.1286 -0.6526
12409TIP3    H258643   0.352   5.713   1.510 -3.2782 -0.0745 -1.2401
12410TIP3   OH258644   5.959   0.879   0.355  0.7449  0.5091  0.3147
12410TIP3    H158645   5.947   0.790   0.385 -0.7101  0.0672 -1.3996
12410TIP3    H258646   6.052   0.885   0.333  1.4260  0.2814  2.8658
12411TIP3   OH258647   5.776   0.677   2.241 -0.3261  0.0049 -0.0691
12411TIP3    H158648   5.751   0.629   2.162  1.1318 -1.3011  0.2178
12411TIP3    H258649   5.826   0.752   2.210 -1.4526  0.6310 -0.4476
12412TIP3   OH258650   4.998   0.834  11.279  0.4534 -0.3505 -0.3924
12412TIP3    H158651   5.066   0.898  11.300 -0.6238 -0.0200  2.3998
12412TIP3    H258652   5.017   0.759  11.336 -0.4724 -1.0228 -0.9421
12413TIP3   OH258653   0.188   2.276   0.000 -0.4441 -0.3298  0.0315
12413TIP3    H158654   0.223   2.203   0.050  0.3684  0.0050 -0.0310
12413TIP3    H258655   0.188   2.246  -0.090  0.7889  0.0647 -0.1202
12414TIP3   OH258656   0.300   3.962   0.718  0.9312 -0.4652  0.3413
12414TIP3    H158657   0.277   3.883   0.766  1.4811 -0.4707  0.6090
12414TIP3    H258658   0.390   3.981   0.745  0.3357  1.0656  1.3989
12415TIP3   OH258659   2.163   4.483  13.246 -0.4679  0.0289 -0.1422
12415TIP3    H158660   2.184   4.517  13.159 -1.1380 -2.6487 -1.4541
12415TIP3    H258661   2.238   4.429  13.269 -0.6154  0.1432  0.6200
12416TIP3   OH258662   1.957   1.710   4.734  0.0839 -0.0918 -0.3366
12416TIP3    H158663   1.954   1.737   4.642  1.3937  1.2852 -0.0154
12416TIP3    H258664   1.935   1.617   4.732  0.9362 -0.3018 -2.1601
12417TIP3   OH258665   0.244   2.416   5.999 -0.1608 -0.4215  0.2240
12417TIP3    H158666   0.229   2.506   5.967  1.2369 -0.6084 -1.0941
12417TIP3    H258667   0.270   2.427   6.090  0.2136  0.5370  0.0133
12418TIP3   OH258668   2.171   4.666   6.897 -0.1959 -0.0372  0.2443
12418TIP3    H158669   2.233   4.680   6.825 -1.6093 -1.0775 -1.2706
12418TIP3    H258670   2.117   4.745   6.897  1.5845  1.2702  2.1494
12419TIP3   OH258671   1.824   5.461   4.691 -0.1693  0.0464  0.5088
12419TIP3    H158672   1.893   5.497   4.747  0.6583  1.0847 -1.0769
12419TIP3    H258673   1.743   5.492   4.731  0.4726  2.9736 -0.1812
12420TIP3   OH258674   4.873   2.034  12.877  0.4602 -0.4758 -0.0078
12420TIP3    H158675   4.793   2.045  12.825  0.2257 -0.0466  0.4314
12420TIP3    H258676   4.865   1.947  12.916  0.4090 -0.6064 -0.3124
12421TIP3   OH258677   1.829   1.752  16.138 -0.0885  0.5001  0.6029
12421TIP3    H158678   1.890   1.694  16.093 -1.0315 -0.4294  0.4770
12421TIP3    H258679   1.752   1.698  16.154 -0.5873  1.4245  1.4475
12422TIP3   OH258680   6.414   5.548   5.383  0.4483 -0.5487 -0.1692
12422TIP3    H158681   6.449   5.460   5.393  0.8648 -0.5997 -1.8500
12422TIP3    H258682   6.491   5.605   5.379  0.2147 -0.2205 -0.0472
12423TIP3   OH258683   6.499   4.939   3.682 -0.0144  0.3193 -0.1533
12423TIP3    H158684   6.416   4.901   3.710  1.1371 -0.6682  2.1401
12423TIP3    H258685   6.549   4.951   3.762  0.6461  4.6555 -0.9777
12424TIP3   OH258686   6.421   4.559  13.727 -0.0144 -0.2194 -0.0019
12424TIP3    H158687   6.401   4.558  13.633  0.0431  0.8842 -0.0480
12424TIP3    H258688   6.383   4.642  13.758 -0.8962 -1.0344  1.1578
12425TIP3   OH258689   2.610   3.068  15.585  0.6572 -0.3883  0.0266
12425TIP3    H158690   2.593   2.985  15.542 -2.3579  1.1537 -2.0935
12425TIP3    H258691   2.550   3.070  15.659  0.2223  0.1663 -0.3361
12426TIP3   OH258692   1.604   5.843   0.937  0.4066  0.5832 -0.1724
12426TIP3    H158693   1.538   5.895   0.893 -0.0603 -0.6443 -0.9917
12426TIP3    H258694   1.554   5.782   0.992  0.8789  0.2048 -0.1527
12427TIP3   OH258695   0.399   1.282   5.866  0.6931 -0.1236  0.3715
12427TIP3    H158696   0.457   1.341   5.818 -0.3614 -0.1477 -1.0116
12427TIP3    H258697   0.416   1.301   5.958  1.3799  1.3300 -0.0226
12428TIP3   OH258698   2.485   1.479   1.312  0.1992  0.3811 -0.1430
12428TIP3    H158699   2.565   1.514   1.273 -0.8430  0.8545 -2.0057
12428TIP3    H258700   2.415   1.532   1.274 -0.9862  0.3527  1.8633
12429TIP3   OH258701   0.417   6.165   5.903  0.1165 -0.2898 -0.0485
12429TIP3    H158702   0.387   6.142   5.816 -1.9695  0.8749  0.2948
12429TIP3    H258703   0.348   6.135   5.962  1.9980 -2.0967  1.3904
12430TIP3   OH258704   2.091   0.501  11.580  0.7159 -0.1004  0.3364
12430TIP3    H158705   2.049   0.536  11.659  1.4807  0.6946  0.4051
12430TIP3    H258706   2.083   0.406  11.589  0.7469 -0.0220  1.3625
12431TIP3   OH258707   1.285   3.654  14.323  0.2245  0.3759  0.0623
12431TIP3    H158708   1.322   3.691  14.403 -0.2973  2.7700 -0.6982
12431TIP3    H258709   1.323   3.708  14.253 -1.2829  0.0236 -1.0672
12432TIP3   OH258710   3.895   1.206   0.015  0.6759  0.1659 -0.2907
12432TIP3    H158711   3.981   1.164   0.009  0.2711 -0.5607 -1.2013
12432TIP3    H258712   3.912   1.297  -0.009  0.9658 -0.2956 -1.9551
12433TIP3   OH258713   4.168   2.023   5.329 -0.0969  0.3810  0.1944
12433TIP3    H158714   4.226   2.096   5.350  1.7041 -1.0130  0.2553
12433TIP3    H258715   4.149   1.982   5.414 -0.1826  0.1190  0.0509
12434TIP3   OH258716   2.344   2.173  15.622  0.2606  0.2755  0.2577
12434TIP3    H158717   2.405   2.108  15.586 -1.4003 -0.4700 -1.3912
12434TIP3    H258718   2.312   2.220  15.545 -0.0572  1.7408  1.2435
12435TIP3   OH258719   5.482   2.091  15.777 -0.0943 -0.4943 -0.1487
12435TIP3    H158720   5.450   2.032  15.708 -1.2241  1.4926 -1.4034
12435TIP3    H258721   5.404   2.111  15.828 -0.0884  1.1512 -0.7289
12436TIP3   OH258722   4.204   5.752   3.806 -0.6480 -0.0531 -0.0743
12436TIP3    H158723   4.187   5.831   3.755  0.5202  0.9167  0.9499
12436TIP3    H258724   4.249   5.693   3.746 -2.3809 -0.3658 -1.1275
12437TIP3   OH258725   5.507   1.607   0.244  0.9371 -0.1965 -0.4059
12437TIP3    H158726   5.450   1.576   0.174  1.1463  0.1889 -0.7524
12437TIP3    H258727   5.451   1.664   0.297  1.2217  0.9357 -1.2812
12438TIP3   OH258728   0.721   2.360   3.109 -0.4791 -0.7509  0.1132
12438TIP3    H158729   0.756   2.342   3.022 -1.2447 -2.2788  0.1009
12438TIP3    H258730   0.651   2.297   3.121 -0.6371 -0.3208  1.7014
12439TIP3   OH258731   0.078   5.632   2.166  0.1319 -0.0823  0.3962
12439TIP3    H158732   0.072   5.727   2.175 -0.6971 -0.2018  1.2009
12439TIP3    H258733   0.033   5.613   2.083 -0.6521  0.1330  0.7614
12440TIP3   OH258734   3.861   5.175  17.117 -0.4366 -0.3258  0.2506
12440TIP3    H158735   3.912   5.199  17.040 -2.3888  0.8741 -0.7573
12440TIP3    H258736   3.898   5.092  17.146  1.4065  0.0152 -0.9826
12441TIP3   OH258737   2.033   6.774   3.051 -0.4497 -0.3003  0.4032
12441TIP3    H158738   2.039   6.793   3.144 -0.1113 -0.6624  0.4582
12441TIP3    H258739   1.990   6.688   3.047 -1.2853  0.1188  0.1901
12442TIP3   OH258740   3.342   1.121  12.363 -0.4255 -0.1313  0.3466
12442TIP3    H158741   3.262   1.172  12.349 -1.4495 -2.0485 -1.2583
12442TIP3    H258742   3.385   1.119  12.278 -0.6080 -2.1776  0.2448
12443TIP3   OH258743   3.551   1.263  17.121 -0.2480 -0.8079 -0.1883
12443TIP3    H158744   3.596   1.320  17.184 -0.0643 -2.2403  1.0259
12443TIP3    H258745   3.540   1.318  17.043  0.4293  0.6973  0.7246
12444TIP3   OH258746   0.304   6.197  15.275  0.0775  0.1864  0.3948
12444TIP3    H158747   0.300   6.273  15.333  0.0189 -0.0418  0.6917
12444TIP3    H258748   0.332   6.125  15.331  2.3638  0.4224 -0.3252
12445TIP3   OH258749   2.355   5.261   1.189  0.1641  1.0898 -0.5976
12445TIP3    H158750   2.334   5.329   1.124  0.7842  1.0033 -0.8964
12445TIP3    H258751   2.304   5.185   1.161  0.2502  1.1235 -0.8487
12446TIP3   OH258752   5.024   5.198   4.125  0.4457 -0.2473 -0.4852
12446TIP3    H158753   5.054   5.241   4.205  0.0204 -0.5048 -0.1824
12446TIP3    H258754   5.098   5.143   4.099  0.1485 -1.1089  0.4235
12447TIP3   OH258755   0.051   4.568   1.588 -0.3585  0.3461 -0.1481
12447TIP3    H158756   0.100   4.633   1.639 -0.6725  2.0195 -1.8815
12447TIP3    H258757   0.109   4.546   1.515 -0.6694 -0.5774 -0.1240
12448TIP3   OH258758   6.571   3.744  15.032  0.1147 -0.0718 -0.8206
12448TIP3    H158759   6.526   3.660  15.042  0.0560  0.1765  1.6113
12448TIP3    H258760   6.501   3.809  15.034  0.3742  0.2147  1.2959
12449TIP3   OH258761   6.530   1.738   4.490 -0.0056  0.2031  0.4044
12449TIP3    H158762   6.524   1.708   4.581  0.0120 -0.9479  0.0436
12449TIP3    H258763   6.594   1.810   4.493 -0.4794  0.6134  1.3897
12450TIP3   OH258764   3.008   6.494   1.944 -0.1413  0.7496 -0.1402
12450TIP3    H158765   3.066   6.548   1.891  1.0895 -0.9181 -0.5996
12450TIP3    H258766   2.976   6.427   1.884 -2.8825  1.7882  0.0307
12451TIP3   OH258767   6.634   1.388   3.464 -0.2546 -0.0744 -0.2404
12451TIP3    H158768   6.558   1.384   3.521 -0.1837  0.2308 -0.1221
12451TIP3    H258769   6.679   1.305   3.478 -0.2992 -0.0497  0.0587
12452TIP3   OH258770   4.046   5.894   4.306  0.0452 -0.5070  0.3725
12452TIP3    H158771   4.128   5.906   4.354  0.0841  1.6009 -0.1307
12452TIP3    H258772   4.037   5.799   4.296  1.8085 -0.8205  1.4620
12453TIP3   OH258773   2.149   3.821   0.164  0.4904 -0.1595 -0.6351
12453TIP3    H158774   2.154   3.901   0.217 -0.6116  0.5045 -1.5167
12453TIP3    H258775   2.093   3.843   0.090  0.0422 -1.7979 -0.8306
12454TIP3   OH258776   4.697   3.509  16.779 -0.3118 -0.1575  0.2698
12454TIP3    H158777   4.612   3.493  16.739 -1.1702  1.1264  1.5072
12454TIP3    H258778   4.741   3.570  16.720  0.0540 -1.3168 -0.7045
12455TIP3   OH258779   2.922   4.998  12.166 -0.0418 -0.8309 -0.1115
12455TIP3    H158780   2.850   5.010  12.228 -1.2187 -0.3633 -1.5050
12455TIP3    H258781   2.943   4.905  12.172 -0.7505 -0.9757  0.3475
12456TIP3   OH258782   1.472   1.488   1.357 -0.3013  0.3584  0.4610
12456TIP3    H158783   1.507   1.544   1.426  0.6787  1.7930 -1.1247
12456TIP3    H258784   1.525   1.509   1.280 -1.7604 -0.7239 -0.8939
12457TIP3   OH258785   0.522   5.990   5.352  0.0065  0.2400 -0.0585
12457TIP3    H158786   0.477   5.970   5.269 -2.0840  1.0396  0.8265
12457TIP3    H258787   0.546   5.904   5.387  1.4783 -0.0919 -1.7373
12458TIP3   OH258788   1.273   6.125  16.010 -1.2345  0.0567  0.0732
12458TIP3    H158789   1.307   6.047  15.967 -1.7776 -0.7526  1.0614
12458TIP3    H258790   1.296   6.197  15.952  0.7045 -0.6323 -0.0866
12459TIP3   OH258791   2.995   2.370   2.146 -0.1760  0.0464  0.1557
12459TIP3    H158792   2.904   2.372   2.177 -0.7676  1.4483 -1.5096
12459TIP3    H258793   3.018   2.277   2.146 -2.4135 -0.5974 -1.4908
12460TIP3   OH258794   0.107   5.793  13.449 -0.1034 -0.1090 -0.1442
12460TIP3    H158795   0.092   5.887  13.454 -1.6739 -0.1420 -2.6466
12460TIP3    H258796   0.201   5.783  13.465  0.1316  1.8922 -0.0619
12461TIP3   OH258797   3.426   5.923  17.052  0.5123 -0.5168  0.0975
12461TIP3    H158798   3.384   5.993  17.002  0.7666  1.3460  2.3320
12461TIP3    H258799   3.354   5.876  17.094  0.3755 -1.2394 -0.9207
12462TIP3   OH258800   4.405   0.494  13.115  0.3613  0.1645  0.7795
12462TIP3    H158801   4.324   0.455  13.082  0.2031  1.0284  0.1125
12462TIP3    H258802   4.431   0.437  13.188  0.1091 -1.1310 -0.1115
12463TIP3   OH258803   0.866   1.615   2.704 -0.3719  0.2484 -0.3925
12463TIP3    H158804   0.799   1.583   2.764  0.2128 -0.7366 -0.2394
12463TIP3    H258805   0.933   1.547   2.704  0.4870  1.0632 -0.7822
12464TIP3   OH258806   4.340   3.049   2.665 -0.8252 -0.4163 -0.3344
12464TIP3    H158807   4.432   3.059   2.690 -1.1450 -1.3469  1.3385
12464TIP3    H258808   4.338   2.969   2.613 -0.8086 -0.8697  0.3522
12465TIP3   OH258809   2.556   3.977  11.272 -0.2572  0.9657  0.1294
12465TIP3    H158810   2.497   4.051  11.258 -0.0004  1.6460  2.3231
12465TIP3    H258811   2.515   3.927  11.342 -0.4897 -1.1162 -1.4004
12466TIP3   OH258812   2.374   6.728  14.126  0.0591 -0.0014 -0.0594
12466TIP3    H158813   2.294   6.749  14.078 -0.5860 -0.2368  0.8907
12466TIP3    H258814   2.371   6.785  14.204 -1.0879 -2.5580  1.9171
12467TIP3   OH258815   6.458   1.705  12.665 -0.1231 -0.2368  0.3633
12467TIP3    H158816   6.439   1.779  12.608 -1.0161  0.0607  1.0327
12467TIP3    H258817   6.488   1.745  12.747  0.8637 -0.6542  0.2288
12468TIP3   OH258818   2.522   3.013   2.291 -0.4274  0.0406  0.2786
12468TIP3    H158819   2.578   3.043   2.362  0.7807 -0.8659 -0.2564
12468TIP3    H258820   2.554   2.925   2.270  0.0855  0.7467 -2.1989
12469TIP3   OH258821   5.250   4.356   2.612  0.5082 -0.5592 -0.4097
12469TIP3    H158822   5.206   4.403   2.541  1.5328  1.2120  0.0847
12469TIP3    H258823   5.338   4.339   2.578  0.5989 -0.8619 -0.0348
12470TIP3   OH258824   4.242   4.969  15.169 -0.0959 -0.5889 -0.0525
12470TIP3    H158825   4.208   4.949  15.082 -0.5935  0.1384 -0.0352
12470TIP3    H258826   4.191   4.914  15.228 -0.6567 -0.1338 -0.1076
12471TIP3   OH258827   5.636   0.309  15.314 -0.0576 -0.2124  0.2171
12471TIP3    H158828   5.709   0.323  15.374  0.8469 -0.7006 -0.7304
12471TIP3    H258829   5.601   0.396  15.297 -0.2903 -0.0584  1.3709
12472TIP3   OH258830   5.179   3.921  15.564 -0.2224 -0.3272 -0.0399
12472TIP3    H158831   5.195   3.938  15.657  1.3773  0.6109 -0.4415
12472TIP3    H258832   5.225   3.992  15.518 -0.5244 -1.0698 -1.5617
12473TIP3   OH258833   2.800   6.254   3.990 -0.4008 -0.3555 -0.3488
12473TIP3    H158834   2.747   6.318   4.039  1.6477  0.0336  1.4916
12473TIP3    H258835   2.832   6.194   4.057  1.6633 -0.4271 -1.3381
12474TIP3   OH258836   5.536   4.123   2.879  0.0905  0.6026 -0.2202
12474TIP3    H158837   5.617   4.174   2.873 -0.3767  1.7048  1.8183
12474TIP3    H258838   5.554   4.059   2.948  0.1424 -1.0617 -1.7090
12475TIP3   OH258839   6.065   0.263   5.483  0.3113 -0.7792  0.0908
12475TIP3    H158840   5.987   0.244   5.431  0.5482  1.0166 -0.9936
12475TIP3    H258841   6.048   0.349   5.521  1.4424 -0.7145  0.4766
12476TIP3   OH258842   1.064   4.110  13.830  0.4926  0.2498  0.1767
12476TIP3    H158843   1.058   4.031  13.777  2.3563  0.8160 -0.9542
12476TIP3    H258844   1.049   4.081  13.919 -1.0525 -1.0007 -0.4464
12477TIP3   OH258845   3.120   3.922   5.813 -0.2540 -0.0429  0.6295
12477TIP3    H158846   3.095   3.835   5.781 -0.2492 -0.3962  1.5541
12477TIP3    H258847   3.213   3.930   5.792 -0.5604  0.3134 -0.6952
12478TIP3   OH258848   5.213   2.238  13.253  0.0997 -0.1256 -0.0835
12478TIP3    H158849   5.144   2.267  13.312 -0.8234  0.8465 -1.5470
12478TIP3    H258850   5.176   2.162  13.208  0.4928 -0.4047  0.0657
12479TIP3   OH258851   2.763   2.202   3.156 -0.7437 -0.3194  0.2507
12479TIP3    H158852   2.832   2.203   3.090  0.0418 -1.3167  1.0249
12479TIP3    H258853   2.694   2.258   3.120  0.7491  1.3095 -0.2196
12480TIP3   OH258854   6.304   3.182  16.675  0.0158 -0.6232 -0.5806
12480TIP3    H158855   6.388   3.137  16.667  0.1306 -0.8705  1.5682
12480TIP3    H258856   6.321   3.254  16.736 -0.7213  0.9997 -2.1875
12481TIP3   OH258857   3.061   1.851   0.587 -0.7888  0.1033 -0.5982
12481TIP3    H158858   2.989   1.810   0.634 -0.1087  0.7246  1.0557
12481TIP3    H258859   3.136   1.842   0.646 -0.0926  1.6130 -1.2061
12482TIP3   OH258860   0.933   6.403  15.367 -0.3232 -0.2215  0.1818
12482TIP3    H158861   0.983   6.433  15.291 -1.5941  0.8981 -0.2427
12482TIP3    H258862   0.866   6.470  15.380 -0.4921 -0.6799  1.9494
12483TIP3   OH258863   1.367   0.464  12.513  0.2539 -0.2769 -0.1298
12483TIP3    H158864   1.375   0.462  12.609  0.9292 -0.5236 -0.1885
12483TIP3    H258865   1.435   0.405  12.482  2.0473  2.0223 -0.8816
12484TIP3   OH258866   6.294   6.624  15.355  0.3021 -0.1955  0.3676
12484TIP3    H158867   6.232   6.694  15.377  1.2678  1.7523 -2.5259
12484TIP3    H258868   6.242   6.563  15.303  0.0446 -0.3077  0.7534
12485TIP3   OH258869   4.205   1.540   0.004  0.4700  0.0123 -0.3585
12485TIP3    H158870   4.234   1.506   0.088  0.1041  0.5550 -0.0108
12485TIP3    H258871   4.283   1.537  -0.051  1.0646  0.9717  0.4112
12486TIP3   OH258872   5.902   6.372   0.379 -0.1350  0.2706 -0.3446
12486TIP3    H158873   5.895   6.316   0.302  0.8357 -0.3608  0.0004
12486TIP3    H258874   5.997   6.379   0.394 -0.2703  1.4445  0.0263
12487TIP3   OH258875   5.445   5.277   5.315  0.4115  0.0611  0.1305
12487TIP3    H158876   5.539   5.265   5.302  0.2792  0.4854 -1.3751
12487TIP3    H258877   5.438   5.346   5.381  1.1457 -0.0789  0.3621
12488TIP3   OH258878   3.971   0.752  15.705 -0.4268 -0.1069  0.0746
12488TIP3    H158879   3.879   0.778  15.706 -0.3598  0.2667 -1.4749
12488TIP3    H258880   3.982   0.703  15.786 -1.7244  0.7257  0.8051
12489TIP3   OH258881   0.761   2.272   6.699  0.4169  0.0713 -0.0640
12489TIP3    H158882   0.844   2.318   6.686  0.1660  0.5319 -0.0405
12489TIP3    H258883   0.698   2.341   6.718 -0.0539 -0.2385 -0.4815
12490TIP3   OH258884   4.409   4.224   0.097 -0.4396 -0.5091 -0.2049
12490TIP3    H158885   4.338   4.184   0.048 -0.1507  0.9158 -1.8985
12490TIP3    H258886   4.484   4.221   0.038  0.1009  0.6944  0.3757
12491TIP3   OH258887   4.503   5.454  13.929  0.3748  0.3581 -0.4723
12491TIP3    H158888   4.447   5.395  13.980  0.1587  0.7191 -0.2927
12491TIP3    H258889   4.592   5.432  13.957  0.2558  0.6112  0.1320
12492TIP3   OH258890   1.903   5.698   0.852 -0.0537 -0.4681  0.2687
12492TIP3    H158891   1.937   5.661   0.771  1.0165 -2.3682  1.4996
12492TIP3    H258892   1.818   5.736   0.828  0.6488 -0.1580 -1.8823
12493TIP3   OH258893   4.201   1.458   1.074  0.6043  0.1070  0.8287
12493TIP3    H158894   4.186   1.498   1.160 -0.2092 -0.6880  1.0734
12493TIP3    H258895   4.121   1.477   1.025 -1.1684 -3.6397  1.9341
12494TIP3   OH258896   0.192   2.093   2.485 -0.7548 -0.2484  0.3136
12494TIP3    H158897   0.273   2.137   2.512  0.4916 -0.9269 -2.1093
12494TIP3    H258898   0.180   2.024   2.549  2.6319 -2.4417 -1.1440
12495TIP3   OH258899   5.873   2.253   0.926 -0.4353 -0.1284 -0.3232
12495TIP3    H158900   5.818   2.327   0.902  0.2864  0.6888  0.4425
12495TIP3    H258901   5.887   2.206   0.844 -0.1232  1.1380 -1.0373
12496TIP3   OH258902   4.166   1.817   1.070  0.2241  0.5916 -0.4667
12496TIP3    H158903   4.125   1.763   1.002 -1.8427  1.4727 -0.0044
12496TIP3    H258904   4.182   1.901   1.026 -2.8536  1.8075  0.5038
12497TIP3   OH258905   5.351   1.833  14.176  0.2191 -0.1789  0.5363
12497TIP3    H158906   5.395   1.863  14.096 -1.0249  1.2788  0.3419
12497TIP3    H258907   5.422   1.812  14.236  1.1761  0.1708 -0.4321
12498TIP3   OH258908   2.748   5.461  11.218  0.5158  0.3574  0.3352
12498TIP3    H158909   2.678   5.456  11.154 -0.9930 -0.4942  1.9698
12498TIP3    H258910   2.704   5.478  11.301  2.2726  0.1001  1.3772
12499TIP3   OH258911   0.810   4.665  15.951  0.0555  0.0934 -0.9055
12499TIP3    H158912   0.798   4.685  15.858  0.5733  1.1991 -0.7485
12499TIP3    H258913   0.729   4.695  15.993  0.3788  0.8562 -0.8207
12500TIP3   OH258914   4.627   2.219  14.201 -0.6087 -0.2441 -0.2480
12500TIP3    H158915   4.699   2.249  14.145 -0.7094 -0.4595 -0.4934
12500TIP3    H258916   4.642   2.263  14.285 -0.0850 -0.4307 -0.2392
12501TIP3   OH258917   1.577   1.019  14.090  0.5352  0.0701  0.0788
12501TIP3    H158918   1.502   0.967  14.062 -1.3911  2.8855 -0.3465
12501TIP3    H258919   1.638   0.955  14.126 -1.4471 -2.4954 -0.8172
12502TIP3   OH258920   4.988   5.243   0.042 -0.2208 -0.1475  0.3298
12502TIP3    H158921   5.070   5.210   0.006 -1.0055 -0.9845 -0.7475
12502TIP3    H258922   4.960   5.176   0.104 -0.0181  0.2088  0.8085
12503TIP3   OH258923   5.910   2.509   5.360 -0.2319 -0.1501  0.0582
12503TIP3    H158924   5.816   2.509   5.380 -0.2384  1.3574  0.1466
12503TIP3    H258925   5.950   2.553   5.435  0.3157  0.9560 -0.8548
12504TIP3   OH258926   2.455   3.970  14.806  0.2806  0.8449  0.2358
12504TIP3    H158927   2.418   4.015  14.730  0.0728  1.2930  0.5998
12504TIP3    H258928   2.402   4.001  14.880 -0.4530 -0.6623  0.3856
12505TIP3   OH258929   6.279   0.394  11.536  0.0625 -0.1794 -0.1170
12505TIP3    H158930   6.254   0.380  11.445  0.9960 -0.1220 -0.3962
12505TIP3    H258931   6.337   0.470  11.533 -0.0563 -0.0564  0.5535
12506TIP3   OH258932   4.013   4.050  15.333 -0.2153 -0.5419 -0.0398
12506TIP3    H158933   4.028   3.975  15.276 -0.5850  0.2767 -1.2518
12506TIP3    H258934   4.097   4.067  15.375  0.2097 -0.8157 -0.7758
12507TIP3   OH258935   5.119   6.537  14.067 -0.4532 -0.0922 -0.4699
12507TIP3    H158936   5.085   6.461  14.115  0.0624 -0.9108 -1.3714
12507TIP3    H258937   5.214   6.525  14.068 -0.2982  1.0281  0.1501
12508TIP3   OH258938   0.466   4.861   6.707 -0.1678 -0.1903  0.4020
12508TIP3    H158939   0.401   4.827   6.646 -1.7707  2.7042  0.3402
12508TIP3    H258940   0.531   4.904   6.652  0.0349 -0.2274  0.6087
12509TIP3   OH258941   4.767   1.903   1.619 -0.3783 -0.3551 -0.4616
12509TIP3    H158942   4.745   1.880   1.710  2.0385  0.7543  0.4958
12509TIP3    H258943   4.719   1.984   1.603  1.6115  1.2419  1.0638
12510TIP3   OH258944   3.924   6.600  12.623  0.4973 -0.0699  0.2729
12510TIP3    H158945   3.953   6.584  12.533  0.1161  0.4396  0.0596
12510TIP3    H258946   3.861   6.530  12.640 -0.0742  0.3330 -0.1564
12511TIP3   OH258947   5.269   5.006  11.568  0.3368 -0.2093 -0.2926
12511TIP3    H158948   5.363   5.018  11.550  0.2403  1.7317  0.2495
12511TIP3    H258949   5.267   4.949  11.645  1.1524  0.9015  0.5795
12512TIP3   OH258950   6.489   0.886  16.054  0.2566 -0.7812 -0.0206
12512TIP3    H158951   6.580   0.912  16.062  0.0846  0.0077 -0.5713
12512TIP3    H258952   6.441   0.968  16.042 -0.5091 -1.1955  0.1116
12513TIP3   OH258953   5.092   5.448   0.276 -0.2581  0.2061 -0.0108
12513TIP3    H158954   5.084   5.353   0.268  0.7612 -0.0269  1.4401
12513TIP3    H258955   5.052   5.469   0.360  0.5626  0.8916  0.2292
12514TIP3   OH258956   0.377   3.067  13.476 -0.0994 -0.3917 -0.1077
12514TIP3    H158957   0.381   3.033  13.386  2.3449 -0.6424  0.0323
12514TIP3    H258958   0.414   2.997  13.530  1.8400  1.1215  0.6225
12515TIP3   OH258959   3.815   3.593  13.496 -0.5868 -0.1140  0.4149
12515TIP3    H158960   3.867   3.632  13.426 -0.5423 -0.1620  0.4211
12515TIP3    H258961   3.848   3.633  13.576  0.2405 -0.9925  0.5347
12516TIP3   OH258962   0.519   0.472  16.513  0.0773  0.6401  0.3657
12516TIP3    H158963   0.458   0.513  16.576 -0.4708  0.2437  0.1005
12516TIP3    H258964   0.576   0.418  16.567 -0.6798 -0.0553  0.4942
12517TIP3   OH258965   3.240   2.724   6.069  0.4306  0.2197 -0.9896
12517TIP3    H158966   3.212   2.639   6.102 -1.0357  0.5712 -1.2276
12517TIP3    H258967   3.258   2.709   5.976  2.1702 -0.2468 -0.5983
12518TIP3   OH258968   6.626   3.450   5.616  0.0611  0.4973 -0.0024
12518TIP3    H158969   6.696   3.474   5.556 -0.1260 -1.4754 -1.0811
12518TIP3    H258970   6.564   3.524   5.612  1.1935  1.4494 -0.3976
12519TIP3   OH258971   1.864   0.768  16.146 -0.2205 -0.3937  0.4369
12519TIP3    H158972   1.847   0.716  16.225  0.2345  0.0580  0.8429
12519TIP3    H258973   1.907   0.708  16.086 -1.4468 -1.0141  0.1482
12520TIP3   OH258974   6.449   5.139  16.865  0.2034  0.2800  0.5223
12520TIP3    H158975   6.521   5.157  16.924 -0.9950  0.3177  2.0401
12520TIP3    H258976   6.440   5.218  16.812  0.0255  1.0784  1.7010
12521TIP3   OH258977   3.663   1.188   1.748 -0.0938  0.6083 -0.1044
12521TIP3    H158978   3.575   1.209   1.717  0.0535 -1.3143 -2.0720
12521TIP3    H258979   3.693   1.268   1.791 -2.1679  1.8575 -0.8390
12522TIP3   OH258980   0.395   4.240   1.881 -0.2211 -0.4847  0.2414
12522TIP3    H158981   0.400   4.292   1.801  0.9722 -0.1385  0.5192
12522TIP3    H258982   0.309   4.261   1.918 -0.3804  0.1001 -0.4358
12523TIP3   OH258983   4.148   5.959   0.986  0.3557 -0.0989  0.0383
12523TIP3    H158984   4.241   5.938   0.993  0.5416 -0.4242 -2.6490
12523TIP3    H258985   4.103   5.876   0.997  0.5206 -0.3126 -0.8852
12524TIP3   OH258986   5.450   5.838   4.086 -0.7823  0.7628  0.1437
12524TIP3    H158987   5.442   5.792   4.002 -0.0398 -1.3420  1.1662
12524TIP3    H258988   5.456   5.930   4.061 -1.2818  0.2750 -2.0696
12525TIP3   OH258989   6.048   3.708  16.373 -0.1396 -0.0151  0.1035
12525TIP3    H158990   6.131   3.674  16.406  0.6056  0.2578 -1.4070
12525TIP3    H258991   5.997   3.630  16.351  0.1267 -0.1790  0.0595
12526TIP3   OH258992   1.882   6.470  12.305 -0.0496 -0.6473  0.5601
12526TIP3    H158993   1.932   6.545  12.337  0.9482 -1.1024  0.1136
12526TIP3    H258994   1.825   6.506  12.237 -0.2694 -0.1416  0.9997
12527TIP3   OH258995   6.395   0.940   0.509 -0.0924 -0.5654 -0.2061
12527TIP3    H158996   6.378   0.998   0.583  0.2461 -0.0160 -0.5489
12527TIP3    H258997   6.454   0.990   0.453 -2.9224  0.4370 -2.5459
12528TIP3   OH258998   3.245   5.756   0.663 -0.1616  0.4845  0.1646
12528TIP3    H158999   3.242   5.748   0.758  0.7336 -2.6339  0.0180
12528TIP3    H259000   3.154   5.745   0.635 -0.0955 -1.2799  0.5573
12529TIP3   OH259001   3.872   4.256   2.732 -0.3695 -0.3680 -0.3990
12529TIP3    H159002   3.791   4.306   2.717 -0.5296 -0.9438 -1.5692
12529TIP3    H259003   3.942   4.317   2.709 -0.5159 -0.2201 -0.4575
12530TIP3   OH259004   3.963   5.812  12.356 -0.5982  0.4324 -0.0331
12530TIP3    H159005   4.057   5.807  12.342 -0.6984 -0.0062 -0.6129
12530TIP3    H259006   3.940   5.726  12.392 -0.9818  0.0187 -1.2375
12531TIP3   OH259007   5.053   3.573   3.096  0.1766 -0.2749 -0.3728
12531TIP3    H159008   5.113   3.503   3.070  0.1041  0.0074 -1.3539
12531TIP3    H259009   4.970   3.528   3.114 -0.0347 -0.3943 -1.5770
12532TIP3   OH259010   3.849   6.336  16.128  0.4994 -0.4995  0.3693
12532TIP3    H159011   3.789   6.262  16.135 -1.8605  1.2431 -0.2433
12532TIP3    H259012   3.862   6.346  16.033 -0.0190  0.4596  0.3909
12533TIP3   OH259013   1.382   2.457  11.561  0.2791  0.3520  0.5625
12533TIP3    H159014   1.356   2.531  11.616  0.5734  0.0440  1.1239
12533TIP3    H259015   1.459   2.488  11.514 -1.1241  1.3221 -1.2244
12534TIP3   OH259016   5.886   3.735   1.111  0.9687 -0.0993 -0.0131
12534TIP3    H159017   5.937   3.665   1.151  0.2099 -1.5408 -1.4485
12534TIP3    H259018   5.911   3.733   1.018 -1.2462 -0.5187 -0.6611
12535TIP3   OH259019   6.473   1.692  15.906  0.0410 -0.5812 -0.2076
12535TIP3    H159020   6.427   1.713  15.824 -1.7917 -3.2375  0.0102
12535TIP3    H259021   6.415   1.725  15.975  0.5161 -0.2801  0.0510
12536TIP3   OH259022   2.847   0.049   2.564 -0.4488  0.1459  0.1735
12536TIP3    H159023   2.868   0.114   2.631  0.3323  0.9277 -0.8156
12536TIP3    H259024   2.903  -0.026   2.584 -0.4731  0.2386  0.5932
12537TIP3   OH259025   3.018   5.496   3.091  0.2025  0.0516  0.0249
12537TIP3    H159026   3.055   5.435   3.027  1.1379  1.6293 -1.0068
12537TIP3    H259027   3.091   5.551   3.117  0.0253 -0.9974  3.0969
12538TIP3   OH259028   0.792   4.262  14.599 -0.2323  0.3169  0.0287
12538TIP3    H159029   0.826   4.267  14.510 -1.9129  0.1076 -0.6689
12538TIP3    H259030   0.706   4.306  14.594 -0.0912  0.8403  1.6862
12539TIP3   OH259031   2.290   6.026  11.159  0.0294 -0.2159 -0.3402
12539TIP3    H159032   2.327   6.111  11.136  0.4360 -0.0176  0.9887
12539TIP3    H259033   2.365   5.966  11.157 -0.2692 -0.5829 -1.3553
12540TIP3   OH259034   3.749   0.962  17.153  0.1637 -0.3491 -0.4852
12540TIP3    H159035   3.682   0.998  17.094  1.1257  0.7330 -0.9645
12540TIP3    H259036   3.784   1.039  17.199  1.4108 -0.8046 -0.6246
12541TIP3   OH259037   0.708   5.474  12.641 -0.2941 -0.2941  0.2519
12541TIP3    H159038   0.713   5.437  12.553 -1.5864  2.0740 -0.9167
12541TIP3    H259039   0.779   5.538  12.644 -1.3844  0.9571  0.2041
12542TIP3   OH259040   5.091   6.162   2.531 -0.2658  0.0330  0.0707
12542TIP3    H159041   5.140   6.216   2.593  0.0625 -0.0961 -0.0709
12542TIP3    H259042   5.152   6.149   2.458 -0.0519 -1.1549  0.4325
12543TIP3   OH259043   1.698   3.314  12.746 -0.2036  0.1285 -0.1057
12543TIP3    H159044   1.622   3.329  12.802  0.2980 -0.3054  0.7237
12543TIP3    H259045   1.663   3.314  12.657 -1.0598  0.6074  0.2193
12544TIP3   OH259046   0.781   1.922   3.972  0.0529  0.1251  0.1400
12544TIP3    H159047   0.743   1.927   4.060 -0.5112  1.9167 -0.1543
12544TIP3    H259048   0.708   1.939   3.913  0.3113 -1.5934 -0.7443
12545TIP3   OH259049   3.146   4.263   3.110 -0.3034 -0.5594 -0.1997
12545TIP3    H159050   3.085   4.331   3.140  1.1913 -0.1452  2.2225
12545TIP3    H259051   3.113   4.237   3.025 -2.6929  1.0475  0.1299
12546TIP3   OH259052   4.886   0.392  11.654  0.1445 -0.4770 -0.2259
12546TIP3    H159053   4.955   0.455  11.677  1.2768 -1.8243  0.1547
12546TIP3    H259054   4.865   0.412  11.563  1.7041 -0.6380 -0.6479
12547TIP3   OH259055   5.194   6.702   0.486  0.4262 -0.6186  0.1031
12547TIP3    H159056   5.228   6.667   0.569  0.9487  1.8777  1.0121
12547TIP3    H259057   5.271   6.735   0.440  0.1628 -2.1173 -1.5188
12548TIP3   OH259058   4.562   6.076  16.289 -0.1518 -0.1748  0.7908
12548TIP3    H159059   4.535   6.068  16.381 -0.7061  0.9107  0.7375
12548TIP3    H259060   4.493   6.128  16.248  1.0578  1.0269  0.2059
12549TIP3   OH259061   6.338   4.095  13.747  0.4540 -0.2647  0.4419
12549TIP3    H159062   6.290   4.168  13.708  0.7101 -0.0539  0.5155
12549TIP3    H259063   6.408   4.075  13.684  0.1384 -0.7132  0.2347
12550TIP3   OH259064   5.388   6.321   3.493  0.3324  0.4761 -0.1753
12550TIP3    H159065   5.403   6.228   3.480  2.9730  0.7185  0.5300
12550TIP3    H259066   5.429   6.362   3.416  2.0162  1.1371  1.0095
12551TIP3   OH259067   3.471   5.645   0.178  0.0587  0.4291  0.0082
12551TIP3    H159068   3.460   5.730   0.137  0.7147  0.1391 -0.8005
12551TIP3    H259069   3.537   5.660   0.246  0.6028  0.4564 -0.5165
12552TIP3   OH259070   1.710   4.029   0.908 -0.0612 -0.3912  0.3703
12552TIP3    H159071   1.706   4.013   1.003  1.9721 -0.9076  0.4204
12552TIP3    H259072   1.692   4.122   0.899 -0.5962 -0.3952  1.2302
12553TIP3   OH259073   1.826   3.973   4.183  0.7180  0.6336  0.0212
12553TIP3    H159074   1.815   3.911   4.111  1.2840  0.0219  0.4421
12553TIP3    H259075   1.738   4.000   4.207  0.5706  2.6978 -2.4531
12554TIP3   OH259076   5.983   5.288   1.006 -0.6132  0.4222  0.7958
12554TIP3    H159077   6.072   5.299   1.040 -0.3309  0.5527  0.0475
12554TIP3    H259078   5.956   5.377   0.981 -0.9726  0.3900  1.0638
12555TIP3   OH259079   3.393   0.162  12.226 -0.1715 -0.4741 -0.7626
12555TIP3    H159080   3.340   0.181  12.304  2.0647  1.3202  0.4183
12555TIP3    H259081   3.343   0.201  12.154 -1.7353 -1.1793 -0.1074
12556TIP3   OH259082   0.891   3.180   1.094  0.4684 -0.1163 -0.4394
12556TIP3    H159083   0.942   3.253   1.129 -0.1821  1.1376 -2.0390
12556TIP3    H259084   0.827   3.160   1.163  0.8744  0.5841  0.1502
12557TIP3   OH259085   4.139   4.553  15.181 -0.0923  0.8687 -0.1045
12557TIP3    H159086   4.110   4.522  15.267 -0.7766  0.8527 -0.3343
12557TIP3    H259087   4.128   4.477  15.123  0.0944  0.9620 -0.2636
12558TIP3   OH259088   3.012   2.379   0.940 -0.2980 -0.3419 -0.5646
12558TIP3    H159089   2.980   2.461   0.977  0.6702 -0.8126  1.4224
12558TIP3    H259090   2.933   2.324   0.931 -0.5582 -0.2127  0.8214
12559TIP3   OH259091   1.604   2.355  10.627  0.2059 -0.0294  0.2128
12559TIP3    H159092   1.568   2.266  10.634  1.1572 -0.4890 -0.5528
12559TIP3    H259093   1.534   2.411  10.661 -1.9009 -0.7349 -2.5170
12560TIP3   OH259094   6.755   5.859   4.904  0.2598 -0.0744 -0.1015
12560TIP3    H159095   6.808   5.932   4.937  0.4951  0.0505 -0.7555
12560TIP3    H259096   6.696   5.839   4.977  0.2525  0.7129  0.1211
12561TIP3   OH259097   3.306   6.596   1.763 -0.7000 -0.5347  0.0591
12561TIP3    H159098   3.355   6.652   1.823 -1.5907 -0.5342  0.8117
12561TIP3    H259099   3.315   6.638   1.678 -1.4012  0.8062  0.6166
12562TIP3   OH259100   5.105   0.047  14.519  0.2023 -0.7243 -1.0567
12562TIP3    H159101   5.105   0.139  14.547  0.4212 -0.8564 -0.6193
12562TIP3    H259102   5.118   0.051  14.424  1.6054 -0.3636 -0.8633
12563TIP3   OH259103   1.866   6.581  11.135  0.1118  0.1133 -0.1733
12563TIP3    H159104   1.843   6.622  11.051  1.8150  0.1348 -0.6634
12563TIP3    H259105   1.950   6.620  11.158 -1.0867  1.4107  2.4644
12564TIP3   OH259106   0.905   6.485   2.377 -0.1276 -0.3617 -0.6437
12564TIP3    H159107   0.988   6.445   2.404  0.0666 -0.0341 -0.7421
12564TIP3    H259108   0.854   6.413   2.341 -0.1791 -0.7021  0.0950
12565TIP3   OH259109   5.890   3.347   2.000 -0.1902 -0.1175  0.7800
12565TIP3    H159110   5.835   3.347   2.078  0.6269 -0.7792  1.3822
12565TIP3    H259111   5.911   3.439   1.984 -1.2831  0.1175  0.6624
12566TIP3   OH259112   2.137   1.926   5.929  0.2672 -0.3697  0.4572
12566TIP3    H159113   2.069   1.867   5.899 -1.3429  1.9720 -0.8487
12566TIP3    H259114   2.095   1.979   5.997  1.3079 -0.0032  0.8374
12567TIP3   OH259115   5.165   1.900  15.806  0.5486  0.5309  0.8113
12567TIP3    H159116   5.239   1.886  15.747  0.5607  2.2115  0.3610
12567TIP3    H259117   5.173   1.992  15.832 -0.4994  0.3093  1.9964
12568TIP3   OH259118   3.477   1.151   6.048 -0.3459 -0.0702  0.5625
12568TIP3    H159119   3.543   1.116   5.989  0.0193  0.4738  0.6414
12568TIP3    H259120   3.397   1.104   6.026 -0.3568  0.5397 -0.7873
12569TIP3   OH259121   1.304   4.688  12.896  0.1057 -0.0489 -0.1528
12569TIP3    H159122   1.231   4.674  12.956  0.3346  1.4548  0.5327
12569TIP3    H259123   1.376   4.718  12.952  0.9326 -0.5077 -0.9430
12570TIP3   OH259124   4.048   3.160  15.509  0.4234 -0.2988  0.0684
12570TIP3    H159125   4.130   3.184  15.465  0.7879 -1.8728 -0.1697
12570TIP3    H259126   4.074   3.093  15.573 -0.7855 -1.5248 -0.6787
12571TIP3   OH259127   3.823   6.072   1.598  0.3203  0.0037 -0.4736
12571TIP3    H159128   3.755   6.081   1.531 -0.8593 -1.8496  0.3925
12571TIP3    H259129   3.889   6.016   1.558  0.1827 -0.1437 -0.4950
12572TIP3   OH259130   2.357   2.098   3.399 -0.2967  0.1808  0.4122
12572TIP3    H159131   2.411   2.176   3.386 -0.0366 -0.1741 -0.7920
12572TIP3    H259132   2.290   2.125   3.462 -0.0913  1.3148  0.1652
12573TIP3   OH259133   1.035   4.647  13.017 -0.8224  0.2879 -0.0613
12573TIP3    H159134   0.970   4.625  13.085 -0.7734  2.7104  0.8782
12573TIP3    H259135   0.983   4.670  12.941 -1.0020  0.3503  0.0784
12574TIP3   OH259136   5.647   5.315   5.965  0.7747 -0.3998  0.2851
12574TIP3    H159137   5.722   5.257   5.980  0.8917  0.2529  2.5953
12574TIP3    H259138   5.600   5.315   6.049 -0.1014  1.5814 -0.1668
12575TIP3   OH259139   0.111   4.086   1.800 -0.1801  0.1383 -0.8914
12575TIP3    H159140   0.047   4.124   1.740 -0.9097 -1.2700 -1.0478
12575TIP3    H259141   0.148   4.162   1.846 -0.3552  1.1614 -2.3523
12576TIP3   OH259142   4.098   6.403   3.254 -0.0933  0.4864  0.0798
12576TIP3    H159143   4.164   6.458   3.296 -0.5071  1.0225  0.0390
12576TIP3    H259144   4.149   6.343   3.199  0.4332 -0.0003  1.0578
12577TIP3   OH259145   0.625   6.542   1.979 -0.3412 -0.0923 -0.3555
12577TIP3    H159146   0.622   6.610   1.911 -0.6291 -0.3085 -0.5613
12577TIP3    H259147   0.686   6.577   2.045 -0.7070  0.4942 -0.3209
12578TIP3   OH259148   5.837   1.456   5.318  0.0617  0.2854  0.5608
12578TIP3    H159149   5.782   1.475   5.394 -0.9080  0.4269 -0.1564
12578TIP3    H259150   5.854   1.542   5.279 -0.1813  0.1371  0.1225
12579TIP3   OH259151   0.435   1.864   3.619 -0.0516 -0.2789 -0.4056
12579TIP3    H159152   0.349   1.822   3.624  0.6410 -1.8832 -1.1032
12579TIP3    H259153   0.429   1.922   3.543 -0.8604  0.4836  0.2344
12580TIP3   OH259154   3.039   2.969  10.681 -0.1673  0.0707  0.2556
12580TIP3    H159155   3.095   2.895  10.703  0.9995  0.3613 -1.5519
12580TIP3    H259156   3.083   3.045  10.718  1.8870  0.5830 -2.8519
12581TIP3   OH259157   6.727   6.545   0.916 -0.2009  0.3532 -0.2587
12581TIP3    H159158   6.737   6.476   0.850  0.2905 -0.3335  0.5018
12581TIP3    H259159   6.652   6.596   0.887 -1.4915 -1.3796 -0.0990
12582TIP3   OH259160   3.406   6.383  15.987  0.3122 -0.2485  0.0094
12582TIP3    H159161   3.323   6.413  15.951 -0.6247 -1.4256  1.0733
12582TIP3    H259162   3.459   6.462  15.996 -1.3313  0.8089  0.8964
12583TIP3   OH259163   2.569   2.339  10.925  0.0811 -0.6433 -0.5445
12583TIP3    H159164   2.572   2.410  10.859  2.7587  0.5386  0.6672
12583TIP3    H259165   2.604   2.263  10.879  1.9368  0.1733 -0.5908
12584TIP3   OH259166   6.392   4.709   2.611  0.1804  0.6163  0.5039
12584TIP3    H159167   6.361   4.727   2.700  0.0584  0.6617  0.4514
12584TIP3    H259168   6.456   4.778   2.594  0.1801  0.6267  0.5433
12585TIP3   OH259169   6.509   5.767   4.711  0.6015  0.3340  0.0954
12585TIP3    H159170   6.491   5.757   4.804  0.7147  2.0168  0.3334
12585TIP3    H259171   6.588   5.821   4.707  3.1059 -3.0298 -0.9740
12586TIP3   OH259172   1.188   0.164   2.707  0.4173  0.2991  0.5233
12586TIP3    H159173   1.147   0.125   2.629 -0.7690 -2.0582  2.1884
12586TIP3    H259174   1.162   0.256   2.705 -2.6194 -0.4628 -0.0649
12587TIP3   OH259175   3.534   0.748  13.489 -0.4990 -0.1190  0.3752
12587TIP3    H159176   3.453   0.726  13.444  0.2829 -0.9799 -0.6560
12587TIP3    H259177   3.555   0.836  13.459 -1.7888  0.7116  1.7829
12588TIP3   OH259178   3.085   4.163   5.123  0.1016 -0.5927  0.0419
12588TIP3    H159179   3.021   4.106   5.165 -1.5321 -0.5884 -2.2651
12588TIP3    H259180   3.077   4.247   5.169 -1.3024 -0.7134  0.0625
12589TIP3   OH259181   2.162   6.422   3.253 -0.0054 -0.0144 -0.2157
12589TIP3    H159182   2.154   6.441   3.159 -2.9872 -2.2494 -0.5569
12589TIP3    H259183   2.196   6.333   3.256 -2.4692 -1.0084  0.6304
12590TIP3   OH259184   3.210   0.078  13.256  0.0467 -0.1687  0.4308
12590TIP3    H159185   3.215  -0.018  13.263  3.6519 -0.1613 -0.2152
12590TIP3    H259186   3.134   0.093  13.200  0.2806 -2.7811 -0.7705
12591TIP3   OH259187   5.086   3.860  12.113 -0.1029 -0.0693  0.3305
12591TIP3    H159188   5.148   3.803  12.158 -1.1302 -0.9396  0.6778
12591TIP3    H259189   5.120   3.867  12.024  0.4714 -0.5668  0.5007
12592TIP3   OH259190   6.446   3.323  12.628 -0.0930  0.4860  0.1908
12592TIP3    H159191   6.541   3.324  12.638  0.3251  2.5915 -2.8088
12592TIP3    H259192   6.422   3.231  12.639  2.4618 -0.3353 -0.3707
12593TIP3   OH259193   2.364   1.768  10.726 -0.1303  1.0945 -0.9588
12593TIP3    H159194   2.370   1.676  10.700  0.1292  1.0113 -0.6143
12593TIP3    H259195   2.377   1.817  10.644 -1.0657  0.8250 -1.2887
12594TIP3   OH259196   1.493   6.578   5.610 -0.7781  0.7571 -0.2302
12594TIP3    H159197   1.527   6.645   5.549  0.6644 -0.4211 -0.7918
12594TIP3    H259198   1.419   6.539   5.564 -0.0548  0.2693 -1.0071
12595TIP3   OH259199   1.192   1.132  11.720  0.3605 -0.6567  0.0504
12595TIP3    H159200   1.240   1.208  11.686  0.4261 -1.0074 -0.6722
12595TIP3    H259201   1.255   1.087  11.777 -0.0153  0.3919  1.3217
12596TIP3   OH259202   4.169   4.447   4.034  0.0501 -0.0185  0.5692
12596TIP3    H159203   4.177   4.443   3.938 -1.2947  0.3712  0.4221
12596TIP3    H259204   4.081   4.481   4.049  0.5627  0.7775  1.9520
12597TIP3   OH259205   3.898   6.135  17.148  0.2021 -1.1054 -0.1035
12597TIP3    H159206   3.935   6.139  17.236 -0.2007 -0.0372  0.0427
12597TIP3    H259207   3.806   6.114  17.162 -0.8055  2.7146  0.0914
12598TIP3   OH259208   4.113   2.000  16.428 -0.6786 -0.5967  0.1130
12598TIP3    H159209   4.189   1.965  16.381 -0.5917  1.3025 -1.2682
12598TIP3    H259210   4.139   1.998  16.520  0.8842 -0.4110 -0.2890
12599TIP3   OH259211   1.929   0.813   3.869 -0.0513  0.5369  0.1693
12599TIP3    H159212   1.927   0.753   3.943  0.4001 -0.1012 -0.3224
12599TIP3    H259213   1.858   0.784   3.811 -0.2161  0.8505  0.2114
12600TIP3   OH259214   5.385   4.375  11.543 -0.0685  0.1911 -0.6673
12600TIP3    H159215   5.427   4.412  11.466  0.0757 -0.5369 -0.9368
12600TIP3    H259216   5.453   4.322  11.585 -0.4637 -0.3062 -0.6469
12601TIP3   OH259217   4.425   1.502  12.523  0.2980  0.0342  0.0678
12601TIP3    H159218   4.434   1.595  12.546  1.1206  0.2960 -1.2338
12601TIP3    H259219   4.457   1.496  12.434 -0.4822 -1.3827 -0.1506
12602TIP3   OH259220   3.308   3.727  13.765 -0.4277  0.5716 -0.2951
12602TIP3    H159221   3.349   3.640  13.767 -2.6606 -0.5451 -0.3814
12602TIP3    H259222   3.351   3.774  13.837 -0.3307 -1.1822  0.8841
12603TIP3   OH259223   0.283   0.407  13.562 -0.3129 -0.5748  0.0010
12603TIP3    H159224   0.289   0.405  13.657  0.5007 -1.1081 -0.0527
12603TIP3    H259225   0.189   0.398  13.544 -0.4016 -1.2225  0.7337
12604TIP3   OH259226   3.239   0.090   2.038  0.6464 -0.0396 -0.1710
12604TIP3    H159227   3.147   0.113   2.051  0.3107 -0.3286 -1.7569
12604TIP3    H259228   3.246   0.001   2.072  0.2616 -0.1365 -0.3410
12605TIP3   OH259229   3.028   3.189   3.388 -0.3105  0.4037  0.3571
12605TIP3    H159230   3.080   3.151   3.317 -0.5864  1.8494 -0.6775
12605TIP3    H259231   3.086   3.254   3.428 -0.2380 -0.2418  1.3306
12606TIP3   OH259232   1.513   2.472  13.569  0.2130  0.2160  0.2356
12606TIP3    H159233   1.549   2.540  13.512  2.1894 -0.8667  0.0891
12606TIP3    H259234   1.577   2.464  13.640  0.4201 -1.9260 -0.1224
12607TIP3   OH259235   4.730   5.218   0.296 -0.2158 -0.7085 -0.0145
12607TIP3    H159236   4.768   5.296   0.256 -2.2498  0.1105 -0.4531
12607TIP3    H259237   4.734   5.151   0.228 -0.1815 -0.4485 -0.2689
12608TIP3   OH259238   2.252   2.320  12.704 -0.3392 -0.5229 -0.0978
12608TIP3    H159239   2.283   2.291  12.790  0.6010 -0.3108 -0.3539
12608TIP3    H259240   2.244   2.239  12.653  2.2109 -0.4056 -0.7883
12609TIP3   OH259241   4.512   5.088   4.635  0.3911 -0.0044  0.1682
12609TIP3    H159242   4.439   5.146   4.656 -1.3604 -2.6863  2.1312
12609TIP3    H259243   4.471   5.012   4.593  2.5745 -0.0157 -2.2281
12610TIP3   OH259244   3.528   5.250   0.020  0.3819  0.1261  0.3852
12610TIP3    H159245   3.574   5.311   0.077 -0.9594  0.1788  1.4804
12610TIP3    H259246   3.436   5.258   0.046 -0.2499 -0.0566 -1.6283
12611TIP3   OH259247   3.633   4.701  10.637  0.1858 -0.6601 -0.2740
12611TIP3    H159248   3.676   4.662  10.713  1.7514  0.3577 -0.5844
12611TIP3    H259249   3.701   4.705  10.570  0.0107  2.0465 -0.4245
12612TIP3   OH259250   0.309   4.475  13.953 -0.1755  0.1064 -0.2159
12612TIP3    H159251   0.348   4.446  13.870  1.4816 -1.1422  0.9151
12612TIP3    H259252   0.257   4.399  13.983  1.5360 -0.5917  1.1923
12613TIP3   OH259253   0.786   4.570  13.490 -0.4650 -0.4137  0.4686
12613TIP3    H159254   0.713   4.510  13.508 -0.4507 -0.2932  0.9446
12613TIP3    H259255   0.795   4.621  13.571 -0.6978  0.4615 -0.0479
12614TIP3   OH259256   3.617   5.151   5.336  0.1983 -0.2522 -0.7449
12614TIP3    H159257   3.687   5.212   5.312  0.7356 -1.2690 -1.9143
12614TIP3    H259258   3.587   5.115   5.252 -0.7441 -0.9037 -0.1505
12615TIP3   OH259259   5.332   6.287  15.286  0.2694  0.4352  0.2287
12615TIP3    H159260   5.269   6.222  15.254 -0.4959  1.0991  0.3701
12615TIP3    H259261   5.338   6.271  15.380 -1.0487  1.5053  0.5197
12616TIP3   OH259262   3.361   6.248   0.287 -0.1413 -0.2617  0.0072
12616TIP3    H159263   3.376   6.161   0.251  0.5748  0.5503 -1.7747
12616TIP3    H259264   3.406   6.307   0.227  0.5942  1.2580  1.9217
12617TIP3   OH259265   1.839   0.654  13.830  0.3349 -0.7213 -0.1408
12617TIP3    H159266   1.853   0.748  13.828 -0.5292 -0.4963  1.9026
12617TIP3    H259267   1.863   0.624  13.742 -2.1147  1.7908 -1.8450
12618TIP3   OH259268   2.791   4.704  15.644 -0.2970  0.3678 -0.3203
12618TIP3    H159269   2.838   4.724  15.563 -2.3303  0.4657 -1.5475
12618TIP3    H259270   2.716   4.652  15.615 -1.1428  0.5110  1.5101
12619TIP3   OH259271   0.569   6.226  10.640  0.4264  0.4828  0.2290
12619TIP3    H159272   0.478   6.214  10.616  0.5579  1.6325 -0.9494
12619TIP3    H259273   0.614   6.240  10.557  1.8778 -1.1271  0.6770
12620TIP3   OH259274   3.977   1.050  14.692 -0.3451  0.0441 -0.0602
12620TIP3    H159275   4.016   0.992  14.757 -0.3929 -0.7731 -0.7505
12620TIP3    H259276   4.049   1.071  14.633 -0.9679 -1.6881 -1.5011
12621TIP3   OH259277   3.328   2.209   5.910 -0.4511  0.2547 -0.5333
12621TIP3    H159278   3.387   2.213   5.986 -1.1329  0.0748  0.0149
12621TIP3    H259279   3.243   2.239   5.944 -0.8635 -0.2391 -1.1177
12622TIP3   OH259280   6.653   5.070  11.311 -0.2425  0.0352 -0.0692
12622TIP3    H159281   6.734   5.112  11.341 -0.7489  1.9920 -1.2696
12622TIP3    H259282   6.682   5.008  11.243  0.2435  0.9494 -0.7184
12623TIP3   OH259283   0.600   5.339  13.798 -0.4290  0.2056  0.0708
12623TIP3    H159284   0.613   5.317  13.706 -2.5578 -0.7716 -0.0561
12623TIP3    H259285   0.517   5.386  13.800  0.0636  1.0916  1.3981
12624TIP3   OH259286   0.964   0.276   1.210 -0.1978  0.7925  0.1520
12624TIP3    H159287   1.038   0.222   1.185 -1.1077 -0.1304 -0.6657
12624TIP3    H259288   0.961   0.345   1.144 -0.9416 -0.0489 -0.7333
12625TIP3   OH259289   2.348   4.455   0.848  0.1041  0.2045 -0.5313
12625TIP3    H159290   2.426   4.422   0.803  1.6233  1.2243  1.1984
12625TIP3    H259291   2.317   4.527   0.793  0.2550 -0.3474 -1.3482
12626TIP3   OH259292   4.869   4.619  12.782 -0.3704  0.2718  0.2358
12626TIP3    H159293   4.783   4.606  12.744  0.0717  0.3079 -0.8114
12626TIP3    H259294   4.921   4.657  12.712  0.3350  0.8446  1.0394
12627TIP3   OH259295   5.263   1.832   2.980  0.0553  0.3933  0.4528
12627TIP3    H159296   5.323   1.873   2.917  2.0894 -1.9422  0.7170
12627TIP3    H259297   5.191   1.799   2.926  1.9339 -1.8863 -0.8553
12628TIP3   OH259298   6.410   0.936   2.806 -0.2235 -0.0200 -0.1688
12628TIP3    H159299   6.358   0.867   2.848  0.9710 -0.4938  0.5996
12628TIP3    H259300   6.388   1.015   2.854 -0.8955 -0.0396 -0.4354
12629TIP3   OH259301   3.682   3.001   3.719 -0.3194  0.0543  0.0484
12629TIP3    H159302   3.643   3.087   3.704 -2.7389 -1.2474 -1.8988
12629TIP3    H259303   3.687   2.961   3.631  0.5362 -1.8729  0.9007
12630TIP3   OH259304   1.624   0.887  12.801  0.9073 -0.3202 -0.3291
12630TIP3    H159305   1.691   0.955  12.791  1.1776 -0.5727 -0.2493
12630TIP3    H259306   1.593   0.871  12.712  0.4630  0.2854 -0.2880
12631TIP3   OH259307   5.321   4.887   1.166 -0.5368 -0.0841 -0.5289
12631TIP3    H159308   5.255   4.948   1.133 -1.3086 -0.4926  0.2070
12631TIP3    H259309   5.344   4.834   1.090 -1.8875 -0.6609 -0.5727
12632TIP3   OH259310   2.213   5.688   0.433 -0.4427 -0.5045  0.6033
12632TIP3    H159311   2.194   5.749   0.361  1.3136 -0.2806  0.2894
12632TIP3    H259312   2.302   5.658   0.416 -0.7314 -2.0260  1.5889
12633TIP3   OH259313   5.536   6.053  15.423 -0.4897 -0.0903  0.1231
12633TIP3    H159314   5.620   6.098  15.412 -0.1677 -0.4298  1.1328
12633TIP3    H259315   5.481   6.116  15.469 -1.3823  0.7876 -1.9844
12634TIP3   OH259316   5.008   2.403  15.890  0.5555 -0.1051 -0.3515
12634TIP3    H159317   5.002   2.351  15.811  0.4882 -0.3583 -0.1823
12634TIP3    H259318   5.049   2.344  15.954  0.7613  0.1505 -0.2474
12635TIP3   OH259319   5.359   6.600  11.437 -0.0167  0.8543 -0.6116
12635TIP3    H159320   5.433   6.651  11.471  1.0650 -0.5021 -0.8279
12635TIP3    H259321   5.394   6.555  11.360 -0.2211 -1.8656  0.7433
12636TIP3   OH259322   0.776   6.702   5.392  0.0975 -0.7299 -0.4126
12636TIP3    H159323   0.860   6.749   5.398 -0.2976 -0.0990  0.3057
12636TIP3    H259324   0.788   6.624   5.447 -0.2489  0.0857  0.8575
12637TIP3   OH259325   1.079   0.003   1.543  0.1646  0.5477 -0.2864
12637TIP3    H159326   1.000  -0.028   1.500  0.5285 -0.1946 -0.4320
12637TIP3    H259327   1.142  -0.069   1.533  1.6063  1.9524 -2.1862
12638TIP3   OH259328   0.410   5.390   3.374  0.4620 -0.6463  0.6077
12638TIP3    H159329   0.413   5.425   3.286 -1.2256  0.2415  0.8621
12638TIP3    H259330   0.393   5.466   3.430 -2.9410 -1.6610  1.2124
12639TIP3   OH259331   5.476   4.519  11.294  0.2266  0.5332 -0.0388
12639TIP3    H159332   5.466   4.611  11.319 -0.9364  0.1628  0.9673
12639TIP3    H259333   5.443   4.515  11.204 -0.3812  0.9862  0.1561
12640TIP3   OH259334   3.803   4.343  16.663 -0.0172 -0.2536  0.0877
12640TIP3    H159335   3.710   4.357  16.646 -0.0113 -1.6870 -1.3430
12640TIP3    H259336   3.809   4.255  16.700  0.7140  0.0969  0.8477
12641TIP3   OH259337   6.460   2.206   3.802 -0.6720 -0.0927 -0.1254
12641TIP3    H159338   6.445   2.136   3.866  0.4690 -1.2751 -1.0895
12641TIP3    H259339   6.376   2.218   3.759 -0.6802 -1.5893 -0.6013
12642TIP3   OH259340   3.249   0.735  17.001  0.1494 -0.5289  0.4139
12642TIP3    H159341   3.300   0.778  17.070  1.0217 -0.2878 -0.3495
12642TIP3    H259342   3.269   0.786  16.922 -1.0234 -0.6485  0.0286
12643TIP3   OH259343   4.860   2.253  16.246 -0.1343 -0.3741  0.0503
12643TIP3    H159344   4.918   2.203  16.187 -0.9706 -1.1332 -0.1509
12643TIP3    H259345   4.779   2.264  16.196 -0.1600  0.7262  0.3094
12644TIP3   OH259346   6.686   2.457   0.646  0.8891  0.4188  0.2986
12644TIP3    H159347   6.755   2.487   0.587 -0.0665  1.4039 -0.3663
12644TIP3    H259348   6.732   2.429   0.725  2.1102  0.1785 -0.4685
12645TIP3   OH259349   2.187   3.327   0.821 -0.0557 -0.1855  0.5871
12645TIP3    H159350   2.267   3.275   0.817  0.4265  0.6278 -1.2857
12645TIP3    H259351   2.125   3.279   0.765  0.3500  1.1240 -1.0462
12646TIP3   OH259352   1.597   3.782  13.514  0.0774  0.2708 -0.2140
12646TIP3    H159353   1.590   3.869  13.475 -2.3098  0.1033 -0.3403
12646TIP3    H259354   1.683   3.781  13.555  0.5575  2.3383 -1.0316
12647TIP3   OH259355   1.903   1.316  12.791 -0.0329 -0.0876 -0.0423
12647TIP3    H159356   1.972   1.345  12.850 -0.6558  1.7597 -0.1768
12647TIP3    H259357   1.928   1.350  12.705 -1.9088  2.1832  0.2014
12648TIP3   OH259358   2.685   1.585   2.062  0.0857  0.0332  0.6406
12648TIP3    H159359   2.720   1.508   2.018 -0.1124  0.1198  0.3291
12648TIP3    H259360   2.753   1.652   2.051 -0.6283  0.5503 -0.9563
12649TIP3   OH259361   1.591   1.394  10.258  0.2636  0.3325  0.0349
12649TIP3    H159362   1.675   1.351  10.240  1.1213  0.3425  3.3205
12649TIP3    H259363   1.532   1.323  10.282 -1.1253  0.2128 -3.1533
12650TIP3   OH259364   5.152   1.629   1.528 -0.5757  0.4369 -0.1560
12650TIP3    H159365   5.139   1.721   1.553  0.3813  0.2733  1.0296
12650TIP3    H259366   5.178   1.634   1.435 -0.7589  1.3423 -0.1748
12651TIP3   OH259367   1.230   4.626   6.584 -0.1252  0.0502  0.4987
12651TIP3    H159368   1.238   4.538   6.547 -0.6770  0.9771 -2.0756
12651TIP3    H259369   1.299   4.631   6.650  1.0483 -1.7356 -0.5016
12652TIP3   OH259370   4.023   4.085  14.902  0.6279  0.0938 -0.0544
12652TIP3    H159371   4.025   3.990  14.911  1.4603  0.1843  0.9254
12652TIP3    H259372   4.098   4.105  14.846  0.8064  0.2168  0.2280
12653TIP3   OH259373   2.292   2.912  16.799 -0.5036 -0.6873  0.1378
12653TIP3    H159374   2.357   2.971  16.761 -0.8685 -1.5999 -2.0474
12653TIP3    H259375   2.310   2.914  16.893  2.1195 -0.2541 -0.2989
12654TIP3   OH259376   2.907   2.006  13.664 -0.2690  0.7238  0.1522
12654TIP3    H159377   2.977   2.028  13.725 -0.1987  0.2104  0.2614
12654TIP3    H259378   2.933   1.922  13.625 -1.0500  0.2765  0.5574
12655TIP3   OH259379   4.636   4.628   1.165 -0.2026  0.0050 -0.0144
12655TIP3    H159380   4.730   4.614   1.175 -0.3654 -0.7815  0.5800
12655TIP3    H259381   4.625   4.723   1.164  0.6081  0.1000 -0.2358
12656TIP3   OH259382   3.554   5.703   4.348  0.0210  0.2545  0.3291
12656TIP3    H159383   3.551   5.758   4.270  1.9679  0.0525  0.0685
12656TIP3    H259384   3.488   5.636   4.333 -0.3324  0.8157 -0.6773
12657TIP3   OH259385   4.842   0.972  14.496  0.4364 -0.2083  0.1737
12657TIP3    H159386   4.824   0.923  14.576  2.0910  0.9046  1.2661
12657TIP3    H259387   4.772   1.038  14.492  0.2917 -0.3306  0.6443
12658TIP3   OH259388   2.210   2.207  13.192  0.1818 -0.1566  0.1256
12658TIP3    H159389   2.121   2.240  13.181 -0.2101 -1.3237 -0.2613
12658TIP3    H259390   2.238   2.241  13.278 -1.4389 -1.5767  1.2641
12659TIP3   OH259391   1.928   4.122   4.387 -0.1155 -0.3461  0.2073
12659TIP3    H159392   1.939   4.058   4.316 -0.9923  1.0340 -1.2136
12659TIP3    H259393   1.864   4.184   4.354  2.0269  2.3487  0.7651
12660TIP3   OH259394   1.615   4.704   4.068  0.0905  0.6547 -0.3729
12660TIP3    H159395   1.594   4.796   4.082  0.3656  0.6030  0.4362
12660TIP3    H259396   1.558   4.657   4.130  1.3997  0.4185  0.6883
12661TIP3   OH259397   6.274   2.719   4.497 -0.0168  0.2722  0.9323
12661TIP3    H159398   6.220   2.672   4.433 -0.5873 -1.0031  2.2904
12661TIP3    H259399   6.217   2.731   4.572  0.9140  0.9604  1.5498
12662TIP3   OH259400   2.764   1.807  13.313 -0.1090 -0.0526 -0.5434
12662TIP3    H159401   2.809   1.807  13.398 -1.2260 -1.0501  0.0808
12662TIP3    H259402   2.778   1.895  13.279 -1.0801  0.9527  1.4742
12663TIP3   OH259403   5.775   6.695   0.939  0.1173  0.3419 -0.2832
12663TIP3    H159404   5.736   6.638   0.873  0.0705 -1.7529  1.4394
12663TIP3    H259405   5.865   6.663   0.948  0.2930  0.9634  0.2822
12664TIP3   OH259406   5.807   1.464   5.862 -0.1111  0.2435 -0.9632
12664TIP3    H159407   5.890   1.420   5.881 -0.8471 -0.2228  1.6176
12664TIP3    H259408   5.814   1.548   5.907 -1.6672 -0.5784  1.0380
12665TIP3   OH259409   0.562   4.283   5.959 -0.0803  0.3396  0.4745
12665TIP3    H159410   0.477   4.277   6.002 -0.2594  3.2108  0.7408
12665TIP3    H259411   0.625   4.257   6.027 -0.6484 -0.8029  0.5904
12666TIP3   OH259412   3.370   2.409  15.869  0.4731  0.1523 -0.0893
12666TIP3    H159413   3.407   2.335  15.916 -2.7806 -1.3782  0.2994
12666TIP3    H259414   3.414   2.408  15.784  2.7333 -0.1907  1.0143
12667TIP3   OH259415   2.297   3.713   3.226  0.2402  0.0006 -0.2560
12667TIP3    H159416   2.243   3.640   3.256 -0.8683  0.4742 -1.0012
12667TIP3    H259417   2.241   3.790   3.237  1.1357  0.6508 -0.1239
12668TIP3   OH259418   2.572   1.007  11.892  0.0590  0.3602 -0.0746
12668TIP3    H159419   2.534   0.963  11.817 -0.3850 -0.1754  0.4617
12668TIP3    H259420   2.504   1.005  11.959  0.6896  0.2141  0.5797
12669TIP3   OH259421   3.790   2.681   3.773 -0.2679  0.4151 -0.1914
12669TIP3    H159422   3.772   2.769   3.806  0.3249  0.1990  0.7391
12669TIP3    H259423   3.784   2.689   3.678 -1.4425  1.1818 -0.0667
12670TIP3   OH259424   6.771   5.773  16.049  0.1243 -0.1924  0.0616
12670TIP3    H159425   6.722   5.708  16.099 -0.2175 -0.0651 -0.1084
12670TIP3    H259426   6.806   5.725  15.974  2.1428 -0.8313  1.3017
12671TIP3   OH259427   4.374   3.387  13.009  0.4495  0.5522  0.1914
12671TIP3    H159428   4.447   3.428  12.962 -0.0473  2.6428  1.1308
12671TIP3    H259429   4.319   3.351  12.940  0.2010  2.7479 -0.8522
12672TIP3   OH259430   2.169   5.135  13.925 -0.0121  0.2579  0.0350
12672TIP3    H159431   2.213   5.058  13.962 -0.6316  0.7980  2.0412
12672TIP3    H259432   2.079   5.106  13.911 -0.2988  0.6309  0.9920
12673TIP3   OH259433   0.098   3.133  15.164  0.6656 -0.6215  0.1028
12673TIP3    H159434   0.144   3.098  15.087 -0.2576 -3.0148  0.5532
12673TIP3    H259435   0.021   3.178  15.128  1.5400  0.4764 -0.4593
12674TIP3   OH259436   0.532   1.263  12.467  0.0399  0.1699  0.1060
12674TIP3    H159437   0.553   1.295  12.379 -0.6503 -2.0909 -0.9695
12674TIP3    H259438   0.451   1.308  12.491  0.6111  1.3327 -0.0861
12675TIP3   OH259439   0.292   0.327  16.411 -0.0736 -0.0747 -0.2875
12675TIP3    H159440   0.347   0.400  16.382 -0.1176 -0.0672 -0.3537
12675TIP3    H259441   0.352   0.265  16.452  0.0730 -0.3335 -0.8744
12676TIP3   OH259442   4.333   0.124  11.383  0.1591  0.1578 -0.1367
12676TIP3    H159443   4.256   0.132  11.327  0.6048  0.9143 -0.6626
12676TIP3    H259444   4.300   0.138  11.471 -0.8159 -2.5122  0.0110
12677TIP3   OH259445   0.294   1.432  11.711  0.0444  0.0049  0.0535
12677TIP3    H159446   0.332   1.520  11.716  2.3843 -0.8132 -1.7315
12677TIP3    H259447   0.234   1.436  11.637 -0.0811  0.1640  0.1621
12678TIP3   OH259448   6.227   0.018  15.921 -0.3864  0.1519 -0.4610
12678TIP3    H159449   6.296  -0.024  15.869  1.4173  1.8168  0.4754
12678TIP3    H259450   6.170   0.060  15.857  1.3887  1.5705 -1.1652
12679TIP3   OH259451   0.138   4.078   6.514  0.6144  0.5024  0.5746
12679TIP3    H159452   0.123   4.078   6.419 -0.3039  1.7720  0.6967
12679TIP3    H259453   0.233   4.086   6.523  0.6366  1.2682 -0.2455
12680TIP3   OH259454   2.708   5.954  13.144  0.2029 -0.0770 -0.0376
12680TIP3    H159455   2.734   5.877  13.193 -0.7053  0.7883  1.8897
12680TIP3    H259456   2.631   5.988  13.190  1.0210  2.3868 -0.3312
12681TIP3   OH259457   2.841   5.008  11.130 -0.4861 -0.4108  0.4613
12681TIP3    H159458   2.918   5.019  11.185 -0.9486 -2.0796  1.5198
12681TIP3    H259459   2.844   4.917  11.101 -2.0191 -0.5010  0.4671
12682TIP3   OH259460   4.908   1.136   3.518  0.1149 -0.3469  0.0096
12682TIP3    H159461   4.849   1.084   3.574  0.1905  0.0873  0.4975
12682TIP3    H259462   4.850   1.178   3.455 -0.0016 -0.6340 -0.0753
12683TIP3   OH259463   3.272   5.212   5.216  0.2032 -0.4436 -0.0877
12683TIP3    H159464   3.183   5.184   5.237  0.3504 -2.6786 -2.1247
12683TIP3    H259465   3.311   5.233   5.301 -2.1174  0.2790  0.8719
12684TIP3   OH259466   0.639   0.370  12.979  0.7174  0.3805  0.2281
12684TIP3    H159467   0.571   0.338  12.920  0.6464 -2.5737  1.7177
12684TIP3    H259468   0.708   0.402  12.921 -1.9523  3.9162 -1.3452
12685TIP3   OH259469   2.445   2.378   5.259 -0.7330  0.1011  0.0029
12685TIP3    H159470   2.447   2.284   5.276 -1.9951 -0.3463 -1.9228
12685TIP3    H259471   2.447   2.384   5.163 -3.8457  1.8359 -0.0759
12686TIP3   OH259472   3.716   2.210  15.938 -0.5115 -0.3688  0.6165
12686TIP3    H159473   3.757   2.256  15.864 -0.8006 -0.8996  0.1148
12686TIP3    H259474   3.677   2.132  15.898  0.8810 -1.6326  1.5872
12687TIP3   OH259475   1.805   4.929   5.437 -0.1835  0.2852 -0.5134
12687TIP3    H159476   1.721   4.926   5.392  0.0750  1.4245 -1.1271
12687TIP3    H259477   1.860   4.867   5.389 -0.0354  1.1788 -1.5373
12688TIP3   OH259478   3.817   0.509  11.882 -0.6254 -0.4111  0.0817
12688TIP3    H159479   3.770   0.536  11.961 -3.1169 -0.5166 -1.2597
12688TIP3    H259480   3.811   0.413  11.882  1.2494 -0.5714  0.7896
12689TIP3   OH259481   0.773   3.794  16.155 -0.4672 -0.4931 -0.0076
12689TIP3    H159482   0.815   3.836  16.080  0.0383  1.4256  1.2638
12689TIP3    H259483   0.810   3.839  16.231 -3.3636 -0.0405  1.2824
12690TIP3   OH259484   2.134   4.693  12.874 -0.3481  0.0711  0.0225
12690TIP3    H159485   2.124   4.708  12.968 -3.0874 -0.1024 -0.1616
12690TIP3    H259486   2.173   4.606  12.867 -0.6946 -0.1750  1.0137
12691TIP3   OH259487   3.353   2.497  14.961 -0.5969  0.3277 -0.2323
12691TIP3    H159488   3.431   2.543  14.992 -0.7880  0.0890  0.6169
12691TIP3    H259489   3.319   2.451  15.038 -0.0237 -1.8285 -1.1995
12692TIP3   OH259490   6.494   2.448   2.106  0.5705 -0.1003  0.0976
12692TIP3    H159491   6.468   2.534   2.138  0.6914 -0.9201  2.6186
12692TIP3    H259492   6.419   2.417   2.055 -1.0962 -0.0185  2.3543
12693TIP3   OH259493   6.531   4.316  12.491  0.0421 -0.3626  0.2691
12693TIP3    H159494   6.509   4.266  12.412  2.0337  0.3736 -0.8176
12693TIP3    H259495   6.593   4.260  12.538  1.0215  0.3586 -0.1327
12694TIP3   OH259496   1.446   5.513  12.116  0.5632 -0.1098  0.1709
12694TIP3    H159497   1.511   5.480  12.054 -0.6127 -1.0795 -0.5818
12694TIP3    H259498   1.433   5.441  12.178  0.6848  0.3296  0.7165
12695TIP3   OH259499   6.483   6.497   4.669  0.0704  0.6818 -0.9198
12695TIP3    H159500   6.523   6.469   4.586 -0.1184 -0.4140 -0.6492
12695TIP3    H259501   6.540   6.460   4.736 -0.5759  0.3489 -0.5457
12696TIP3   OH259502   4.267   1.772  11.847  0.2287 -0.0300  0.4905
12696TIP3    H159503   4.347   1.764  11.899  0.2084  0.0883  0.5415
12696TIP3    H259504   4.277   1.855  11.801  0.4893 -0.3955 -0.1173
12697TIP3   OH259505   4.474   4.609   3.924 -0.6199  0.0977  0.1251
12697TIP3    H159506   4.531   4.685   3.913 -1.9433  1.0579 -0.2619
12697TIP3    H259507   4.528   4.535   3.895 -0.4304  1.2769 -2.8917
12698TIP3   OH259508   1.334   5.280   4.579 -0.2509  0.4646  0.3326
12698TIP3    H159509   1.400   5.289   4.647 -0.5390  1.8923  0.4627
12698TIP3    H259510   1.376   5.315   4.500  0.0913 -1.1959 -0.2559
12699TIP3   OH259511   3.370   3.846  15.615 -0.1531  0.9103 -0.4218
12699TIP3    H159512   3.398   3.844  15.524 -1.4727  3.2462 -0.9392
12699TIP3    H259513   3.414   3.922  15.652  1.4977 -0.7782  1.3824
12700TIP3   OH259514   3.428   0.176   4.531  0.7821  0.0537 -0.1824
12700TIP3    H159515   3.387   0.190   4.616  1.0214 -1.9048  0.2869
12700TIP3    H259516   3.354   0.169   4.470  0.6270  2.1990 -0.3133
12701TIP3   OH259517   5.374   4.885  15.642  0.0425  0.5762 -0.2215
12701TIP3    H159518   5.377   4.926  15.556  1.0196  0.0967 -0.4222
12701TIP3    H259519   5.433   4.810  15.636 -1.2156 -0.5024  0.3346
12702TIP3   OH259520   3.427   3.632  12.636  0.1957 -0.0335  0.4148
12702TIP3    H159521   3.455   3.552  12.592 -0.0015 -0.1606  0.5190
12702TIP3    H259522   3.506   3.685  12.642  0.1354  0.1687 -0.4702
12703TIP3   OH259523   3.707   2.531   0.974 -0.2479 -0.1417  0.2996
12703TIP3    H159524   3.657   2.504   1.051 -0.0565  0.8890  0.8028
12703TIP3    H259525   3.643   2.573   0.917 -0.2994 -0.4769  0.1089
12704TIP3   OH259526   5.492   0.674  12.672 -0.3055 -0.0705  0.4361
12704TIP3    H159527   5.451   0.588  12.689  0.5467 -0.3915  0.9223
12704TIP3    H259528   5.564   0.678  12.734 -0.0714  0.8266  0.1123
12705TIP3   OH259529   6.234   6.725   1.892 -0.0657  0.3735 -0.0977
12705TIP3    H159530   6.256   6.812   1.859 -1.6102  0.5138 -0.8491
12705TIP3    H259531   6.292   6.712   1.967 -0.5026  2.4719  0.6789
12706TIP3   OH259532   1.931   4.598   0.602  0.4542 -0.3466  0.1801
12706TIP3    H159533   1.890   4.552   0.676  1.7235  0.6322  1.5699
12706TIP3    H259534   1.999   4.538   0.572 -1.0947 -1.4316 -1.2992
12707TIP3   OH259535   5.118   5.987   5.386  0.0105  0.3939 -0.0972
12707TIP3    H159536   5.208   5.963   5.364  0.9034  0.5377  2.8584
12707TIP3    H259537   5.085   5.912   5.436 -1.1856  0.7382 -0.3409
12708TIP3   OH259538   3.228   1.371   5.058 -0.1989 -0.6814  0.2870
12708TIP3    H159539   3.206   1.425   5.133  1.0889 -0.0464  0.2363
12708TIP3    H259540   3.259   1.289   5.095  1.0743 -0.1324  0.5218
12709TIP3   OH259541   0.439   0.251  16.106 -0.3478  0.3025 -0.5200
12709TIP3    H159542   0.345   0.251  16.121 -0.3900  0.0477 -0.7892
12709TIP3    H259543   0.470   0.331  16.150 -0.5360 -0.1758  0.5148
12710TIP3   OH259544   2.615   4.666   3.370 -1.2472 -0.0769 -0.0688
12710TIP3    H159545   2.568   4.745   3.346 -0.7714  1.1684  2.7692
12710TIP3    H259546   2.707   4.688   3.357 -1.1766 -0.9450 -1.2526
12711TIP3   OH259547   0.088   6.191   4.764  0.0385  0.7318 -0.5230
12711TIP3    H159548   0.140   6.226   4.692  0.5670  1.6874  0.2955
12711TIP3    H259549   0.153   6.162   4.828 -0.4038 -1.1697 -0.8852
12712TIP3   OH259550   2.734   3.928  12.061  0.2747 -0.6455 -0.7460
12712TIP3    H159551   2.720   3.908  11.968  0.2351  0.0513 -0.8978
12712TIP3    H259552   2.807   3.873  12.086  1.1671  0.1348 -1.5564
12713TIP3   OH259553   0.619   0.641  14.147 -0.6238  0.1368  0.2221
12713TIP3    H159554   0.566   0.716  14.121  0.1185  0.0790 -1.5918
12713TIP3    H259555   0.699   0.681  14.184 -0.8289  0.2206  0.5842
12714TIP3   OH259556   0.804   4.021  11.009 -0.0708  0.2841 -0.3256
12714TIP3    H159557   0.874   3.955  11.008 -0.3497 -0.0266  0.0106
12714TIP3    H259558   0.762   4.013  10.923  1.1949  1.4651 -1.0957
12715TIP3   OH259559   4.904   5.811   1.561 -0.1911 -0.0856 -0.0644
12715TIP3    H159560   4.908   5.722   1.598 -1.1452 -0.6313 -1.2004
12715TIP3    H259561   4.991   5.847   1.578  0.7493 -1.7976 -0.8759
12716TIP3   OH259562   3.286   3.869   3.510 -0.2031  0.1032 -0.4488
12716TIP3    H159563   3.245   3.812   3.445  0.2557  0.1285 -0.7641
12716TIP3    H259564   3.361   3.907   3.465 -1.1602  1.8945 -0.6430
12717TIP3   OH259565   5.580   0.027   2.118  0.1535  0.0217 -0.4458
12717TIP3    H159566   5.546  -0.046   2.170 -1.3970 -0.5407 -2.1585
12717TIP3    H259567   5.608   0.092   2.183 -2.4200 -0.3186  1.1153
12718TIP3   OH259568   3.401   4.569   4.527  0.3579  0.2300  0.1676
12718TIP3    H159569   3.328   4.508   4.537  0.4272 -0.2577 -1.7816
12718TIP3    H259570   3.395   4.628   4.602  0.5906 -2.4422  2.4273
12719TIP3   OH259571   2.138   4.277  15.118 -0.0884 -0.0864  0.8662
12719TIP3    H159572   2.125   4.183  15.123  0.3089 -0.6873 -4.2532
12719TIP3    H259573   2.052   4.313  15.099  0.2832  0.0243 -0.7881
12720TIP3   OH259574   1.676   5.383  12.305  0.1502  0.3022  0.9961
12720TIP3    H159575   1.733   5.418  12.374 -0.9238  0.7639  1.6840
12720TIP3    H259576   1.706   5.426  12.225  0.6440  0.6740  1.3749
12721TIP3   OH259577   5.399   1.520  14.045  0.6331  0.4860 -0.4994
12721TIP3    H159578   5.315   1.490  14.012  0.0262  1.2745  0.2742
12721TIP3    H259579   5.377   1.594  14.103  2.0285  2.8499 -2.7479
12722TIP3   OH259580   0.096   1.384   0.462  0.6331  0.2303  0.2592
12722TIP3    H159581   0.034   1.456   0.445  1.3724  1.0792  1.0888
12722TIP3    H259582   0.172   1.405   0.408  0.2095 -0.8475 -0.8080
12723TIP3   OH259583   2.783   4.357  12.115 -0.1138 -0.1679 -0.0972
12723TIP3    H159584   2.787   4.449  12.087 -0.4934 -0.1667 -0.1449
12723TIP3    H259585   2.807   4.307  12.037 -0.3631 -0.1292 -0.1980
12724TIP3   OH259586   3.879   5.611   2.409 -0.2754 -0.3493 -0.2044
12724TIP3    H159587   3.923   5.676   2.354  0.5406  0.6212  1.4971
12724TIP3    H259588   3.810   5.661   2.454  0.5841 -0.5448  1.3939
12725TIP3   OH259589   1.065   3.050   3.356 -0.3627 -0.3370 -0.4765
12725TIP3    H159590   1.124   3.072   3.429 -1.9488  1.6019  0.3263
12725TIP3    H259591   0.988   3.011   3.398  0.1940 -2.6986 -1.4936
12726TIP3   OH259592   0.763   3.629  11.842  0.1170  0.4254  0.4626
12726TIP3    H159593   0.722   3.621  11.756 -0.8556 -0.9860  1.0151
12726TIP3    H259594   0.857   3.623  11.824 -0.0211  1.1308 -0.5853
12727TIP3   OH259595   6.346   1.237   2.281 -0.2291  0.0360 -0.1900
12727TIP3    H159596   6.328   1.150   2.246 -3.5884  0.7922 -0.7187
12727TIP3    H259597   6.264   1.285   2.268  0.7769  2.6212  2.0656
12728TIP3   OH259598   2.113   5.240   4.492 -0.3948  0.0576 -0.7497
12728TIP3    H159599   2.024   5.207   4.489 -1.1698  0.7381  4.4804
12728TIP3    H259600   2.128   5.278   4.405 -4.2940 -1.9592 -2.5689
12729TIP3   OH259601   2.814   1.611  14.725 -0.3354  0.3064 -0.0611
12729TIP3    H159602   2.809   1.607  14.820 -0.1166 -0.1350 -0.0660
12729TIP3    H259603   2.907   1.631  14.707 -0.6172  1.6712 -0.1505
12730TIP3   OH259604   0.374   2.192  14.105  0.3659  0.0544  0.7063
12730TIP3    H159605   0.310   2.226  14.168  1.5415  1.6396  1.1112
12730TIP3    H259606   0.369   2.252  14.031  1.3235  0.1479  0.7118
12731TIP3   OH259607   3.709   5.907  14.680 -0.2774  0.0332 -0.4318
12731TIP3    H159608   3.654   5.983  14.662 -2.6862 -1.5210 -0.1048
12731TIP3    H259609   3.649   5.832  14.680  1.8040 -1.7801  0.2299
12732TIP3   OH259610   1.159   0.446  16.630 -0.2633 -0.4582 -1.0649
12732TIP3    H159611   1.243   0.491  16.634  0.4949 -1.8778 -0.3445
12732TIP3    H259612   1.103   0.493  16.691  0.4768 -0.4216 -0.4117
12733TIP3   OH259613   2.652   4.004   0.634  0.0189 -0.1469 -0.0083
12733TIP3    H159614   2.681   3.953   0.558  0.9138 -0.6267  0.6230
12733TIP3    H259615   2.659   3.942   0.707 -2.6588 -0.2832  0.2093
12734TIP3   OH259616   0.588   4.097  11.962  0.0848 -0.3137 -0.2985
12734TIP3    H159617   0.658   4.045  12.002  0.4743  1.5704  1.6167
12734TIP3    H259618   0.508   4.058  11.997  0.1730 -1.6806 -1.5141
12735TIP3   OH259619   6.133   3.861   1.346  0.3575 -0.0104 -0.0084
12735TIP3    H159620   6.197   3.794   1.368  0.0950 -0.1879  0.2159
12735TIP3    H259621   6.116   3.849   1.253 -0.2262 -0.7205  0.1854
12736TIP3   OH259622   1.305   5.065   4.854  0.5411  0.0405  0.3728
12736TIP3    H159623   1.213   5.040   4.850  0.4588 -0.2316  2.6304
12736TIP3    H259624   1.353   4.987   4.826  0.1295  0.5628 -2.0295
12737TIP3   OH259625   3.700   2.624   4.906 -0.3184 -0.4135 -0.3903
12737TIP3    H159626   3.714   2.555   4.970  0.6568  0.5658  0.4969
12737TIP3    H259627   3.696   2.579   4.821 -0.7600 -1.6346  0.2649
12738TIP3   OH259628   1.185   4.168   6.105  0.0378  0.2956  0.3534
12738TIP3    H159629   1.150   4.157   6.194 -0.0251  1.5315  0.4929
12738TIP3    H259630   1.280   4.160   6.116  0.0598  0.8458  0.6093
12739TIP3   OH259631   0.060   2.358   2.610  0.2581 -0.2014 -0.0679
12739TIP3    H159632   0.027   2.412   2.538 -0.2245 -0.8617 -0.3465
12739TIP3    H259633   0.155   2.369   2.607  0.2087  0.1232 -0.5276
12740TIP3   OH259634   3.118   5.685  14.626  0.0060  0.1751  0.2498
12740TIP3    H159635   3.080   5.599  14.608  0.1704  0.0526  0.4785
12740TIP3    H259636   3.126   5.687  14.722  1.3537 -0.1414  0.1607
12741TIP3   OH259637   6.696   2.611   2.849 -0.4242 -0.8349 -0.1350
12741TIP3    H159638   6.684   2.701   2.879 -0.4729  0.0527 -2.6156
12741TIP3    H259639   6.607   2.577   2.837 -0.4125 -0.7026 -0.6050
12742TIP3   OH259640   6.508   6.735   4.130  0.3386 -0.0500  0.2999
12742TIP3    H159641   6.442   6.667   4.121  1.0913 -0.8454  0.5936
12742TIP3    H259642   6.513   6.753   4.224  0.9522 -0.4242  0.3430
12743TIP3   OH259643   5.095   2.725  13.750  0.3688 -0.0234  0.6899
12743TIP3    H159644   5.037   2.655  13.781 -0.4990 -0.5692 -1.8699
12743TIP3    H259645   5.038   2.801  13.741  0.3397 -0.1687 -0.4927
12744TIP3   OH259646   4.165   2.865   0.997  0.1874  0.1932 -0.1169
12744TIP3    H159647   4.150   2.816   0.916  1.0897  0.1156 -0.2394
12744TIP3    H259648   4.097   2.933   0.996 -1.6582 -1.5239  0.4730
12745TIP3   OH259649   6.497   6.416  11.973  0.5024 -0.2909  0.3020
12745TIP3    H159650   6.524   6.367  12.050  0.7349  0.2733  0.5804
12745TIP3    H259651   6.527   6.362  11.899 -0.4034 -1.2161  0.5823
12746TIP3   OH259652   5.623   2.252  12.022  0.3355  0.3798  0.3528
12746TIP3    H159653   5.714   2.260  12.051 -0.0090  0.6401  1.4011
12746TIP3    H259654   5.575   2.227  12.101 -0.3866 -0.5564 -0.3608
12747TIP3   OH259655   4.383   1.419   0.532  0.0330 -0.0164  0.3321
12747TIP3    H159656   4.367   1.433   0.625  0.0074 -0.1200  0.3429
12747TIP3    H259657   4.478   1.413   0.524  0.0371  0.0313  0.3461
12748TIP3   OH259658   1.376   6.413   4.021  0.1701  0.3363  0.1501
12748TIP3    H159659   1.334   6.366   4.093 -0.8651 -2.4073 -2.1042
12748TIP3    H259660   1.428   6.348   3.976  0.9846  2.0271 -1.4926
12749TIP3   OH259661   2.880   3.108  14.625  0.3291 -0.0444  0.0537
12749TIP3    H159662   2.840   3.028  14.659 -0.8311  0.4408 -0.1128
12749TIP3    H259663   2.843   3.178  14.680  0.3863  0.4897 -0.5730
12750TIP3   OH259664   1.234   4.318   0.106  0.1351  0.2506  0.4339
12750TIP3    H159665   1.165   4.371   0.065  0.3372 -1.2980 -2.1207
12750TIP3    H259666   1.210   4.227   0.085  3.0207 -0.3377 -0.7203
12751TIP3   OH259667   0.665   4.140   5.476  0.9819  0.1378  0.0034
12751TIP3    H159668   0.668   4.099   5.563  0.3699  0.8723  0.3776
12751TIP3    H259669   0.726   4.213   5.483 -0.5585  1.4399  0.4891
12752TIP3   OH259670   5.770   2.498  14.852 -0.0865  0.0124 -0.4158
12752TIP3    H159671   5.752   2.405  14.866  1.7378  0.0475  3.3565
12752TIP3    H259672   5.846   2.500  14.794 -0.9079 -0.7173 -1.5723
12753TIP3   OH259673   0.104   4.315   5.928  0.3286  0.2973  0.1002
12753TIP3    H159674   0.040   4.292   5.861  0.7890  0.3523 -0.3686
12753TIP3    H259675   0.054   4.319   6.009 -0.1139 -0.4262 -0.1304
12754TIP3   OH259676   6.669   3.456  15.252  0.3808  0.3842 -0.4089
12754TIP3    H159677   6.642   3.370  15.284  0.4781  0.2721 -0.6255
12754TIP3    H259678   6.673   3.446  15.157 -0.3774  0.8466 -0.4983
12755TIP3   OH259679   6.619   6.655  11.856 -0.4490 -1.0918  0.2551
12755TIP3    H159680   6.670   6.604  11.794  0.5981 -0.4881  0.6019
12755TIP3    H259681   6.579   6.590  11.914 -0.4802 -1.5919 -0.3229
12756TIP3   OH259682   0.760   5.309   1.586  0.1403  0.1852 -0.0802
12756TIP3    H159683   0.684   5.273   1.540  1.2446 -0.2110 -1.6815
12756TIP3    H259684   0.725   5.380   1.639 -1.5765 -1.0373  0.5068
12757TIP3   OH259685   0.504   1.207   6.356  0.2739  0.1152  0.0044
12757TIP3    H159686   0.554   1.134   6.318 -2.1203 -0.7366 -1.7253
12757TIP3    H259687   0.500   1.186   6.449  0.5705 -1.4056 -0.2857
12758TIP3   OH259688   4.732   3.620  16.157 -0.1631 -0.1040 -0.5601
12758TIP3    H159689   4.733   3.556  16.085  1.3990 -0.2905 -0.4007
12758TIP3    H259690   4.735   3.567  16.236  1.7388  0.1348 -0.4338
12759TIP3   OH259691   4.015   6.055   1.217  0.5182 -0.0562 -0.1614
12759TIP3    H159692   4.089   6.112   1.241 -0.3733  0.4785  1.4673
12759TIP3    H259693   4.021   6.047   1.122  2.4162  0.3210 -0.1159
12760TIP3   OH259694   3.987   0.533   3.340  0.0840  0.2272 -0.3106
12760TIP3    H159695   4.064   0.540   3.283  0.6823 -0.4837  0.3945
12760TIP3    H259696   4.022   0.536   3.429 -0.8805  1.8848  0.0768
12761TIP3   OH259697   4.431   1.846   2.164 -0.2783 -0.1039  0.6844
12761TIP3    H159698   4.478   1.928   2.149  1.9573 -1.2896  0.8142
12761TIP3    H259699   4.339   1.872   2.170  0.2204  2.2296 -0.4937
12762TIP3   OH259700   1.974   1.838  11.564 -0.2629  0.5804 -0.3086
12762TIP3    H159701   1.987   1.745  11.585 -1.1032  0.4854 -0.1627
12762TIP3    H259702   1.980   1.883  11.647  0.7357  0.7395 -0.4547
12763TIP3   OH259703   0.908   0.995  14.964  0.0784  0.3350  0.3547
12763TIP3    H159704   0.846   0.923  14.950 -0.8563  0.2107  4.0987
12763TIP3    H259705   0.864   1.073  14.931 -1.4345 -0.0033  1.4980
12764TIP3   OH259706   3.762   6.197   2.245 -0.2242  0.3926  0.1106
12764TIP3    H159707   3.848   6.201   2.203  0.7945 -2.4503  1.6307
12764TIP3    H259708   3.772   6.250   2.324  0.4891 -0.6840  0.7653
12765TIP3   OH259709   2.223   5.793  13.883  0.4163  0.7975  0.8559
12765TIP3    H159710   2.278   5.744  13.945  0.8660 -0.3140 -0.3686
12765TIP3    H259711   2.134   5.768  13.905  0.6877 -1.9439 -0.7549
12766TIP3   OH259712   1.540   5.961  11.563 -0.3100  0.4040  0.3276
12766TIP3    H159713   1.587   6.041  11.540 -0.8562  1.1005  1.5329
12766TIP3    H259714   1.608   5.895  11.574  0.2170  0.9196  0.1935
12767TIP3   OH259715   5.440   5.388   1.677 -0.1716  0.6141  0.0396
12767TIP3    H159716   5.359   5.405   1.628  0.1830  1.5865 -0.2261
12767TIP3    H259717   5.458   5.296   1.659 -1.2010  0.3851  0.0804
12768TIP3   OH259718   2.829   5.104  15.550 -0.0539 -0.4279  0.1841
12768TIP3    H159719   2.865   5.058  15.475 -0.4872 -1.5926  0.6746
12768TIP3    H259720   2.797   5.187  15.514 -1.7414 -1.6179 -1.2559
12769TIP3   OH259721   1.669   2.770   2.566  0.7738  0.5288 -0.3645
12769TIP3    H159722   1.733   2.707   2.599 -1.4524 -0.2541  2.8473
12769TIP3    H259723   1.690   2.851   2.614 -2.0923 -0.4498  2.9372
12770TIP3   OH259724   4.192   4.181   4.168 -0.0070  0.0562  0.0408
12770TIP3    H159725   4.235   4.112   4.117 -1.0286 -0.4870 -0.1020
12770TIP3    H259726   4.207   4.261   4.117  1.4384  0.0222  0.3559
12771TIP3   OH259727   5.630   5.301   5.668  0.2134 -0.1044 -0.5122
12771TIP3    H159728   5.597   5.211   5.675  0.4452 -0.2581 -1.2837
12771TIP3    H259729   5.654   5.325   5.757  0.7742 -1.0486 -0.3960
12772TIP3   OH259730   4.785   3.842  16.987  0.8391  1.3803 -0.1859
12772TIP3    H159731   4.805   3.756  17.025 -0.5357 -0.1975 -2.7213
12772TIP3    H259732   4.719   3.879  17.045 -2.0478 -1.4462 -1.3430
12773TIP3   OH259733   6.262   5.613   4.681  0.5277 -0.7072 -0.1793
12773TIP3    H159734   6.191   5.648   4.626  1.9881 -0.0856 -1.7680
12773TIP3    H259735   6.328   5.683   4.681  1.2214 -1.3415  1.0977
12774TIP3   OH259736   0.813   4.531   4.475  0.0288  0.0738 -0.1018
12774TIP3    H159737   0.866   4.452   4.485 -0.1945 -0.0177  0.3947
12774TIP3    H259738   0.803   4.565   4.564  1.3491  1.4975 -0.4441
12775TIP3   OH259739   2.623   3.434  16.328 -0.3723 -0.2666 -0.4718
12775TIP3    H159740   2.560   3.382  16.379 -0.1224 -1.1808 -1.0709
12775TIP3    H259741   2.601   3.414  16.237  0.0573  0.2938 -0.6988
12776TIP3   OH259742   6.408   5.217   5.998 -0.2391  0.1419 -0.4810
12776TIP3    H159743   6.439   5.132   5.967 -1.7633 -0.3775 -0.6778
12776TIP3    H259744   6.390   5.267   5.918 -2.1530 -0.4453 -0.4852
12777TIP3   OH259745   2.140   4.850  11.957  0.2781  0.4854 -0.2212
12777TIP3    H159746   2.139   4.923  11.894  0.3102 -0.4880 -1.3854
12777TIP3    H259747   2.050   4.819  11.959  0.0202  1.2777  1.1601
12778TIP3   OH259748   5.172   5.497  16.143 -0.1123  0.0052 -0.3461
12778TIP3    H159749   5.106   5.482  16.075 -0.6047  0.4737  0.0225
12778TIP3    H259750   5.232   5.560  16.104 -1.1092  1.2856  0.0865
12779TIP3   OH259751   5.313   5.255  11.833  0.1180 -0.0873  0.5007
12779TIP3    H159752   5.262   5.177  11.857 -0.3729  0.5734  1.7186
12779TIP3    H259753   5.257   5.301  11.770 -0.6879  0.4596  1.5746
12780TIP3   OH259754   2.059   2.185  15.605 -0.3333 -0.2694 -0.6736
12780TIP3    H159755   2.025   2.261  15.558 -0.0108 -0.1119 -0.6518
12780TIP3    H259756   2.154   2.193  15.600 -0.2824 -0.0155  0.3838
12781TIP3   OH259757   4.679   2.737  12.183 -0.5187 -0.0481  0.1082
12781TIP3    H159758   4.766   2.749  12.220 -0.8593  0.6595  0.7022
12781TIP3    H259759   4.640   2.665  12.233  0.1476 -1.1968 -0.9611
12782TIP3   OH259760   1.291   2.370  15.337  0.0829 -0.4432  0.3451
12782TIP3    H159761   1.263   2.350  15.427  0.5656  1.0944  0.8657
12782TIP3    H259762   1.385   2.387  15.345 -0.3148  2.2802  0.0538
12783TIP3   OH259763   3.222   0.804  15.731  0.6298 -0.4261 -0.5143
12783TIP3    H159764   3.217   0.899  15.726  4.0269 -0.1374 -0.6995
12783TIP3    H259765   3.176   0.782  15.813 -0.6396  1.2547 -0.7172
12784TIP3   OH259766   2.654   6.434   4.148  0.7477  0.6586  0.4337
12784TIP3    H159767   2.634   6.527   4.139  0.2618  0.5235  0.0984
12784TIP3    H259768   2.586   6.400   4.206 -0.3220  0.1020 -1.0862
12785TIP3   OH259769   6.107   4.374   5.504  0.3966 -0.6128 -0.1190
12785TIP3    H159770   6.150   4.366   5.419  0.2870 -0.1624 -0.2224
12785TIP3    H259771   6.147   4.306   5.558  0.6988 -0.6887 -0.4354
12786TIP3   OH259772   2.998   0.227   5.655  0.1621 -0.0632  0.0266
12786TIP3    H159773   2.963   0.139   5.669 -0.9346  0.2763 -0.4276
12786TIP3    H259774   3.000   0.237   5.560 -2.3914  1.3785  0.0411
12787TIP3   OH259775   3.975   6.401  14.697  0.1346  0.3040 -0.3550
12787TIP3    H159776   3.978   6.351  14.615 -1.0993 -1.0232  0.3611
12787TIP3    H259777   3.914   6.472  14.679  0.6994  0.6523 -0.9132
12788TIP3   OH259778   4.668   4.593  12.610  0.4821 -0.4489 -1.0856
12788TIP3    H159779   4.669   4.522  12.545  0.0079 -0.9733 -0.5324
12788TIP3    H259780   4.594   4.648  12.584  1.4114  0.3826 -2.0634
12789TIP3   OH259781   5.168   6.066   4.698 -0.1121 -0.0919  0.1144
12789TIP3    H159782   5.169   6.059   4.603  1.7264 -0.9004  0.1433
12789TIP3    H259783   5.124   5.986   4.727  1.1974 -0.8962 -0.0422
12790TIP3   OH259784   5.253   1.067  12.220  0.6606  0.1645  0.4186
12790TIP3    H159785   5.286   1.149  12.182 -1.0391 -0.0579 -1.8066
12790TIP3    H259786   5.158   1.076  12.216  0.3606 -0.4877  3.5905
12791TIP3   OH259787   5.915   3.558  12.163 -0.3077  0.5534  0.5530
12791TIP3    H159788   5.893   3.512  12.082 -0.0759  2.1780 -0.4829
12791TIP3    H259789   6.010   3.560  12.164 -0.2353 -1.2781  1.9812
12792TIP3   OH259790   3.106   6.020   6.225 -0.4652  0.0447  0.3210
12792TIP3    H159791   3.196   6.033   6.197 -0.0049 -0.7601  1.3353
12792TIP3    H259792   3.078   6.105   6.259 -0.8092  0.8460 -1.8225
12793TIP3   OH259793   1.849   1.005  15.283 -0.5492  0.0930 -0.0412
12793TIP3    H159794   1.879   1.094  15.298 -0.1926 -0.2833  1.8147
12793TIP3    H259795   1.901   0.974  15.209 -2.6366  2.2574 -2.6152
12794TIP3   OH259796   3.861   1.464   1.606 -0.9866  0.2621 -0.4095
12794TIP3    H159797   3.923   1.390   1.606 -1.5255 -0.1982  0.2719
12794TIP3    H259798   3.917   1.541   1.601 -0.3618 -0.1547 -0.0745
12795TIP3   OH259799   4.337   1.151   2.366 -0.0756  0.1482  0.0523
12795TIP3    H159800   4.304   1.219   2.307 -0.8030  1.0559  1.4504
12795TIP3    H259801   4.296   1.071   2.336 -0.7129  0.6538 -0.4603
12796TIP3   OH259802   5.457   5.728  15.324  0.2815  0.0394 -0.3773
12796TIP3    H159803   5.493   5.782  15.254 -0.2510  0.8725 -0.0167
12796TIP3    H259804   5.367   5.711  15.298 -0.8197  2.6543  1.3498
12797TIP3   OH259805   5.362   5.460  13.522 -0.2104 -0.6790  0.1082
12797TIP3    H159806   5.427   5.392  13.538  1.1996  0.7028  0.6249
12797TIP3    H259807   5.406   5.541  13.548 -2.5220  0.2406  1.5090
12798TIP3   OH259808   5.016   0.310  14.677 -0.1838 -0.2378  0.1906
12798TIP3    H159809   5.082   0.314  14.746 -0.2035  0.4320  0.1747
12798TIP3    H259810   5.027   0.392  14.629  0.0276 -0.8153 -0.7849
12799TIP3   OH259811   6.211   5.590   5.197  0.1122  0.3863  0.0407
12799TIP3    H159812   6.284   5.597   5.259  0.2239  0.2640 -0.0742
12799TIP3    H259813   6.162   5.513   5.226  0.9364 -0.4932 -0.8122
12800TIP3   OH259814   1.803   1.771   5.457 -0.5473  0.3642  0.2379
12800TIP3    H159815   1.736   1.785   5.390  0.9160 -0.1274 -1.3850
12800TIP3    H259816   1.854   1.852   5.457  0.9983 -0.5612 -1.0923
12801TIP3   OH259817   1.207   1.807  14.883 -0.8921  0.0535 -0.3239
12801TIP3    H159818   1.239   1.824  14.795 -1.3701 -2.8340 -1.1443
12801TIP3    H259819   1.136   1.870  14.896 -0.0882  1.2535 -1.5271
12802TIP3   OH259820   2.555   6.264   2.894  0.0045  0.2995 -0.4099
12802TIP3    H159821   2.639   6.231   2.863 -0.0333  1.1025 -1.4307
12802TIP3    H259822   2.490   6.208   2.851  0.0054 -0.0862  0.0876
12803TIP3   OH259823   3.110   5.318   4.209 -0.1160 -0.6918  0.3608
12803TIP3    H159824   3.080   5.330   4.119 -1.5507 -1.2924  0.7409
12803TIP3    H259825   3.203   5.293   4.199 -0.0573 -0.0587 -0.8983
12804TIP3   OH259826   1.848   1.568   4.356 -0.0186 -0.6256 -0.1857
12804TIP3    H159827   1.762   1.570   4.314  0.9691  0.6730 -2.3077
12804TIP3    H259828   1.889   1.488   4.323 -0.0964 -0.7984  0.1381
12805TIP3   OH259829   4.184   4.274  13.817 -0.3989  0.4033  0.1657
12805TIP3    H159830   4.137   4.227  13.748  0.7205 -0.5007 -0.0160
12805TIP3    H259831   4.271   4.289  13.781 -0.1919  1.0734  0.9052
12806TIP3   OH259832   3.947   3.552   0.567 -0.0664 -0.5402 -0.3155
12806TIP3    H159833   4.017   3.569   0.630 -1.6372 -0.9473  1.6415
12806TIP3    H259834   3.932   3.637   0.525  2.5958 -0.7752 -1.9636
12807TIP3   OH259835   0.109   2.666  16.601  0.1575  0.5562 -0.1369
12807TIP3    H159836   0.175   2.620  16.549 -0.6408  1.1357 -1.7592
12807TIP3    H259837   0.146   2.670  16.689  2.0784  0.4762 -0.8886
12808TIP3   OH259838   5.888   4.647  12.692  0.5002 -0.4304  0.0029
12808TIP3    H159839   5.829   4.690  12.631 -0.5404  0.9771  1.8921
12808TIP3    H259840   5.831   4.613  12.761  1.7395 -0.5451  1.0179
12809TIP3   OH259841   3.634   6.619   0.208  0.1548 -0.1356  0.2660
12809TIP3    H159842   3.719   6.585   0.181 -0.0576 -0.5707  0.1308
12809TIP3    H259843   3.609   6.564   0.283  0.1143  0.1619  0.4702
12810TIP3   OH259844   0.389   5.278   0.237  0.0886 -0.1332  0.4933
12810TIP3    H159845   0.360   5.369   0.237 -0.2571 -0.2424  0.3367
12810TIP3    H259846   0.478   5.281   0.201  0.4253  0.2503  1.3200
12811TIP3   OH259847   3.906   3.783   5.257  0.8328 -0.0898 -0.3471
12811TIP3    H159848   3.973   3.852   5.256 -0.7995  1.5992  0.2963
12811TIP3    H259849   3.845   3.811   5.325 -0.1994 -1.9189 -0.4596
12812TIP3   OH259850   4.441   3.953   0.263  0.0962 -0.2592 -0.2395
12812TIP3    H159851   4.432   4.047   0.247 -1.7101 -0.2630  0.5557
12812TIP3    H259852   4.393   3.912   0.191 -0.8329 -0.5005  0.5038
12813TIP3   OH259853   5.744   0.055  14.264 -0.5438 -0.0860 -0.6664
12813TIP3    H159854   5.687   0.116  14.217  0.1058  2.0713  1.1728
12813TIP3    H259855   5.821   0.107  14.286 -0.7156 -1.0041  2.5865
12814TIP3   OH259856   4.873   1.449   3.831  0.7556 -0.6127  0.5623
12814TIP3    H159857   4.830   1.365   3.845  0.2296 -0.7077 -1.3163
12814TIP3    H259858   4.801   1.512   3.828  0.6289 -0.7498 -2.4261
12815TIP3   OH259859   5.178   2.231   1.558 -0.4230 -0.2138 -0.5545
12815TIP3    H159860   5.204   2.158   1.614 -1.5460  0.3801  0.8061
12815TIP3    H259861   5.093   2.258   1.592  0.1177  1.9567 -0.7775
12816TIP3   OH259862   3.701   0.386   2.901  0.1116  0.1055  0.1759
12816TIP3    H159863   3.626   0.325   2.899  1.7646 -2.0377 -0.8584
12816TIP3    H259864   3.736   0.378   2.989  0.4906 -0.6967 -0.0396
12817TIP3   OH259865   0.021   1.839  13.300  0.0539  0.1169  0.0076
12817TIP3    H159866   0.112   1.823  13.326  0.6658  2.6913 -0.2642
12817TIP3    H259867  -0.029   1.835  13.382  0.4128 -1.1665  0.1791
12818TIP3   OH259868   3.701   6.304  12.987 -0.2359 -0.3520  0.5705
12818TIP3    H159869   3.725   6.278  13.076 -0.2567  0.9600  0.9732
12818TIP3    H259870   3.632   6.370  12.999  0.1858  0.2772 -0.3866
12819TIP3   OH259871   1.133   2.069  11.235  0.4005 -0.4277  0.5700
12819TIP3    H159872   1.211   2.081  11.181 -0.6983  0.3301 -0.9377
12819TIP3    H259873   1.144   2.131  11.307  0.2377  1.2526 -0.7952
12820TIP3   OH259874   0.569   4.655   1.729  0.2234  0.1776  0.0644
12820TIP3    H159875   0.524   4.705   1.797 -0.1319 -0.6648  0.4740
12820TIP3    H259876   0.662   4.664   1.750  0.0715 -1.5547  1.7999
12821TIP3   OH259877   0.381   3.237   2.350  0.6485 -0.2516  0.0455
12821TIP3    H159878   0.401   3.163   2.408  2.6131  0.9855  1.0467
12821TIP3    H259879   0.303   3.277   2.389  2.1280  0.7597  2.1319
12822TIP3   OH259880   2.308   3.450  15.777  0.5877  0.8720  0.0697
12822TIP3    H159881   2.285   3.369  15.823  3.1520  1.0586  1.8847
12822TIP3    H259882   2.346   3.421  15.695  1.6210  0.1845  0.7640
12823TIP3   OH259883   6.696   2.477  16.560 -0.2207 -0.0811 -0.0135
12823TIP3    H159884   6.687   2.437  16.647  1.6085 -1.2179 -0.3012
12823TIP3    H259885   6.765   2.542  16.571  1.2598 -1.4211 -0.9474
12824TIP3   OH259886   0.241   4.494   2.012  0.8722  0.2252  0.3942
12824TIP3    H159887   0.265   4.570   2.065  1.1870 -0.0170  0.6017
12824TIP3    H259888   0.183   4.443   2.069 -2.7955  2.3091 -1.1086
12825TIP3   OH259889   1.289   6.500  12.007 -0.6850 -0.4094 -0.1038
12825TIP3    H159890   1.264   6.430  12.068 -3.6666  0.1228 -0.5734
12825TIP3    H259891   1.268   6.464  11.921  0.5970 -0.0017 -0.6088
12826TIP3   OH259892   0.064   1.826  15.369  0.1041 -0.0148  0.8568
12826TIP3    H159893   0.005   1.881  15.316 -0.8383 -1.9347 -0.2185
12826TIP3    H259894   0.008   1.792  15.439  0.3139 -0.6695  0.7120
12827TIP3   OH259895   4.162   4.649   3.655 -0.2377 -0.5301  0.4115
12827TIP3    H159896   4.087   4.674   3.602  0.5710 -1.2316 -1.1445
12827TIP3    H259897   4.184   4.727   3.705 -1.6875 -0.1740  0.5440
12828TIP3   OH259898   2.500   4.936   3.199 -0.0713  0.2671  0.3282
12828TIP3    H159899   2.519   4.979   3.283 -0.3001  1.3298 -0.1465
12828TIP3    H259900   2.407   4.951   3.185 -0.4020 -1.3078  0.6320
12829TIP3   OH259901   4.949   0.154  12.334  0.2094  0.6237 -0.6616
12829TIP3    H159902   4.979   0.243  12.316  0.6068  0.7084  0.3689
12829TIP3    H259903   4.944   0.149  12.430  0.4587 -0.5498 -0.6965
12830TIP3   OH259904   3.513   6.142  13.555  0.0573 -0.2771 -0.8515
12830TIP3    H159905   3.552   6.055  13.546  0.1838 -0.2295 -0.7753
12830TIP3    H259906   3.442   6.130  13.617  0.0092 -0.3472 -0.9205
12831TIP3   OH259907   3.273   1.698   4.985 -0.1016  0.2675  0.5791
12831TIP3    H159908   3.328   1.760   4.938  1.4411  0.1741  2.1564
12831TIP3    H259909   3.227   1.650   4.916  2.9563 -0.6990 -0.9685
12832TIP3   OH259910   4.733   1.929  15.053 -0.1271 -0.7975  1.0739
12832TIP3    H159911   4.768   1.936  14.964 -1.5899  2.0505  0.6337
12832TIP3    H259912   4.749   1.837  15.077  2.7569 -1.0001 -1.0331
12833TIP3   OH259913   6.368   5.212  11.389  0.9793  0.1433  0.0743
12833TIP3    H159914   6.324   5.168  11.317 -0.0838 -2.2683  2.0360
12833TIP3    H259915   6.441   5.258  11.348  2.8987 -4.2798 -2.2135
12834TIP3   OH259916   5.953   2.321   3.481 -0.2074 -0.0147 -0.2952
12834TIP3    H159917   5.893   2.272   3.538  1.1022 -1.6158 -0.2179
12834TIP3    H259918   5.992   2.387   3.538 -1.0719  0.3346 -0.0863
12835TIP3   OH259919   4.923   1.486   5.298  0.2193 -0.2739  0.5729
12835TIP3    H159920   5.015   1.471   5.276  0.1268 -0.2834  0.1898
12835TIP3    H259921   4.877   1.408   5.266 -0.1792  0.5180 -0.8833
12836TIP3   OH259922   4.252   4.886  12.601 -0.8430  0.4002 -0.4796
12836TIP3    H159923   4.194   4.937  12.544 -3.1258  0.0323  1.3738
12836TIP3    H259924   4.227   4.912  12.689  0.3481 -1.4026  0.4408
12837TIP3   OH259925   4.728   6.164  15.457  0.2902  0.1987 -0.1611
12837TIP3    H159926   4.795   6.203  15.401  1.6076 -0.9389  0.5583
12837TIP3    H259927   4.651   6.156  15.401  1.1685  0.2969 -1.4062
12838TIP3   OH259928   2.695   5.222   3.133  0.3061 -0.2586 -0.3129
12838TIP3    H159929   2.650   5.298   3.097  0.4232  0.5781  1.1965
12838TIP3    H259930   2.769   5.259   3.181  0.1504 -1.2855  0.7670
12839TIP3   OH259931   1.780   6.754  11.635  0.0676 -0.2599 -0.5779
12839TIP3    H159932   1.739   6.668  11.629  0.8296 -0.6533 -0.2820
12839TIP3    H259933   1.745   6.791  11.716 -1.4691  0.3807 -1.4805
12840TIP3   OH259934   2.363   1.486  12.183 -0.3369 -0.2287 -0.0310
12840TIP3    H159935   2.447   1.525  12.160 -0.6476  1.0206  0.8985
12840TIP3    H259936   2.359   1.406  12.130 -0.1735  1.4949 -2.8360
12841TIP3   OH259937   6.391   2.284  11.936  0.3551 -0.1689 -0.7950
12841TIP3    H159938   6.432   2.370  11.952 -0.4814  0.0847  0.0832
12841TIP3    H259939   6.311   2.305  11.889  0.9382 -0.6213 -2.0211
12842TIP3   OH259940   2.987   1.008  13.540 -0.4220  0.1697  0.3478
12842TIP3    H159941   3.064   1.060  13.516 -0.4792 -0.3859 -1.1275
12842TIP3    H259942   2.983   1.015  13.635  1.3189  0.3959  0.4424
12843TIP3   OH259943   4.170   1.653  16.874  0.7903  0.3016  0.4539
12843TIP3    H159944   4.153   1.708  16.950 -0.9788  0.8347 -0.2683
12843TIP3    H259945   4.219   1.579  16.908  1.5432  1.3708  1.7897
12844TIP3   OH259946   5.417   4.860   1.414 -0.0481 -0.0647  0.0711
12844TIP3    H159947   5.394   4.913   1.338 -0.8331 -0.3407  0.1073
12844TIP3    H259948   5.502   4.821   1.392  0.5178  1.1457  0.0200
12845TIP3   OH259949   2.929   0.198   2.334  0.0039 -0.2298 -0.5226
12845TIP3    H159950   2.870   0.273   2.339  1.8425  1.1979  1.7472
12845TIP3    H259951   2.896   0.137   2.400 -1.0949 -1.2094 -1.9075
12846TIP3   OH259952   1.832   4.467   4.760 -0.1401 -0.0199  0.0138
12846TIP3    H159953   1.806   4.511   4.679  2.6832  1.4521 -0.2211
12846TIP3    H259954   1.923   4.443   4.745 -0.1140 -1.4120  2.1027
12847TIP3   OH259955   4.725   3.690  12.777 -0.6964 -0.5311 -0.1246
12847TIP3    H159956   4.769   3.626  12.720 -0.2656 -0.1486 -0.2253
12847TIP3    H259957   4.790   3.710  12.844  0.1649  1.7248 -1.5229
12848TIP3   OH259958   3.136   1.711   0.909 -0.2528  0.0345  0.4979
12848TIP3    H159959   3.140   1.707   1.004 -0.3369  0.2122  0.5096
12848TIP3    H259960   3.044   1.724   0.889 -0.0682  1.3753  0.4497
12849TIP3   OH259961   3.235   2.926   5.862 -0.1280 -0.4897 -0.5055
12849TIP3    H159962   3.321   2.884   5.861  0.9479  1.2315  2.7809
12849TIP3    H259963   3.252   3.015   5.829 -0.9909 -0.5536 -1.1647
12850TIP3   OH259964   1.084   3.361  13.296  0.6823  0.7699 -0.1354
12850TIP3    H159965   1.130   3.278  13.309 -0.3073  0.4095  1.3006
12850TIP3    H259966   1.152   3.422  13.268  2.1873  0.3917  2.4139
12851TIP3   OH259967   0.215   4.521  14.691  0.0580 -0.1943  0.0574
12851TIP3    H159968   0.292   4.511  14.747 -0.5499  2.0811  1.4685
12851TIP3    H259969   0.141   4.496  14.748 -0.5657  2.1072  0.3998
12852TIP3   OH259970   3.059   4.431  14.487 -0.7421  0.4320 -0.1316
12852TIP3    H159971   2.984   4.432  14.546  0.7615  1.8942  1.8826
12852TIP3    H259972   3.097   4.518  14.496  1.1174 -0.2222 -1.2172
12853TIP3   OH259973   4.978   6.079   3.542 -0.6235 -0.0917 -0.0732
12853TIP3    H159974   4.959   6.172   3.531 -0.0241 -0.1358 -1.7955
12853TIP3    H259975   4.897   6.041   3.574 -1.3349  0.7952 -0.7879
12854TIP3   OH259976   1.022   2.541   4.159 -0.4658 -0.2248  0.4502
12854TIP3    H159977   0.941   2.518   4.204 -0.1570  0.1184  1.1938
12854TIP3    H259978   1.059   2.613   4.210  0.9036 -1.1518  0.8280
12855TIP3   OH259979   2.049   0.411  15.564  0.0320 -0.5493  0.2683
12855TIP3    H159980   2.027   0.501  15.540  0.0792 -0.8664 -1.0585
12855TIP3    H259981   1.987   0.357  15.514 -0.4991 -1.2442  1.6294
12856TIP3   OH259982   1.729   1.174   5.152  0.5129 -0.1707  0.0176
12856TIP3    H159983   1.741   1.150   5.060  0.4330 -0.2388  0.0241
12856TIP3    H259984   1.810   1.146   5.195  1.3230  1.4856 -0.3402
12857TIP3   OH259985   4.227   1.738  12.669  0.1373  0.2755  0.1603
12857TIP3    H159986   4.298   1.803  12.675  0.2721  0.2431 -0.7820
12857TIP3    H259987   4.188   1.736  12.756  1.7308 -0.2013  0.9059
12858TIP3   OH259988   4.574   4.617  16.366  0.6949 -1.0371  0.1279
12858TIP3    H159989   4.584   4.530  16.404  1.1499  0.0983  2.8069
12858TIP3    H259990   4.658   4.634  16.322  0.3953 -2.1139 -0.9258
12859TIP3   OH259991   2.941   5.177  11.370  0.1537 -0.6382 -0.1518
12859TIP3    H159992   2.852   5.154  11.397  0.6060 -1.9790  0.3205
12859TIP3    H259993   2.949   5.270  11.389 -0.1077 -1.1278  2.9551
12860TIP3   OH259994   1.076   2.671   4.900 -0.1138 -0.2842 -0.0903
12860TIP3    H159995   1.060   2.763   4.918 -1.3175 -0.0966 -1.9080
12860TIP3    H259996   1.008   2.625   4.949 -0.7904 -0.0508 -0.7910
12861TIP3   OH259997   6.324   4.605  14.681  0.1221  0.2634  0.0020
12861TIP3    H159998   6.277   4.534  14.637 -0.1138 -0.1123  0.8473
12861TIP3    H259999   6.367   4.653  14.610 -0.1543 -0.4032 -0.6237
12862TIP3   OH260000   1.662   1.229  11.763  0.3257  0.4195  0.0304
12862TIP3    H160001   1.580   1.270  11.793  0.1601  0.4366 -0.4370
12862TIP3    H260002   1.711   1.213  11.843 -0.9040 -1.2730  0.5154
12863TIP3   OH260003   6.182   6.558   2.965 -0.3865  0.5630  0.2531
12863TIP3    H160004   6.230   6.570   3.047 -0.5324  1.6447  0.1909
12863TIP3    H260005   6.139   6.642   2.950  1.0200  0.9762 -1.8309
12864TIP3   OH260006   3.746   3.371   4.298  0.4453  0.1385  0.4098
12864TIP3    H160007   3.821   3.323   4.262  0.7158  1.4981 -0.9208
12864TIP3    H260008   3.771   3.390   4.389  0.7778 -1.2703  0.6359
12865TIP3   OH260009   2.952   2.974   3.679  0.2699  0.2954 -0.0004
12865TIP3    H160010   2.904   2.975   3.762 -0.9351  0.1682 -0.6745
12865TIP3    H260011   2.937   2.886   3.645  1.0595  0.2315 -0.1950
12866TIP3   OH260012   3.304   3.528   4.858  0.2394 -0.1204 -0.1047
12866TIP3    H160013   3.303   3.549   4.951 -1.3145 -0.0084 -0.1186
12866TIP3    H260014   3.391   3.491   4.842  1.4356  2.1057  0.8657
12867TIP3   OH260015   2.899   0.301   4.168 -0.0256 -0.6251 -0.2041
12867TIP3    H160016   2.924   0.220   4.213 -1.3374 -1.3070 -0.6495
12867TIP3    H260017   2.976   0.357   4.175  0.4073 -1.3621  1.3704
12868TIP3   OH260018   6.074   0.424  14.627 -0.4228  0.4931  0.2614
12868TIP3    H160019   6.119   0.435  14.544 -0.6143 -1.5422 -0.1683
12868TIP3    H260020   6.101   0.338  14.658 -2.8553 -0.1949  0.6898
12869TIP3   OH260021   0.842   6.326   4.184 -0.8463 -0.3402  0.4039
12869TIP3    H160022   0.767   6.319   4.243  0.2743  0.2072  1.9554
12869TIP3    H260023   0.879   6.412   4.203 -0.2716 -0.2703 -0.9137
12870TIP3   OH260024   0.447   6.713   2.848  0.4078 -0.1369  0.2169
12870TIP3    H160025   0.475   6.751   2.931  1.9444  0.4264 -0.5328
12870TIP3    H260026   0.522   6.723   2.789 -0.4593 -0.9785 -1.1063
12871TIP3   OH260027   1.393   5.010   3.767  0.4959 -0.0072  0.3149
12871TIP3    H160028   1.486   5.024   3.784  0.5774  0.2929 -0.3636
12871TIP3    H260029   1.367   5.083   3.711 -0.5120  0.7929  1.7338
12872TIP3   OH260030   5.329   5.426   0.088  0.9634 -0.1450 -0.2745
12872TIP3    H160031   5.384   5.441   0.165  1.0362  2.2719 -0.7105
12872TIP3    H260032   5.240   5.448   0.118  1.0406  1.1567 -0.9111
12873TIP3   OH260033   5.143   0.137  13.051 -0.5305 -0.5284  0.0022
12873TIP3    H160034   5.104   0.070  12.996 -1.9930  0.4843 -0.2438
12873TIP3    H260035   5.138   0.101  13.140 -1.1182 -0.8367 -0.1538
12874TIP3   OH260036   5.652   4.170   4.240 -0.0918  0.1592 -0.2756
12874TIP3    H160037   5.680   4.254   4.204 -1.1645  1.4265  1.6948
12874TIP3    H260038   5.559   4.181   4.258 -1.1565 -2.6295 -3.0201
12875TIP3   OH260039   5.295   1.399   0.303  0.2477  0.6786  0.2330
12875TIP3    H160040   5.325   1.366   0.218 -0.3523 -0.8364  0.5729
12875TIP3    H260041   5.350   1.355   0.367 -0.2009  0.7638  0.6844
12876TIP3   OH260042   6.154   1.484   2.667 -0.0645  0.3164  0.2977
12876TIP3    H160043   6.185   1.520   2.750  0.4714  0.3534  0.0838
12876TIP3    H260044   6.204   1.404   2.656  0.5722  0.8061 -0.4576
12877TIP3   OH260045   4.781   4.645  14.278  0.1317 -0.3978  0.4551
12877TIP3    H160046   4.800   4.736  14.302  0.3948 -0.9032  2.3591
12877TIP3    H260047   4.786   4.644  14.183 -2.8476  2.2199  0.1137
12878TIP3   OH260048   2.634   5.939  11.819 -0.5681  0.4658  0.1378
12878TIP3    H160049   2.565   5.873  11.827  0.9409 -1.1281  0.4549
12878TIP3    H260050   2.708   5.902  11.867  1.1901  1.2179 -1.8678
12879TIP3   OH260051   5.766   4.772   0.966 -0.1334 -0.3815 -1.0409
12879TIP3    H160052   5.775   4.764   0.871  1.1455  0.5649 -1.0270
12879TIP3    H260053   5.797   4.860   0.986  2.1978 -1.4479  0.5292
12880TIP3   OH260054   1.236   0.456  16.153  0.7383  0.3167 -0.0917
12880TIP3    H160055   1.224   0.362  16.168  0.0100  0.2040 -1.2611
12880TIP3    H260056   1.244   0.464  16.058 -0.0016  1.5161 -0.0776
12881TIP3   OH260057   6.137   2.553  16.891 -0.8511 -0.2296 -0.1063
12881TIP3    H160058   6.110   2.487  16.955 -1.7920 -0.5725 -0.8282
12881TIP3    H260059   6.113   2.637  16.931  0.0653 -0.3345  0.6836
12882TIP3   OH260060   6.085   1.245   1.567 -0.6946  0.8740 -0.2368
12882TIP3    H160061   5.994   1.276   1.563 -0.6791  0.8197 -2.1931
12882TIP3    H260062   6.083   1.174   1.632 -1.6136  2.1140  1.1495
12883TIP3   OH260063   6.389   5.418  15.506  0.3568  0.2466 -0.0424
12883TIP3    H160064   6.302   5.442  15.538  0.6565  1.4637 -0.0780
12883TIP3    H260065   6.432   5.502  15.487  2.9665  0.0119  3.7098
12884TIP3   OH260066   1.355   5.432  10.832 -0.5934 -0.1800 -0.4337
12884TIP3    H160067   1.302   5.381  10.893 -1.2602  0.9997  0.0034
12884TIP3    H260068   1.361   5.519  10.871  1.2093 -0.1122 -0.7580
12885TIP3   OH260069   3.411   1.035   1.927 -0.1637 -0.2891 -0.3086
12885TIP3    H160070   3.417   0.979   1.849 -0.5583 -0.1142 -0.4654
12885TIP3    H260071   3.411   1.124   1.893 -0.8498 -0.2191 -0.1480
12886TIP3   OH260072   1.985   1.271   1.206 -0.5470  0.2491 -0.3303
12886TIP3    H160073   1.977   1.251   1.300  0.2712  1.9057  0.1292
12886TIP3    H260074   2.062   1.223   1.178 -0.6291 -0.0262 -0.0905
12887TIP3   OH260075   5.532   4.607   5.085  0.3674 -0.1852  0.1467
12887TIP3    H160076   5.611   4.657   5.104  0.9939 -1.6473  1.6692
12887TIP3    H260077   5.563   4.517   5.072 -0.7936 -0.3685 -1.8008
12888TIP3   OH260078   2.294   6.644   3.375 -0.5065 -0.0495 -0.6532
12888TIP3    H160079   2.337   6.649   3.460 -0.9940  1.3695 -0.4697
12888TIP3    H260080   2.278   6.550   3.362  1.0336 -0.4501  0.0519
12889TIP3   OH260081   4.029   3.073  17.168  0.1922 -0.1531 -0.1330
12889TIP3    H160082   3.977   3.087  17.248  1.5059 -0.4733  0.8061
12889TIP3    H260083   4.075   2.991  17.184 -0.9740 -1.2556 -2.0565
12890TIP3   OH260084   5.960   0.195   6.346 -0.1765 -0.4081  0.1094
12890TIP3    H160085   5.888   0.181   6.284 -1.1985  0.6205  1.0186
12890TIP3    H260086   5.932   0.150   6.425  0.8128 -1.1326  0.0698
12891TIP3   OH260087   1.677   2.174  13.674 -0.2668  0.0218  0.0625
12891TIP3    H160088   1.594   2.130  13.655 -0.7327  0.0789  1.8410
12891TIP3    H260089   1.720   2.118  13.738  0.8464  0.2701 -0.4400
12892TIP3   OH260090   1.460   1.698   2.949 -0.1954 -0.5505  0.0830
12892TIP3    H160091   1.422   1.761   2.888 -1.8564  0.3187  1.9322
12892TIP3    H260092   1.535   1.743   2.987 -1.4012  0.3955  1.4284
12893TIP3   OH260093   1.763   3.110   0.512 -0.0671  0.0562 -0.1294
12893TIP3    H160094   1.700   3.049   0.472 -0.9995  1.0648 -0.2171
12893TIP3    H260095   1.844   3.095   0.462 -0.8100  0.2476 -1.4590
12894TIP3   OH260096   0.503   1.469   5.639 -0.0148  0.3752  0.1117
12894TIP3    H160097   0.481   1.391   5.588  3.8929 -0.3049 -0.8771
12894TIP3    H260098   0.582   1.503   5.597 -1.3283  4.7381  0.7407
12895TIP3   OH260099   2.904   4.993   3.333 -0.2692 -0.8517 -0.1669
12895TIP3    H160100   2.878   5.077   3.295 -1.4552 -0.6174  1.0954
12895TIP3    H260101   2.934   4.942   3.258  0.2638  0.6056 -0.9971
12896TIP3   OH260102   3.347   6.682   0.004 -0.6328  0.6496 -0.5426
12896TIP3    H160103   3.336   6.741  -0.071 -1.4485 -0.7009 -1.5244
12896TIP3    H260104   3.312   6.598  -0.026 -0.5742 -0.0440  1.2144
12897TIP3   OH260105   0.751   5.831  11.150  0.1194 -0.2507  0.0805
12897TIP3    H160106   0.669   5.797  11.115  0.3551 -0.2635 -0.4794
12897TIP3    H260107   0.798   5.864  11.073  0.1146  0.8732  0.5400
12898TIP3   OH260108   1.252   4.517  12.402  0.4062 -0.1865 -0.3514
12898TIP3    H160109   1.203   4.520  12.484 -0.1171 -1.6785 -0.5896
12898TIP3    H260110   1.199   4.464  12.344  1.6513 -0.6945 -1.0698
12899TIP3   OH260111   1.315   3.320  16.593 -0.3177 -0.1481 -0.3795
12899TIP3    H160112   1.279   3.283  16.674 -0.8326  1.3690  0.1061
12899TIP3    H260113   1.243   3.370  16.555  0.2682  0.1061 -1.1768
12900TIP3   OH260114   4.241   2.823  12.019 -0.0364 -0.1870  0.2307
12900TIP3    H160115   4.155   2.866  12.019 -0.4580 -0.9660 -0.9222
12900TIP3    H260116   4.239   2.767  11.941  1.1952 -0.8792  0.6761
12901TIP3   OH260117   0.104   2.299   6.504  0.1581  0.0423  0.3074
12901TIP3    H160118   0.172   2.264   6.562  1.8952  1.3806 -0.7876
12901TIP3    H260119   0.022   2.270   6.542  1.2044  0.5835  3.2285
12902TIP3   OH260120   6.639   4.119  16.344  0.3948  0.6857 -0.0204
12902TIP3    H160121   6.562   4.078  16.304  1.5901 -1.0970 -0.6321
12902TIP3    H260122   6.674   4.051  16.402  1.7243  1.3021 -0.0817
12903TIP3   OH260123   3.699   4.330   3.142 -0.2583 -0.4243 -0.6598
12903TIP3    H160124   3.658   4.401   3.192  1.8088  0.1053  0.3861
12903TIP3    H260125   3.625   4.280   3.106 -1.7839  0.9071  0.4905
12904TIP3   OH260126   6.620   0.634  16.514 -0.4848  0.3093 -0.3798
12904TIP3    H160127   6.604   0.563  16.577  1.6821 -1.5670 -1.7957
12904TIP3    H260128   6.685   0.689  16.556 -0.7161  0.3399 -0.0597
12905TIP3   OH260129   0.054   2.524   0.425 -0.6952 -0.4277  0.0357
12905TIP3    H160130   0.062   2.469   0.347 -1.6742 -1.5896  0.7164
12905TIP3    H260131   0.030   2.610   0.392  3.7769  0.5655 -1.3272
12906TIP3   OH260132   1.652   0.652  10.471  0.7126  0.0380 -0.2659
12906TIP3    H160133   1.628   0.628  10.560  0.6789 -0.1259 -0.3172
12906TIP3    H260134   1.747   0.649  10.470  0.7387  0.7652 -0.0410
12907TIP3   OH260135   5.883   1.723  12.497 -0.0240  0.0062  0.2189
12907TIP3    H160136   5.842   1.747  12.414  2.3548  0.4133 -0.9499
12907TIP3    H260137   5.959   1.670  12.471 -0.3576 -1.6305  2.2894
12908TIP3   OH260138   5.600   5.812   5.827  0.3142 -0.0777  0.0069
12908TIP3    H160139   5.614   5.717   5.824  0.5489 -0.0176 -0.8803
12908TIP3    H260140   5.679   5.849   5.788  1.4298  0.6159  2.6489
12909TIP3   OH260141   3.352   1.735  10.844  0.1245 -0.0302 -0.1201
12909TIP3    H160142   3.334   1.820  10.884 -1.3641 -0.7178  0.7726
12909TIP3    H260143   3.303   1.672  10.898  0.2326 -1.3116 -1.4455
12910TIP3   OH260144   5.085   6.244  15.076  0.2968 -0.2935  0.2513
12910TIP3    H160145   5.168   6.207  15.046  1.3044  2.5283 -0.7565
12910TIP3    H260146   5.024   6.226  15.004  1.2079  1.3842 -0.9905
12911TIP3   OH260147   4.711   2.508   4.715  0.2947 -0.9443  0.0857
12911TIP3    H160148   4.622   2.495   4.682  0.8248 -2.1258 -0.9697
12911TIP3    H260149   4.736   2.595   4.685 -0.0068 -1.1640 -0.8459
12912TIP3   OH260150   2.511   4.603   1.648  0.7151  0.4308  0.5066
12912TIP3    H160151   2.552   4.664   1.709 -1.0287 -1.6840  4.1743
12912TIP3    H260152   2.483   4.529   1.703 -0.8243 -1.8595 -2.9626
12913TIP3   OH260153   3.017   1.647   3.874 -0.4417 -0.4491  0.2691
12913TIP3    H160154   2.993   1.572   3.820 -0.6369 -0.5283  0.4663
12913TIP3    H260155   2.946   1.655   3.937  0.7264 -1.5657  1.8030
12914TIP3   OH260156   0.094   0.361   2.767 -0.6017 -0.0261 -0.1622
12914TIP3    H160157   0.063   0.422   2.834 -2.4987  0.6421 -1.5613
12914TIP3    H260158   0.028   0.291   2.766  1.4236 -2.1207  1.2701
12915TIP3   OH260159   0.891   4.729  12.796  0.3203 -0.1219  0.8253
12915TIP3    H160160   0.884   4.642  12.759 -0.3479  0.5995 -0.8504
12915TIP3    H260161   0.836   4.784  12.740  0.4944  1.3311  1.9954
12916TIP3   OH260162   2.354   3.337  13.762  0.1748  0.0326 -0.5714
12916TIP3    H160163   2.409   3.400  13.715  0.7647 -0.9116 -1.1637
12916TIP3    H260164   2.413   3.265  13.784 -0.6993 -0.7428 -0.7179
12917TIP3   OH260165   1.007   0.222  12.914  0.0073  0.1279 -0.3498
12917TIP3    H160166   0.984   0.158  12.846  2.0664  0.9818 -1.9234
12917TIP3    H260167   1.054   0.171  12.979 -1.5880 -0.6113  0.2841
12918TIP3   OH260168   1.613   1.288   3.540  0.6974 -0.2959  0.4383
12918TIP3    H160169   1.531   1.272   3.587  0.2382 -0.1189 -0.2784
12918TIP3    H260170   1.616   1.383   3.529  0.5673 -0.3696 -0.2767
12919TIP3   OH260171   1.779   5.796  12.930 -0.0367 -0.5651  0.4211
12919TIP3    H160172   1.692   5.773  12.897  0.4568 -0.2173 -1.1565
12919TIP3    H260173   1.795   5.884  12.898  1.3885 -1.0684 -0.3402
12920TIP3   OH260174   0.970   2.411  15.188 -0.0844  0.2359 -0.1648
12920TIP3    H160175   0.979   2.364  15.105  1.0603  0.0848  0.0366
12920TIP3    H260176   0.988   2.345  15.255  0.3083  0.6700  0.1591
12921TIP3   OH260177   1.233   3.872   3.284  0.3285 -0.4226  0.3712
12921TIP3    H160178   1.141   3.868   3.257  0.9565  1.5447 -2.5712
12921TIP3    H260179   1.231   3.917   3.368 -1.3556  2.8394 -1.1886
12922TIP3   OH260180   6.061   5.624   1.610 -0.3448 -0.2838 -0.3781
12922TIP3    H160181   6.021   5.667   1.534  0.8247 -0.9208 -1.3811
12922TIP3    H260182   6.000   5.554   1.632 -0.9004  0.1600 -0.4592
12923TIP3   OH260183   0.006   2.706   4.334  0.2584 -0.9199 -0.0468
12923TIP3    H160184  -0.074   2.740   4.294  0.7047 -1.5466 -1.5850
12923TIP3    H260185   0.062   2.782   4.344  0.3236 -0.7981 -1.1512
12924TIP3   OH260186   5.009   4.109  12.263 -0.0742  0.2084  0.3109
12924TIP3    H160187   5.062   4.038  12.227 -0.1369  0.7553 -0.9294
12924TIP3    H260188   5.057   4.139  12.340 -0.2470 -1.4151  1.0911
12925TIP3   OH260189   3.453   1.366  10.689 -0.0900 -0.2969  0.5811
12925TIP3    H160190   3.532   1.314  10.705  1.9525  2.1988 -0.7539
12925TIP3    H260191   3.416   1.329  10.609  0.1253 -1.0279  0.8080
12926TIP3   OH260192   4.627   3.501   0.291  0.0336 -0.5246 -0.0610
12926TIP3    H160193   4.571   3.536   0.222  2.2867  2.6136 -0.4687
12926TIP3    H260194   4.709   3.479   0.248  0.8251 -0.3577  1.2819
12927TIP3   OH260195   3.809   0.048  13.241 -0.1681  0.4001  0.0895
12927TIP3    H160196   3.852  -0.029  13.204  1.0401  0.1956  1.7875
12927TIP3    H260197   3.741   0.071  13.177  0.9321 -0.6844 -1.5511
12928TIP3   OH260198   4.085   4.197   6.255 -0.0701  0.1396  0.0120
12928TIP3    H160199   4.027   4.128   6.223 -0.9935 -0.2020  2.2395
12928TIP3    H260200   4.079   4.266   6.189 -1.6348 -0.6159 -0.6941
12929TIP3   OH260201   4.020   6.283  14.462  0.5402 -0.1158  0.1170
12929TIP3    H160202   4.110   6.288  14.494  0.5137 -1.7973  0.5733
12929TIP3    H260203   4.028   6.250  14.373  0.3602 -0.7886  0.3455
12930TIP3   OH260204   3.249   5.252   4.960  0.3881 -0.0341  0.7147
12930TIP3    H160205   3.267   5.230   5.051  0.3400 -0.5792  0.5959
12930TIP3    H260206   3.153   5.258   4.955  0.3421 -0.8734  0.5077
12931TIP3   OH260207   6.041   4.931   3.036 -0.1456  0.2054  0.1046
12931TIP3    H160208   6.096   5.009   3.047 -1.9419  1.6013 -0.4388
12931TIP3    H260209   5.995   4.945   2.953 -0.6556 -1.3524  0.0901
12932TIP3   OH260210   1.480   1.719   1.941 -0.0376 -0.3076 -0.2204
12932TIP3    H160211   1.430   1.799   1.923  1.5126  1.0160  1.1033
12932TIP3    H260212   1.565   1.733   1.899 -0.2209 -1.9351 -1.2365
12933TIP3   OH260213   2.186   5.544   2.718 -0.3647 -0.0641  0.3766
12933TIP3    H160214   2.132   5.575   2.646 -0.7890  0.3033  0.8478
12933TIP3    H260215   2.265   5.599   2.715 -0.9697  0.8681  1.0063
12934TIP3   OH260216   5.870   4.010  14.684 -0.0723 -0.3431  0.1864
12934TIP3    H160217   5.924   4.084  14.715 -2.4575  1.9910 -0.8353
12934TIP3    H260218   5.807   3.995  14.754 -0.7630 -0.1268 -0.3779
12935TIP3   OH260219   6.305   5.292   6.403 -0.1446  0.3362  0.3527
12935TIP3    H160220   6.252   5.372   6.405 -0.3852  0.2249 -0.7941
12935TIP3    H260221   6.357   5.296   6.483 -1.5855  0.6444  1.3168
12936TIP3   OH260222   6.257   1.696   4.714 -0.1313 -0.1565  1.0590
12936TIP3    H160223   6.169   1.662   4.698  0.3298 -0.6513 -0.6615
12936TIP3    H260224   6.242   1.778   4.761 -1.4858 -0.4839  1.2564
12937TIP3   OH260225   1.536   4.222   2.694 -0.2687 -0.1339 -0.4949
12937TIP3    H160226   1.492   4.246   2.776 -0.3780 -0.0470 -0.5796
12937TIP3    H260227   1.464   4.212   2.631 -0.2106 -0.4930 -0.5059
12938TIP3   OH260228   4.875   3.506  12.621  0.4076 -1.0803 -0.5962
12938TIP3    H160229   4.925   3.534  12.545  0.7093 -0.7659 -0.2874
12938TIP3    H260230   4.875   3.410  12.616  0.9187 -1.0767 -0.6787
12939TIP3   OH260231   5.944   5.127  11.024  0.1196 -0.1191 -0.1780
12939TIP3    H160232   5.862   5.098  11.065  0.0556 -0.2085 -0.3626
12939TIP3    H260233   6.010   5.064  11.055 -0.0822 -0.6755 -0.8332
12940TIP3   OH260234   4.441   3.403  14.839  0.5246 -0.2312  0.1145
12940TIP3    H160235   4.533   3.424  14.857 -0.2133  3.4515  0.4523
12940TIP3    H260236   4.434   3.404  14.744  1.0825 -2.2659  0.0035
12941TIP3   OH260237   2.165   4.232   5.547 -0.3017 -0.9182  0.1266
12941TIP3    H160238   2.198   4.318   5.572 -1.1046 -0.5290 -0.1077
12941TIP3    H260239   2.124   4.199   5.627 -0.8015 -0.6835 -0.0296
12942TIP3   OH260240   5.389   3.622   3.095  0.0082  0.3668  0.1406
12942TIP3    H160241   5.456   3.577   3.147  0.1236  0.6265  0.2134
12942TIP3    H260242   5.328   3.552   3.071 -0.4526  0.3786  1.2593
12943TIP3   OH260243   4.505   0.359  12.105  0.4538 -0.2840  0.2922
12943TIP3    H160244   4.480   0.273  12.139 -0.3566 -0.0619  0.2775
12943TIP3    H260245   4.424   0.410  12.107  0.2339 -0.3653 -2.3280
12944TIP3   OH260246   3.442   4.811  16.340  0.2709 -0.2324  0.1648
12944TIP3    H160247   3.420   4.749  16.409  0.7530 -1.1116 -0.4569
12944TIP3    H260248   3.413   4.896  16.374 -1.4477 -0.9303  0.5528
12945TIP3   OH260249   0.689   1.494   5.422  0.4847 -0.1610  0.3717
12945TIP3    H160250   0.746   1.570   5.428  0.7821 -0.3150 -0.3610
12945TIP3    H260251   0.641   1.507   5.340 -0.7259  0.0894  1.0850
12946TIP3   OH260252   2.052   0.107   5.530  0.5301  0.1382 -0.1410
12946TIP3    H160253   1.962   0.108   5.497  0.8182 -0.8520 -1.0051
12946TIP3    H260254   2.043   0.113   5.625 -0.4043  0.9785 -0.2624
12947TIP3   OH260255   5.955   5.696  12.182  0.2083  0.1647  0.3428
12947TIP3    H160256   5.933   5.724  12.093 -0.5109 -0.2992  0.3653
12947TIP3    H260257   5.918   5.764  12.238 -3.0683 -1.5496  0.4973
12948TIP3   OH260258   4.627   4.555   5.341  0.1257 -0.5122 -0.3136
12948TIP3    H160259   4.565   4.539   5.412  1.0128 -0.7690  0.4236
12948TIP3    H260260   4.711   4.523   5.375  0.1662 -2.7809 -2.3059
12949TIP3   OH260261   0.818   6.712  11.511  0.1528 -0.1830 -0.0666
12949TIP3    H160262   0.834   6.620  11.490 -1.2446 -0.0657 -1.8705
12949TIP3    H260263   0.740   6.735  11.460 -0.1107  1.7423  1.1064
12950TIP3   OH260264   3.041   3.004   2.225  0.7268 -0.0070  0.5553
12950TIP3    H160265   3.015   2.975   2.312  0.0629 -0.2557  0.2805
12950TIP3    H260266   3.033   2.926   2.170 -0.9290  0.6234 -0.1589
12951TIP3   OH260267   4.722   2.594  14.704 -0.2697 -0.2512 -0.5041
12951TIP3    H160268   4.779   2.521  14.728  0.3975  0.0945 -1.0272
12951TIP3    H260269   4.730   2.601  14.609 -0.4243  0.4302 -0.4700
12952TIP3   OH260270   1.401   0.261  11.203  0.2766  0.6322  0.4363
12952TIP3    H160271   1.384   0.352  11.228  1.7574  1.2729 -0.7236
12952TIP3    H260272   1.367   0.255  11.113 -0.0531 -0.0567  0.6012
12953TIP3   OH260273   6.602   2.593   3.949  0.6155 -0.0087  0.8666
12953TIP3    H160274   6.573   2.651   4.020  0.3184  0.8271  0.0862
12953TIP3    H260275   6.682   2.634   3.916  0.5151 -0.1554  0.4406
12954TIP3   OH260276   1.373   0.936  14.790 -0.1994 -0.0841  0.3335
12954TIP3    H160277   1.450   0.896  14.830 -1.7197 -2.2632  1.2435
12954TIP3    H260278   1.301   0.915  14.849 -1.5986  1.4774 -0.7317
12955TIP3   OH260279   4.067   1.583  11.971 -0.2617  0.3391  0.4147
12955TIP3    H160280   4.131   1.645  11.937 -1.0474 -0.5629 -3.1649
12955TIP3    H260281   4.118   1.520  12.022  1.4949  0.5624 -0.9685
12956TIP3   OH260282   5.870   0.455   6.320  0.0409 -0.8162 -0.2088
12956TIP3    H160283   5.929   0.380   6.326  1.4258  0.1893 -0.6794
12956TIP3    H260284   5.793   0.421   6.274  0.7120 -1.9156 -0.5715
12957TIP3   OH260285   5.205   0.790   3.529 -0.3883  0.0726  0.0603
12957TIP3    H160286   5.161   0.867   3.565 -1.2300 -0.1203 -0.5253
12957TIP3    H260287   5.269   0.825   3.467  1.8680  0.4742  2.4592
12958TIP3   OH260288   2.928   3.253  16.124 -0.2698  0.0741 -0.2947
12958TIP3    H160289   2.992   3.202  16.075 -0.0374 -0.5886  0.6668
12958TIP3    H260290   2.899   3.321  16.063 -2.0166 -2.3158 -2.2802
12959TIP3   OH260291   5.862   6.076   3.804  0.0703 -0.2184 -0.2355
12959TIP3    H160292   5.947   6.034   3.795 -0.3870 -1.4474  0.8564
12959TIP3    H260293   5.799   6.008   3.778 -0.6067  0.5640 -0.7094
12960TIP3   OH260294   0.850   5.713   1.859 -0.1246 -0.1883  0.7457
12960TIP3    H160295   0.834   5.799   1.897 -1.9723 -0.2618  0.2156
12960TIP3    H260296   0.813   5.718   1.771 -1.2898 -1.8314  1.0808
12961TIP3   OH260297   2.971   5.199  16.341 -0.1509 -0.0692 -0.0445
12961TIP3    H160298   2.946   5.115  16.379 -1.2538 -0.1826 -0.9792
12961TIP3    H260299   2.976   5.182  16.247 -1.3836  1.1200 -0.3634
12962TIP3   OH260300   6.416   0.715   4.033  0.1355 -1.0873 -0.1312
12962TIP3    H160301   6.498   0.753   4.065 -0.5314 -0.0418  0.3972
12962TIP3    H260302   6.416   0.625   4.067  0.6208 -0.7887  0.6881
12963TIP3   OH260303   6.036   3.516   1.241  0.1154 -0.1983  0.5947
12963TIP3    H160304   6.078   3.502   1.326 -0.9820  0.5444  1.2977
12963TIP3    H260305   5.991   3.434   1.223  1.5525 -0.8781 -0.0034
12964TIP3   OH260306   5.043   4.431  13.245  0.9528 -0.2286 -0.0246
12964TIP3    H160307   4.989   4.465  13.174  0.6931 -0.5380  0.0223
12964TIP3    H260308   5.098   4.365  13.204  0.5322 -0.6851  0.1241
12965TIP3   OH260309   4.160   2.649  10.556 -0.1045 -0.2842 -0.1032
12965TIP3    H160310   4.203   2.601  10.485  0.7487 -0.0785  0.2720
12965TIP3    H260311   4.112   2.719  10.511 -0.0381 -0.5064 -0.5244
12966TIP3   OH260312   6.580   0.213  12.134  0.3079 -0.1037 -0.4996
12966TIP3    H160313   6.537   0.270  12.198  2.7709  3.2138 -1.4997
12966TIP3    H260314   6.639   0.159  12.187 -0.1381  0.1576  0.2893
12967TIP3   OH260315   0.258   3.945  17.025 -0.4846 -0.8010  0.0458
12967TIP3    H160316   0.333   3.914  16.976  0.3978 -2.5634  2.3386
12967TIP3    H260317   0.205   3.867  17.040 -1.2969 -0.1075  0.9132
12968TIP3   OH260318   4.352   2.667   0.511  0.1362  0.1203 -0.3420
12968TIP3    H160319   4.283   2.612   0.476  0.2800  0.2565 -0.8458
12968TIP3    H260320   4.424   2.658   0.449  0.5385  0.0537  0.1244
12969TIP3   OH260321   3.609   3.977  14.212 -0.3661 -0.0002  0.6965
12969TIP3    H160322   3.613   3.965  14.307  1.2855  1.2558  0.8355
12969TIP3    H260323   3.646   3.897  14.176 -0.2806 -0.1655  1.1494
12970TIP3   OH260324   2.225   2.931   4.781  0.5924 -0.1629  0.0451
12970TIP3    H160325   2.261   2.947   4.868 -0.5414  0.2563  0.4567
12970TIP3    H260326   2.182   3.013   4.757 -2.2936 -1.3703  0.6893
12971TIP3   OH260327   0.116   1.131  12.476  0.2265  0.5464  0.0108
12971TIP3    H160328   0.163   1.151  12.394 -0.1409  1.8335  0.1062
12971TIP3    H260329   0.041   1.079  12.448  2.4358 -2.9586 -0.0073
12972TIP3   OH260330   2.540   4.635  14.504 -0.6267  0.4913  0.6729
12972TIP3    H160331   2.560   4.654  14.595 -1.4779  0.9760  0.7699
12972TIP3    H260332   2.474   4.701  14.480 -2.4584 -1.3052  0.5257
12973TIP3   OH260333   4.426   5.103   1.440  0.7464 -0.2005 -0.1601
12973TIP3    H160334   4.379   5.030   1.480  1.9440 -1.6737 -1.2724
12973TIP3    H260335   4.380   5.181   1.470 -0.9655 -1.4310  0.6020
12974TIP3   OH260336   3.833   6.433   4.912  0.1639 -0.1215  0.1030
12974TIP3    H160337   3.926   6.409   4.919 -0.1705 -2.1099 -1.3240
12974TIP3    H260338   3.789   6.350   4.893 -1.3200  1.3066 -3.7867
12975TIP3   OH260339   3.353   5.901   6.414  0.1475  0.1456 -0.8698
12975TIP3    H160340   3.406   5.922   6.337  1.3495 -1.0424 -0.3996
12975TIP3    H260341   3.411   5.849   6.470 -1.2659 -0.5309  0.0233
12976TIP3   OH260342   6.065   5.643  11.531 -0.2409  0.1914 -0.4754
12976TIP3    H160343   6.112   5.726  11.522 -0.3317  0.8352  3.3341
12976TIP3    H260344   5.973   5.666  11.523 -0.2834  0.5614  0.9319
12977TIP3   OH260345   3.811   0.879  11.637  0.3746 -0.6906 -0.3967
12977TIP3    H160346   3.871   0.826  11.585  1.4420  0.1804 -0.0919
12977TIP3    H260347   3.836   0.969  11.617  1.0154 -0.3209  1.8155
12978TIP3   OH260348   3.497   1.029  16.671  0.0232  0.0939 -0.0912
12978TIP3    H160349   3.556   1.039  16.746  1.8481  2.6914 -1.7149
12978TIP3    H260350   3.549   0.980  16.606 -0.5676  0.1397 -0.6135
12979TIP3   OH260351   5.257   5.710  14.617  0.1530  0.1704  0.2209
12979TIP3    H160352   5.340   5.678  14.581  0.0825  0.6629 -0.3905
12979TIP3    H260353   5.190   5.674  14.560 -0.2399 -1.8678  1.8447
12980TIP3   OH260354   6.764   6.192   5.488 -0.5628  0.3500  0.1886
12980TIP3    H160355   6.669   6.198   5.478 -0.4089  0.1538 -1.7466
12980TIP3    H260356   6.796   6.277   5.457 -0.0782  0.3194  0.5946
12981TIP3   OH260357   5.162   0.597   2.358  0.3870 -0.1921  0.5912
12981TIP3    H160358   5.128   0.610   2.446 -0.0404 -0.2570  0.4390
12981TIP3    H260359   5.120   0.665   2.305  0.8184 -0.0078  0.4813
12982TIP3   OH260360   4.257   1.584   1.612  0.1692  0.1263 -0.0171
12982TIP3    H160361   4.219   1.581   1.700  2.1000 -0.0610  0.8877
12982TIP3    H260362   4.270   1.493   1.587 -0.1721  0.1809 -0.3960
12983TIP3   OH260363   4.887   0.173  13.345 -0.5627 -0.5293  0.4326
12983TIP3    H160364   4.840   0.092  13.322 -1.0871  0.1735 -1.0842
12983TIP3    H260365   4.979   0.147  13.346 -0.7629 -1.2695  0.5107
12984TIP3   OH260366   0.679   3.378   4.144 -0.3296 -0.4001 -0.5573
12984TIP3    H160367   0.629   3.405   4.220 -0.8913 -0.2870 -0.9611
12984TIP3    H260368   0.730   3.302   4.174  1.1154  0.9399  0.5218
12985TIP3   OH260369   5.120   6.003  15.945 -0.1177 -0.1502 -0.2080
12985TIP3    H160370   5.127   5.962  15.859 -0.7854 -1.0284  0.1368
12985TIP3    H260371   5.091   6.092  15.927  0.0229 -0.2426 -0.9106
12986TIP3   OH260372   1.345   0.073  13.935  0.1646  0.1791  0.3873
12986TIP3    H160373   1.393   0.113  14.007 -0.2877  0.1036  0.7386
12986TIP3    H260374   1.317   0.147  13.880 -0.5275  0.3413  0.9452
12987TIP3   OH260375   5.515   5.766   6.525  0.0527  0.1755 -0.0229
12987TIP3    H160376   5.513   5.685   6.473 -0.3022 -0.7949  1.4605
12987TIP3    H260377   5.430   5.769   6.567  0.2004  1.1525  0.2221
12988TIP3   OH260378   0.484   0.818  16.208 -0.0611  0.6761  0.1814
12988TIP3    H160379   0.426   0.887  16.241 -0.7319  1.3942 -2.2738
12988TIP3    H260380   0.527   0.857  16.132  0.0358 -1.3962 -0.8935
12989TIP3   OH260381   6.696   1.050   5.855 -0.1101 -0.5318  0.0795
12989TIP3    H160382   6.620   1.010   5.813 -1.7538 -0.4532  2.7814
12989TIP3    H260383   6.686   1.031   5.948  1.8661  1.6158  0.8479
12990TIP3   OH260384   5.253   0.815  12.147 -0.3220  0.4425  0.5644
12990TIP3    H160385   5.231   0.898  12.188 -4.6025 -1.5865  3.1322
12990TIP3    H260386   5.324   0.779  12.200  0.9384  1.9380 -0.0240
12991TIP3   OH260387   6.575   1.446  16.024  0.1716 -0.6018 -0.4320
12991TIP3    H160388   6.520   1.516  16.057  0.1582 -0.6640 -0.3233
12991TIP3    H260389   6.653   1.490  15.991 -0.0318 -0.4951 -0.7745
12992TIP3   OH260390   4.066   3.202   2.550  0.3737 -0.4952 -0.2325
12992TIP3    H160391   4.156   3.223   2.575  0.9434 -0.1099 -2.3434
12992TIP3    H260392   4.065   3.215   2.455 -2.0191 -0.1405 -0.2114
12993TIP3   OH260393   0.874   6.101   1.447 -0.0730 -0.5102 -0.1787
12993TIP3    H160394   0.937   6.055   1.391  1.0469  0.0491  0.5784
12993TIP3    H260395   0.860   6.041   1.521 -2.0093 -1.5116 -1.2930
12994TIP3   OH260396   2.852   3.315   5.673  0.4134 -0.2273 -0.2004
12994TIP3    H160397   2.884   3.225   5.677  0.9184 -0.0549 -0.3140
12994TIP3    H260398   2.784   3.313   5.606 -0.1930 -0.7073  0.4097
12995TIP3   OH260399   2.615   3.601   0.623 -0.6086 -0.1399 -0.1670
12995TIP3    H160400   2.667   3.656   0.565  0.1279  0.2458  0.8211
12995TIP3    H260401   2.538   3.654   0.644 -0.2926  0.2083  0.1410
12996TIP3   OH260402   1.324   0.792   6.096 -0.3558 -0.1390  0.3597
12996TIP3    H160403   1.362   0.806   6.010 -0.2872 -0.1866  0.3821
12996TIP3    H260404   1.374   0.849   6.154 -0.7362  0.2739  0.2833
12997TIP3   OH260405   6.272   5.665   1.262  0.1269  0.0321  0.5916
12997TIP3    H160406   6.179   5.651   1.283  0.0093  1.5599  1.2023
12997TIP3    H260407   6.318   5.644   1.343  0.3702 -1.0586  0.1885
12998TIP3   OH260408   1.139   0.747   2.002 -0.2673  0.0902  0.1427
12998TIP3    H160409   1.155   0.841   2.011  0.3313  0.0813 -0.6247
12998TIP3    H260410   1.217   0.715   1.956  0.3186 -1.0702  1.8531
12999TIP3   OH260411   2.616   5.424  14.277  0.0265  0.3099 -0.2562
12999TIP3    H160412   2.563   5.399  14.201 -1.4093 -1.2049  1.1523
12999TIP3    H260413   2.633   5.341  14.322  1.2685  1.1082  0.8117
13000TIP3   OH260414   4.086   5.987   5.317  0.8830 -0.2506 -0.0081
13000TIP3    H160415   4.166   5.943   5.347  1.0310  1.4929  2.4057
13000TIP3    H260416   4.106   6.012   5.227  2.6723 -0.7173  0.2115
13001TIP3   OH260417   5.240   1.849  12.810  0.4891  0.6482 -0.5093
13001TIP3    H160418   5.334   1.843  12.797  0.3264  0.8109 -1.8610
13001TIP3    H260419   5.220   1.943  12.804  0.2529  0.6224 -0.1542
13002TIP3   OH260420   1.030   4.674   2.135  0.1578  1.4205 -0.0319
13002TIP3    H160421   0.972   4.680   2.059  1.5195  0.2740 -1.2168
13002TIP3    H260422   1.059   4.763   2.151 -1.0197  1.8410 -0.1230
13003TIP3   OH260423   4.317   3.671   4.407  0.0169  0.7814  0.1242
13003TIP3    H160424   4.360   3.705   4.328  2.0942  1.2063  1.3611
13003TIP3    H260425   4.370   3.596   4.433 -0.6543  0.6322  1.1031
13004TIP3   OH260426   1.981   4.179   5.778  0.5867  0.0669  0.8877
13004TIP3    H160427   2.044   4.151   5.845  0.0917  1.0484  1.8016
13004TIP3    H260428   1.944   4.098   5.744  2.8001 -0.5782 -0.1532
13005TIP3   OH260429   0.835   1.216  14.855  0.4436 -0.6977 -0.0842
13005TIP3    H160430   0.822   1.311  14.863  0.9147 -0.6680  0.3757
13005TIP3    H260431   0.846   1.201  14.761 -0.5496 -0.4221 -0.2540
13006TIP3   OH260432   3.461   2.004   4.927  0.6952 -0.0727 -0.3108
13006TIP3    H160433   3.529   2.019   4.993 -0.0306 -1.5785  0.8419
13006TIP3    H260434   3.505   1.952   4.859  1.3567  1.2053 -0.9009
13007TIP3   OH260435   2.460   4.790  12.770 -0.5288 -0.3024  0.3594
13007TIP3    H160436   2.530   4.788  12.706 -0.9077  0.2526 -0.0909
13007TIP3    H260437   2.490   4.735  12.842  0.5885  0.3574  0.4096
13008TIP3   OH260438   3.881   2.675  16.594  0.0004 -0.6000  0.4299
13008TIP3    H160439   3.787   2.685  16.606 -0.1844 -0.4848 -0.9537
13008TIP3    H260440   3.897   2.582  16.609 -0.1876 -0.4651  1.5189
13009TIP3   OH260441   0.489   2.393  15.526  0.0327  0.4984  0.0604
13009TIP3    H160442   0.508   2.355  15.612 -0.4261 -1.2700 -0.5681
13009TIP3    H260443   0.575   2.397  15.483 -0.0862 -1.4595 -0.4536
13010TIP3   OH260444   4.383   4.818  16.954 -0.8190 -0.4638 -0.0395
13010TIP3    H160445   4.411   4.729  16.932  1.5846 -0.1465  1.2745
13010TIP3    H260446   4.452   4.874  16.918 -0.7560  0.5893  1.6224
13011TIP3   OH260447   6.547   6.297  15.008 -0.8603 -0.3237  0.4144
13011TIP3    H160448   6.452   6.301  15.021 -0.9776  1.5767 -0.6845
13011TIP3    H260449   6.582   6.277  15.095 -2.2496 -1.2183  0.8012
13012TIP3   OH260450   4.832   5.811   4.478  0.0479 -0.1490  0.1195
13012TIP3    H160451   4.843   5.905   4.463  0.9092 -0.3282 -0.4564
13012TIP3    H260452   4.891   5.791   4.551  0.9515 -0.4774 -0.6715
13013TIP3   OH260453   1.163   6.753   1.145  0.2249  0.5778  0.2177
13013TIP3    H160454   1.178   6.694   1.219 -1.5319  0.3782  0.4605
13013TIP3    H260455   1.076   6.729   1.113  0.5287  1.3459 -1.2941
13014TIP3   OH260456   0.739   5.755   2.497  0.1164 -0.2369  0.3585
13014TIP3    H160457   0.693   5.819   2.442  0.7968  0.2549  0.3478
13014TIP3    H260458   0.669   5.710   2.545 -0.4248 -0.0638 -0.2528
13015TIP3   OH260459   3.831   6.299   6.358 -0.5547  0.1877  0.4512
13015TIP3    H160460   3.789   6.257   6.432 -1.4770 -0.3316 -0.3512
13015TIP3    H260461   3.775   6.374   6.337 -0.3125  0.3207  0.2698
13016TIP3   OH260462   0.907   1.759   3.250 -0.3455  0.7918 -0.7950
13016TIP3    H160463   0.924   1.852   3.236  2.2767  0.3024 -1.3916
13016TIP3    H260464   0.987   1.726   3.293 -1.4354 -1.0811 -0.0860
13017TIP3   OH260465   2.887   3.756  15.029  0.1917  0.2303  0.0314
13017TIP3    H160466   2.802   3.755  14.985 -1.2228 -1.7917  2.5828
13017TIP3    H260467   2.935   3.683  14.989 -0.1483 -0.0676  0.1668
13018TIP3   OH260468   3.001   4.626  12.990 -0.2334  0.1843  0.0142
13018TIP3    H160469   2.977   4.536  13.009 -1.9670  0.4894 -0.5315
13018TIP3    H260470   2.951   4.648  12.911  1.5203  1.0776 -0.8912
13019TIP3   OH260471   4.618   5.515  16.579 -0.7554  0.2998 -0.1475
13019TIP3    H160472   4.557   5.442  16.570 -0.8118  0.5440 -2.0839
13019TIP3    H260473   4.562   5.591  16.596 -1.0185  0.4673 -1.6016
13020TIP3   OH260474   5.067   5.407   3.466  0.0494  0.0350 -0.0935
13020TIP3    H160475   5.054   5.316   3.493  0.6346  0.0337  0.2065
13020TIP3    H260476   5.088   5.453   3.548 -2.7990  0.9864  0.2276
13021TIP3   OH260477   6.489   6.020  15.259 -0.3061  0.6225  0.2781
13021TIP3    H160478   6.578   5.994  15.232  0.2221  1.7939  0.8175
13021TIP3    H260479   6.441   5.937  15.266  0.7004 -0.0199 -0.1835
13022TIP3   OH260480   6.194   3.739   5.147  0.0782 -0.3272 -0.0954
13022TIP3    H160481   6.160   3.686   5.219  1.0947 -1.2801 -0.2947
13022TIP3    H260482   6.116   3.760   5.095 -0.3865 -1.5115  0.0734
13023TIP3   OH260483   0.004   5.482   5.585 -0.1100  0.4871 -0.2104
13023TIP3    H160484   0.067   5.531   5.531 -0.1038  2.0181  1.1327
13023TIP3    H260485  -0.053   5.549   5.622  0.1032 -0.4501  1.9638
13024TIP3   OH260486   5.573   6.563  12.203 -0.3220 -0.1811 -0.1984
13024TIP3    H160487   5.667   6.567  12.220 -0.4734 -0.2095  0.6671
13024TIP3    H260488   5.558   6.476  12.167  0.2002  0.3478 -1.7661
13025TIP3   OH260489   4.797   6.300   2.428 -0.2077 -0.0361  0.9701
13025TIP3    H160490   4.844   6.264   2.353 -0.0544 -0.3577  1.2187
13025TIP3    H260491   4.857   6.289   2.502  0.4812  2.1199  0.8060
13026TIP3   OH260492   6.094   0.159  14.646 -0.0188  0.5808 -0.1671
13026TIP3    H160493   6.066   0.102  14.717 -0.7180 -0.3228 -1.1318
13026TIP3    H260494   6.188   0.144  14.639 -0.0622  0.1705  0.1304
13027TIP3   OH260495   4.116   1.050  16.368 -0.6077 -0.1030  0.4698
13027TIP3    H160496   4.025   1.080  16.378 -0.9855 -1.3217  0.8190
13027TIP3    H260497   4.168   1.128  16.382 -1.5037  0.1733  2.5671
13028TIP3   OH260498   2.150   1.382   5.468 -0.2808 -0.5072 -0.0882
13028TIP3    H160499   2.226   1.337   5.504 -0.1523 -0.6271 -0.4997
13028TIP3    H260500   2.178   1.411   5.381 -0.1311  0.9841  0.4324
13029TIP3   OH260501   1.485   2.831   2.154 -0.3251 -0.0441  0.1501
13029TIP3    H160502   1.575   2.806   2.132  0.2803  1.7362  0.3736
13029TIP3    H260503   1.433   2.805   2.079  0.2474 -1.6627  0.2705
13030TIP3   OH260504   5.486   2.494  16.008 -0.1460 -0.3115 -0.5764
13030TIP3    H160505   5.559   2.438  16.034  0.0104  0.7885  1.5457
13030TIP3    H260506   5.428   2.494  16.083 -0.8186  1.2723 -1.0575
13031TIP3   OH260507   5.213   5.719   1.261  0.0440  0.5209 -0.1830
13031TIP3    H160508   5.122   5.741   1.283 -0.4502 -1.1178 -0.4446
13031TIP3    H260509   5.264   5.794   1.293 -1.4427  1.7518 -0.5721
13032TIP3   OH260510   0.147   1.602   4.226 -0.0691 -0.1859  0.2713
13032TIP3    H160511   0.052   1.603   4.214 -0.0750 -0.5657  0.2670
13032TIP3    H260512   0.160   1.636   4.315 -0.2032 -0.0830  0.2524
13033TIP3   OH260513   1.519   6.260  13.510 -0.1072  0.3623  0.2783
13033TIP3    H160514   1.438   6.238  13.556 -0.4855  2.2369  0.6037
13033TIP3    H260515   1.587   6.255  13.577 -0.2770  0.7492  0.4797
13034TIP3   OH260516   5.508   3.033  12.557 -0.3525 -0.0623 -0.3109
13034TIP3    H160517   5.540   3.077  12.478 -1.2547  1.6290  0.2050
13034TIP3    H260518   5.471   3.104  12.610 -2.6154 -1.5487  0.2267
13035TIP3   OH260519   4.215   3.678   6.051  0.1047  0.1688 -0.5124
13035TIP3    H160520   4.305   3.647   6.040 -0.4554 -1.7698 -0.0017
13035TIP3    H260521   4.224   3.759   6.102  1.4489 -1.6653  2.4491
13036TIP3   OH260522   5.517   4.089   1.735  0.5775  0.0264 -0.1404
13036TIP3    H160523   5.465   4.073   1.813 -0.2618 -0.1401 -0.7179
13036TIP3    H260524   5.472   4.040   1.666  2.3319 -1.3612 -0.3726
13037TIP3   OH260525   5.891   4.284  15.407  0.3206 -0.2423 -0.0919
13037TIP3    H160526   5.916   4.340  15.333 -3.1727 -0.0192 -1.2642
13037TIP3    H260527   5.922   4.196  15.381  1.2761  0.2297 -0.6340
13038TIP3   OH260528   6.531   0.183  11.263 -0.2112  0.3666 -0.2110
13038TIP3    H160529   6.448   0.188  11.310 -0.2895 -1.5463 -0.0577
13038TIP3    H260530   6.518   0.236  11.184 -1.1564  1.0474  0.3947
13039TIP3   OH260531   1.638   3.273   4.481 -0.0863  0.0714 -0.8241
13039TIP3    H160532   1.645   3.179   4.500 -0.7730  0.2263  0.2849
13039TIP3    H260533   1.694   3.286   4.405  0.4228 -1.1484 -0.6827
13040TIP3   OH260534   4.773   4.821   4.368 -0.4227 -0.5474 -0.6655
13040TIP3    H160535   4.788   4.777   4.452 -1.7348 -1.3433 -0.8104
13040TIP3    H260536   4.743   4.751   4.310 -2.4816  0.4608 -0.9302
13041TIP3   OH260537   1.771   6.094   2.816  0.0614 -0.5020  0.6003
13041TIP3    H160538   1.865   6.093   2.837  0.0822 -1.8424  0.5078
13041TIP3    H260539   1.756   6.181   2.778  1.5081 -0.6588 -0.4220
13042TIP3   OH260540   4.606   1.185  11.395 -0.9661 -0.2742  0.4931
13042TIP3    H160541   4.668   1.116  11.373  1.4376  1.9857 -0.3035
13042TIP3    H260542   4.632   1.214  11.482 -0.0720  1.4239 -0.2789
13043TIP3   OH260543   1.023   2.935   0.318 -0.2583 -0.2725  0.5532
13043TIP3    H160544   0.984   2.996   0.381 -0.9063 -1.0381  0.9179
13043TIP3    H260545   0.978   2.852   0.334 -0.3702 -0.5111 -0.8657
13044TIP3   OH260546   3.740   6.079   1.188 -0.2243 -0.2309  0.0756
13044TIP3    H160547   3.831   6.050   1.186 -0.5203 -1.2029 -0.4833
13044TIP3    H260548   3.742   6.162   1.235  1.1513  0.4909 -1.1597
13045TIP3   OH260549   5.870   4.410  12.313 -0.6331  0.2213  0.1423
13045TIP3    H160550   5.833   4.322  12.315  0.2294 -0.3278 -2.6945
13045TIP3    H260551   5.924   4.416  12.391  0.1140 -2.1782 -0.1340
13046TIP3   OH260552   4.592   1.537  12.794  0.3343  0.2613  0.0187
13046TIP3    H160553   4.518   1.476  12.795  1.1706 -0.7975 -0.7706
13046TIP3    H260554   4.639   1.518  12.875  1.1630 -0.9070 -0.7015
13047TIP3   OH260555   3.821   3.557   0.815 -0.1707  0.2212  0.5596
13047TIP3    H160556   3.837   3.561   0.721 -2.3668 -0.1207  0.1025
13047TIP3    H260557   3.853   3.471   0.842  2.8462  1.2806  0.7178
13048TIP3   OH260558   2.769   5.096   0.799  0.5004 -0.5134  0.0177
13048TIP3    H160559   2.678   5.086   0.827  1.2713 -1.1386  2.6383
13048TIP3    H260560   2.799   5.176   0.843  2.0233 -1.9891  1.8298
13049TIP3   OH260561   2.643   4.987  16.256  0.2556 -0.1632 -0.1069
13049TIP3    H160562   2.605   5.069  16.289  0.9021  0.1819 -0.1999
13049TIP3    H260563   2.683   5.011  16.173  0.1807 -0.6441 -0.2850
13050TIP3   OH260564   1.148   3.120  14.325 -0.0633  0.2855 -0.4217
13050TIP3    H160565   1.181   3.209  14.313  1.1109 -0.3231 -2.2003
13050TIP3    H260566   1.205   3.066  14.270  1.5593 -2.1120  3.2133
13051TIP3   OH260567   3.636   5.951   4.600  0.3210 -0.4371 -0.3008
13051TIP3    H160568   3.608   5.862   4.581  2.1886 -1.3147  0.7536
13051TIP3    H260569   3.556   5.996   4.627 -0.3565 -2.3766  1.1639
13052TIP3   OH260570   0.582   4.208   0.884 -0.2246  0.2989  0.5093
13052TIP3    H160571   0.588   4.113   0.883 -1.3178  0.2188  0.2543
13052TIP3    H260572   0.594   4.233   0.792 -1.2126  0.2953  0.3628
13053TIP3   OH260573   0.531   3.238   0.521 -0.4903  0.2539 -0.0884
13053TIP3    H160574   0.446   3.226   0.478 -0.3289  0.5537 -0.4936
13053TIP3    H260575   0.567   3.318   0.483 -0.0572  0.1733  0.1397
13054TIP3   OH260576   5.242   2.254  11.795  0.6695  0.5142 -0.6405
13054TIP3    H160577   5.226   2.255  11.890 -0.7548  0.7140 -0.8703
13054TIP3    H260578   5.326   2.207  11.786 -0.1168 -1.2484  0.5896
13055TIP3   OH260579   6.518   1.779   5.617  0.2932 -0.1689  0.3362
13055TIP3    H160580   6.565   1.698   5.593 -1.9893 -1.6087  0.4428
13055TIP3    H260581   6.463   1.798   5.541 -1.2068 -0.3053  1.3476
13056TIP3   OH260582   2.420   2.667  16.423 -0.8180 -0.0106 -0.1929
13056TIP3    H160583   2.467   2.668  16.506 -1.5323  1.1622  0.2381
13056TIP3    H260584   2.341   2.719  16.440 -2.0017 -1.4400 -1.0358
13057TIP3   OH260585   0.326   0.815   1.709 -0.1059 -0.1502 -0.4393
13057TIP3    H160586   0.398   0.876   1.698 -1.2544  0.9525 -2.6846
13057TIP3    H260587   0.328   0.761   1.630 -0.1240 -1.9527  0.7332
13058TIP3   OH260588   2.251   6.407   3.544 -0.0183  0.3599  0.0938
13058TIP3    H160589   2.275   6.324   3.503  0.6491  0.2119  0.7554
13058TIP3    H260590   2.312   6.416   3.617 -1.4565  0.3864  1.3509
13059TIP3   OH260591   6.662   6.344   4.850  0.3898 -0.6992 -0.0435
13059TIP3    H160592   6.716   6.270   4.821  1.7567 -0.2231  1.1599
13059TIP3    H260593   6.592   6.305   4.902 -1.2327 -1.4354 -2.6194
13060TIP3   OH260594   5.770   5.639  12.355 -0.1077  0.1861 -0.3419
13060TIP3    H160595   5.760   5.734  12.350  2.1752  0.5010  0.1234
13060TIP3    H260596   5.826   5.618  12.281  0.3346 -0.6505  0.2248
13061TIP3   OH260597   4.337   3.687   6.399 -0.0132 -0.1844  0.5751
13061TIP3    H160598   4.294   3.773   6.395  0.8174  0.2491  0.8446
13061TIP3    H260599   4.405   3.697   6.465  0.4622 -0.8866  0.2048
13062TIP3   OH260600   2.112   5.000   5.630  0.1449  0.3008  0.1657
13062TIP3    H160601   2.147   5.066   5.570 -0.9188  1.6887  1.0091
13062TIP3    H260602   2.131   5.034   5.717 -0.2981 -0.5749  0.6137
13063TIP3   OH260603   4.972   3.928  10.396  0.7806  0.1732  0.3908
13063TIP3    H160604   4.894   3.976  10.425  1.3498  0.8028  0.8790
13063TIP3    H260605   5.046   3.976  10.433  1.3679 -1.0798  0.8843
13064TIP3   OH260606   4.566   5.821   4.573 -0.2940  0.7860  0.5229
13064TIP3    H160607   4.590   5.909   4.603  0.4138  0.3393  1.3070
13064TIP3    H260608   4.643   5.791   4.525  0.4490 -0.3118  2.2896
13065TIP3   OH260609   3.131   5.234  15.439  0.2859  0.0122 -0.0122
13065TIP3    H160610   3.123   5.288  15.517  3.7034  1.0773 -0.2418
13065TIP3    H260611   3.165   5.150  15.471  0.4844  0.0037 -0.2438
13066TIP3   OH260612   4.773   6.275   0.177 -0.1473  0.1076 -0.1520
13066TIP3    H160613   4.764   6.247   0.269 -0.5464  1.9765  0.4324
13066TIP3    H260614   4.855   6.236   0.148  1.0238  1.0973  1.6635
13067TIP3   OH260615   1.085   4.262  14.460 -0.0524 -0.3057 -0.1244
13067TIP3    H160616   1.012   4.213  14.422 -1.0180  1.3541 -0.5288
13067TIP3    H260617   1.064   4.354  14.441  1.7198  0.2693  0.5136
13068TIP3   OH260618   6.497   4.373  16.037  0.3968 -0.6587  0.5116
13068TIP3    H160619   6.457   4.368  15.950  1.0650 -1.5990  0.2417
13068TIP3    H260620   6.488   4.284  16.073  2.0792 -0.8515  0.5081
13069TIP3   OH260621   3.654   6.179  12.754 -0.7404  0.6659  0.0890
13069TIP3    H160622   3.614   6.101  12.793  0.0281  0.4629  0.4924
13069TIP3    H260623   3.667   6.239  12.827  2.6512 -0.5233  0.6722
13070TIP3   OH260624   1.904   4.540  15.391  0.7041  0.0527  0.1084
13070TIP3    H160625   1.919   4.451  15.422 -1.0906  0.0292  1.0693
13070TIP3    H260626   1.818   4.537  15.349  0.5129  1.3711  0.3494
13071TIP3   OH260627   1.609   6.265   3.716 -0.0257 -0.3608  0.2177
13071TIP3    H160628   1.644   6.204   3.652  1.0088 -0.4771  0.8712
13071TIP3    H260629   1.629   6.352   3.680 -0.0755 -0.4206  0.0464
13072TIP3   OH260630   3.215   1.487  15.007 -0.0032 -0.0619 -0.2897
13072TIP3    H160631   3.309   1.476  14.993  0.1516  0.2259  0.5129
13072TIP3    H260632   3.185   1.400  15.034  0.3131  0.1911  0.9512
13073TIP3   OH260633   3.623   0.995   2.873 -0.4705 -0.2384 -0.3217
13073TIP3    H160634   3.594   1.057   2.806  3.3777  2.7232  0.3827
13073TIP3    H260635   3.688   0.941   2.828  1.3106  1.0288  0.6148
13074TIP3   OH260636   4.633   6.418   1.530 -0.1396 -0.3773 -0.1143
13074TIP3    H160637   4.572   6.492   1.541  1.5948  1.0800  0.2532
13074TIP3    H260638   4.648   6.387   1.619  0.9400  0.4054 -0.0021
13075TIP3   OH260639   4.997   0.748   2.181  0.0863 -0.1195 -0.0482
13075TIP3    H160640   4.995   0.843   2.164  2.7166  0.3232  1.6057
13075TIP3    H260641   4.904   0.723   2.185 -0.7973  2.8532  1.7395
13076TIP3   OH260642   6.661   1.145  16.988 -0.3107 -0.0168  0.4822
13076TIP3    H160643   6.696   1.125  17.075 -0.8138 -2.2800  0.2467
13076TIP3    H260644   6.679   1.066  16.936 -3.6303 -0.4202 -0.2967
13077TIP3   OH260645   4.215   6.519  15.849 -0.0517 -0.1844  0.0308
13077TIP3    H160646   4.192   6.431  15.881  0.3830 -0.4372 -0.3363
13077TIP3    H260647   4.300   6.507  15.808  0.4716  0.6160  0.8471
13078TIP3   OH260648   3.202   6.477  16.307 -0.2162  0.2262 -0.2051
13078TIP3    H160649   3.289   6.517  16.312 -0.1317 -0.1150  3.6848
13078TIP3    H260650   3.220   6.384  16.290 -0.0528  0.5348 -1.9735
13079TIP3   OH260651   5.047   3.468  13.319  0.8014  0.2936  0.1534
13079TIP3    H160652   5.140   3.443  13.321  0.6865 -0.1173  0.4718
13079TIP3    H260653   5.041   3.531  13.247  0.8970 -1.5005 -1.5083
13080TIP3   OH260654   2.280   1.837  12.060 -0.1663 -0.4607  0.4347
13080TIP3    H160655   2.325   1.776  12.001 -0.7961 -0.8941  0.3885
13080TIP3    H260656   2.321   1.922  12.043  0.5274 -0.8181  0.2883
13081TIP3   OH260657   4.650   0.285   5.674 -0.7042 -0.1004  0.2918
13081TIP3    H160658   4.722   0.296   5.736  1.4728 -1.9183 -1.7339
13081TIP3    H260659   4.599   0.366   5.682  0.9524  0.8169  2.5464
13082TIP3   OH260660   2.492   0.966   1.980 -0.3081  0.5963  0.2923
13082TIP3    H160661   2.550   1.007   2.044 -0.3959  1.3781 -0.1271
13082TIP3    H260662   2.551   0.910   1.928  0.1446  1.6347 -0.3415
13083TIP3   OH260663   6.544   5.106   0.094 -0.4218  0.3425  0.6894
13083TIP3    H160664   6.526   5.012   0.090 -0.0221  0.2837  0.1237
13083TIP3    H260665   6.464   5.147   0.061  0.1777  0.1079 -1.1752
13084TIP3   OH260666   2.248   3.852  12.389 -0.2504  0.1492 -0.0414
13084TIP3    H160667   2.154   3.861  12.406 -0.5797  1.2556 -2.1510
13084TIP3    H260668   2.253   3.824  12.297  1.4683 -1.4724  0.4820
13085TIP3   OH260669   4.922   0.438   1.330  0.1223 -0.1959  0.2806
13085TIP3    H160670   4.898   0.346   1.318 -0.6136  0.0678 -0.3718
13085TIP3    H260671   4.916   0.452   1.425  1.0633 -1.0301  0.4714
13086TIP3   OH260672   1.385   1.713  11.414 -0.0122 -0.5720 -0.0898
13086TIP3    H160673   1.295   1.743  11.426 -0.1632 -1.6065  1.7069
13086TIP3    H260674   1.439   1.787  11.443 -0.3672 -1.1366  2.2872
13087TIP3   OH260675   3.551   2.203   0.364  0.0384  0.0807 -0.2626
13087TIP3    H160676   3.613   2.195   0.437 -1.9421 -0.0786  1.5132
13087TIP3    H260677   3.541   2.114   0.331 -0.5894 -0.2184  0.6763
13088TIP3   OH260678   2.125   2.130   1.575  0.4148  0.3605 -0.1947
13088TIP3    H160679   2.075   2.094   1.503  0.5649  0.4926 -0.3659
13088TIP3    H260680   2.059   2.159   1.638  0.2972 -0.3782  0.0287
13089TIP3   OH260681   2.306   3.911  13.383  0.0978  0.7297  0.1488
13089TIP3    H160682   2.259   3.874  13.458  1.1007  0.4744  0.6714
13089TIP3    H260683   2.354   3.986  13.419  0.5492  0.6327 -0.2396
13090TIP3   OH260684   1.550   1.798  16.375 -0.4125 -0.3168  0.0060
13090TIP3    H160685   1.634   1.791  16.422  0.3803  0.3789 -1.2695
13090TIP3    H260686   1.548   1.721  16.318 -0.1641  0.1807 -0.6885
13091TIP3   OH260687   5.986   3.307  12.775  0.5106  0.2729 -0.4296
13091TIP3    H160688   5.987   3.332  12.867 -0.0090 -2.4753  0.4210
13091TIP3    H260689   6.005   3.388  12.728  0.5712  1.8143  2.0563
13092TIP3   OH260690   1.250   1.039   0.723 -0.2982  0.3300  0.2720
13092TIP3    H160691   1.232   1.030   0.630 -0.1106  1.4487  0.1137
13092TIP3    H260692   1.308   0.966   0.744 -0.2581  0.1323 -0.5049
13093TIP3   OH260693   4.563   0.257   0.850  0.3956  0.1130  0.7591
13093TIP3    H160694   4.504   0.239   0.924  0.4485  0.4055  0.8717
13093TIP3    H260695   4.636   0.196   0.863 -0.1387 -0.6397  0.3145
13094TIP3   OH260696   1.295   4.627  15.009 -0.2259 -0.3398 -0.5544
13094TIP3    H160697   1.387   4.653  15.023 -0.1614 -0.9306  0.1952
13094TIP3    H260698   1.262   4.691  14.946 -0.2026  1.8822  1.5389
13095TIP3   OH260699   1.468   6.504   0.495 -0.2700 -0.3680 -0.3485
13095TIP3    H160700   1.498   6.529   0.408 -0.3374 -1.3448 -0.6630
13095TIP3    H260701   1.410   6.576   0.522 -1.1278 -0.5609 -1.5737
13096TIP3   OH260702   0.153   1.478   2.885  0.3901 -0.0918 -0.0402
13096TIP3    H160703   0.162   1.447   2.976  0.2242 -0.1715 -0.0497
13096TIP3    H260704   0.232   1.446   2.841 -0.4443 -1.7755 -0.4043
13097TIP3   OH260705   4.859   4.627  14.018 -0.1578 -0.6251 -0.1203
13097TIP3    H160706   4.868   4.705  13.963 -1.1396 -1.0616 -0.9335
13097TIP3    H260707   4.923   4.565  13.982 -0.5600 -0.7886 -0.5602
13098TIP3   OH260708   1.293   6.666  14.542  0.1918 -0.1222 -0.1283
13098TIP3    H160709   1.304   6.607  14.468 -2.4612 -1.1711  0.1950
13098TIP3    H260710   1.315   6.614  14.619  0.1324  0.0348 -0.0024
13099TIP3   OH260711   2.677   5.724  15.991  0.1657 -0.4195 -0.3619
13099TIP3    H160712   2.652   5.632  15.999 -2.6542  0.3368  0.7202
13099TIP3    H260713   2.716   5.746  16.076 -0.2318 -0.3496 -0.1948
13100TIP3   OH260714   6.219   6.301   4.447 -0.3411 -0.0171 -0.1411
13100TIP3    H160715   6.306   6.279   4.481  0.1812 -0.3596 -1.6241
13100TIP3    H260716   6.176   6.346   4.520  0.3827 -1.5081  1.2730
13101TIP3   OH260717   0.169   3.354   5.529 -0.4930  0.1027 -0.1665
13101TIP3    H160718   0.233   3.312   5.586 -1.1056  0.0572  0.5071
13101TIP3    H260719   0.092   3.298   5.533 -1.6000  1.6169  1.3483
13102TIP3   OH260720   5.737   3.841   6.272 -0.5484 -0.0797  0.2565
13102TIP3    H160721   5.763   3.857   6.363 -1.3844 -1.0553  0.7030
13102TIP3    H260722   5.663   3.779   6.280 -1.0449  0.3181 -1.0594
13103TIP3   OH260723   5.494   4.726   4.784  0.2096 -0.7980  0.1321
13103TIP3    H160724   5.495   4.647   4.838  0.6864 -0.6648  0.3193
13103TIP3    H260725   5.575   4.722   4.733 -0.5300 -1.2521 -1.0599
13104TIP3   OH260726   0.594   5.330   6.811  0.1664 -0.2571 -0.2720
13104TIP3    H160727   0.539   5.253   6.826 -0.7705  0.1936 -1.2636
13104TIP3    H260728   0.553   5.399   6.863  1.2422 -0.4930  0.9437
13105TIP3   OH260729   6.196   2.542   4.261  0.0257 -0.2214  0.1089
13105TIP3    H160730   6.227   2.452   4.261 -2.3762 -1.1348 -0.0646
13105TIP3    H260731   6.172   2.559   4.170  0.6734  0.6811  0.0985
13106TIP3   OH260732   3.905   4.890  14.043 -0.3791 -0.0498  0.3704
13106TIP3    H160733   3.812   4.912  14.047 -0.2428  0.7730 -0.5217
13106TIP3    H260734   3.949   4.975  14.043  0.2987 -0.3785 -0.6768
13107TIP3   OH260735   0.747   6.676  14.330 -0.7159  0.0078  0.1495
13107TIP3    H160736   0.748   6.710  14.420 -0.4109 -1.3108  0.6654
13107TIP3    H260737   0.814   6.728  14.284  0.9972 -1.0160  1.3692
13108TIP3   OH260738   0.605   2.045  11.396 -0.6001 -0.1335  0.3170
13108TIP3    H160739   0.536   2.104  11.366 -1.8013 -0.6132  2.0017
13108TIP3    H260740   0.562   1.959  11.400  0.8053 -0.9374 -0.9904
13109TIP3   OH260741   6.036   3.522  10.841  0.2904  0.1513 -0.1504
13109TIP3    H160742   5.946   3.548  10.821  0.7948  1.5417 -0.7451
13109TIP3    H260743   6.046   3.437  10.798 -1.0242 -0.5016  0.7615
13110TIP3   OH260744   6.432   3.002   4.258  0.7180  0.1905 -0.2973
13110TIP3    H160745   6.473   3.030   4.341  0.6117  0.2012 -0.2479
13110TIP3    H260746   6.340   3.023   4.270  0.8244  0.9536 -0.7344
13111TIP3   OH260747   2.485   1.182  13.417 -0.6167 -0.2000 -0.1957
13111TIP3    H160748   2.516   1.272  13.410 -1.2906 -0.0082 -0.8229
13111TIP3    H260749   2.555   1.129  13.377  0.3560 -0.0982  1.2892
13112TIP3   OH260750   6.759   1.286   6.391  0.0578 -0.4764  0.5294
13112TIP3    H160751   6.781   1.236   6.470 -0.7357 -2.0971 -0.2378
13112TIP3    H260752   6.664   1.292   6.392  0.0714 -0.0954 -0.0686
13113TIP3   OH260753   4.469   1.028   5.497 -0.0000 -0.0292  0.5328
13113TIP3    H160754   4.529   0.978   5.552  0.3593  1.2376  1.3278
13113TIP3    H260755   4.522   1.059   5.425  0.0543  0.1883  0.6654
13114TIP3   OH260756   4.086   5.779  15.373 -0.0136 -0.7206  0.1371
13114TIP3    H160757   4.095   5.718  15.447  1.4760 -0.9867 -0.2336
13114TIP3    H260758   4.102   5.726  15.296  2.4102  0.2934 -0.1411
13115TIP3   OH260759   1.336   6.393  15.024 -0.0360 -0.5378  0.8826
13115TIP3    H160760   1.323   6.326  15.092 -0.1022  0.0542  1.4581
13115TIP3    H260761   1.414   6.440  15.051 -0.2532 -0.0825  0.7223
13116TIP3   OH260762   3.127   2.798   1.577 -0.2199 -0.1625 -0.1331
13116TIP3    H160763   3.115   2.750   1.658  2.7458 -0.1743  0.4136
13116TIP3    H260764   3.178   2.740   1.521 -0.6318  0.5529 -1.2987
13117TIP3   OH260765   1.009   0.254   3.084 -0.0261  0.1641  0.4234
13117TIP3    H160766   1.014   0.344   3.051 -1.2251 -0.2439 -1.0143
13117TIP3    H260767   1.088   0.243   3.136  2.0328  0.9280 -2.2985
13118TIP3   OH260768   1.452   2.898  11.814  0.0577 -0.7211 -0.2850
13118TIP3    H160769   1.524   2.908  11.751 -0.9343 -0.6062 -1.4344
13118TIP3    H260770   1.476   2.955  11.886 -0.0071  1.1894 -1.6967
13119TIP3   OH260771   6.709   4.227   6.896 -0.0214  0.1120  0.1676
13119TIP3    H160772   6.791   4.199   6.936  0.7595  0.1970 -1.2950
13119TIP3    H260773   6.658   4.147   6.887  0.8785 -0.3570 -1.0515
13120TIP3   OH260774   4.187   3.539   3.328  0.3520 -0.1601 -0.4267
13120TIP3    H160775   4.175   3.444   3.326 -3.1895  0.1211  0.8649
13120TIP3    H260776   4.242   3.554   3.405 -0.2907 -1.1162  0.2401
13121TIP3   OH260777   6.511   2.637  14.992  0.3148  0.0860 -0.1916
13121TIP3    H160778   6.495   2.652  14.899  2.0165 -0.1344 -0.5650
13121TIP3    H260779   6.424   2.626  15.030 -0.4848  1.2986 -1.5484
13122TIP3   OH260780   2.297   1.325   3.583  0.5859 -0.1675  0.2983
13122TIP3    H160781   2.281   1.266   3.509  1.5518 -1.9686  1.4678
13122TIP3    H260782   2.386   1.356   3.569  0.0134  1.2535 -0.4203
13123TIP3   OH260783   0.101   0.363  14.477 -1.0849  0.0388  0.1592
13123TIP3    H160784   0.115   0.291  14.538 -0.2437 -1.0385 -1.2351
13123TIP3    H260785   0.049   0.427  14.526  1.8091  0.5148  2.9354
13124TIP3   OH260786   1.409   2.209   4.154  0.3717  0.1220  0.0403
13124TIP3    H160787   1.322   2.251   4.158 -1.2100 -2.7786 -0.9287
13124TIP3    H260788   1.391   2.119   4.127  3.6751 -0.8233  0.5417
13125TIP3   OH260789   2.571   5.766  17.150 -0.2542 -0.0808  0.2273
13125TIP3    H160790   2.624   5.818  17.090 -1.4871  1.2877  0.2791
13125TIP3    H260791   2.481   5.781  17.122 -0.8674  0.5765  2.3743
13126TIP3   OH260792   6.040   5.328   2.807  0.4719  0.6271  0.0628
13126TIP3    H160793   6.116   5.270   2.804  0.0699 -0.0301  1.5470
13126TIP3    H260794   6.077   5.416   2.809  1.2065  0.3243  0.4876
13127TIP3   OH260795   1.697   0.602  11.725 -0.1958  0.2505 -0.3196
13127TIP3    H160796   1.773   0.566  11.770 -1.2060 -0.7278  0.6808
13127TIP3    H260797   1.716   0.590  11.632  0.6633 -0.3923 -0.0697
13128TIP3   OH260798   1.254   0.391  16.923 -0.4117 -0.1478  0.2770
13128TIP3    H160799   1.321   0.332  16.957 -0.6506 -0.2620  0.5606
13128TIP3    H260800   1.273   0.475  16.963 -1.6991 -0.6631  2.0853
13129TIP3   OH260801   3.378   2.951   1.086  0.1934  0.5818  0.0019
13129TIP3    H160802   3.464   2.910   1.087  0.2819  0.2576 -4.0533
13129TIP3    H260803   3.319   2.882   1.053 -1.2968  1.3475  0.9432
13130TIP3   OH260804   2.209   4.622  11.192  0.0982 -0.4293 -0.4843
13130TIP3    H160805   2.263   4.667  11.256 -1.9373 -0.0841  1.1030
13130TIP3    H260806   2.265   4.612  11.115  1.7310  1.6378  0.3574
13131TIP3   OH260807   1.911   1.238   4.393  0.0171  0.6321  0.2220
13131TIP3    H160808   2.005   1.240   4.412 -0.1805  1.4213  1.2527
13131TIP3    H260809   1.870   1.222   4.478 -0.8037  0.7846 -0.1338
13132TIP3   OH260810   5.301   5.044  13.781  0.1823 -0.1167  0.5069
13132TIP3    H160811   5.386   5.023  13.820  1.3683  1.7667 -0.9014
13132TIP3    H260812   5.254   5.089  13.851  0.6744 -0.4188  1.0449
13133TIP3   OH260813   2.741   1.791  16.676 -0.1065  0.2878 -0.8365
13133TIP3    H160814   2.701   1.705  16.661  1.4737 -0.4721 -0.9285
13133TIP3    H260815   2.688   1.851  16.625 -0.7766 -0.7619 -1.4227
13134TIP3   OH260816   6.120   2.925  13.325  0.1006 -0.0010 -0.1030
13134TIP3    H160817   6.152   3.014  13.339 -0.4797  0.3099 -0.6833
13134TIP3    H260818   6.133   2.909  13.231 -0.5426 -0.2178 -0.1600
13135TIP3   OH260819   0.267   1.473  12.404  0.2045 -0.2707  0.1325
13135TIP3    H160820   0.182   1.508  12.433  0.1553  1.0814 -1.5328
13135TIP3    H260821   0.245   1.391  12.359 -0.2178  0.0356 -0.2281
13136TIP3   OH260822   0.695   4.124   4.873 -0.5329 -0.2658 -0.5928
13136TIP3    H160823   0.737   4.043   4.903  1.0122  0.0721 -1.6986
13136TIP3    H260824   0.660   4.163   4.952  0.8958 -0.8116  0.3603
13137TIP3   OH260825   4.713   0.562   4.680 -0.0483  0.6628 -0.0599
13137TIP3    H160826   4.687   0.509   4.606  2.0145  0.1972 -0.5285
13137TIP3    H260827   4.689   0.510   4.757  0.4335 -0.2094 -0.4828
13138TIP3   OH260828   2.412   5.349  10.638  0.1992  0.5992 -0.3317
13138TIP3    H160829   2.363   5.390  10.709  0.8656  1.2743 -0.2564
13138TIP3    H260830   2.401   5.255  10.653  1.5008  0.7086  1.4957
13139TIP3   OH260831   1.818   5.840   3.870 -0.5112 -0.0126  0.0003
13139TIP3    H160832   1.723   5.845   3.880 -0.5761  0.0817 -0.5945
13139TIP3    H260833   1.852   5.835   3.959 -1.1087 -0.6490  0.1973
13140TIP3   OH260834   1.440   0.444   4.232 -0.4068 -0.2180  0.2915
13140TIP3    H160835   1.485   0.521   4.195 -0.8928 -0.1954 -0.2718
13140TIP3    H260836   1.368   0.428   4.172 -0.6930 -0.7292  0.7659
13141TIP3   OH260837   4.938   3.186   4.239  0.2369  0.1716 -0.2128
13141TIP3    H160838   4.956   3.101   4.199 -0.8831 -0.0023 -0.3937
13141TIP3    H260839   4.860   3.218   4.193  0.0772  0.8535  0.5064
13142TIP3   OH260840   4.117   0.701  11.254  0.4088 -0.0240 -0.2970
13142TIP3    H160841   4.114   0.619  11.204 -0.2176 -0.0963 -0.1503
13142TIP3    H260842   4.171   0.759  11.200 -0.7459  0.0945 -1.3868
13143TIP3   OH260843   0.785   4.254   3.223  0.1202 -0.2200  0.0611
13143TIP3    H160844   0.863   4.246   3.277 -0.2871  0.0470  0.7025
13143TIP3    H260845   0.713   4.226   3.280 -0.6224  2.2551  0.4813
13144TIP3   OH260846   1.123   0.516  17.137  0.1404  0.2536  0.1812
13144TIP3    H160847   1.148   0.423  17.139 -0.8013 -0.0019  1.5240
13144TIP3    H260848   1.123   0.539  17.044  1.0255 -0.9074 -0.1311
13145TIP3   OH260849   6.770   5.536  13.310  1.3182  0.0398  0.2124
13145TIP3    H160850   6.841   5.588  13.271 -0.1929  1.4292 -0.8261
13145TIP3    H260851   6.723   5.597  13.366  0.7873 -0.8070  0.7102
13146TIP3   OH260852   2.416   0.449   3.743  0.0835  0.1238  0.4405
13146TIP3    H160853   2.492   0.462   3.686 -0.7862  1.8153 -0.4006
13146TIP3    H260854   2.357   0.520   3.721 -1.7517 -1.1154  1.1004
13147TIP3   OH260855   1.683   4.401   5.192 -0.1211  0.0767  0.3053
13147TIP3    H160856   1.777   4.418   5.201 -0.3329  2.0629 -0.7373
13147TIP3    H260857   1.678   4.323   5.138  0.9231 -0.5414  1.0661
13148TIP3   OH260858   0.481   2.952  14.740  0.3685 -0.0872 -0.2135
13148TIP3    H160859   0.451   3.035  14.702 -0.3191  0.2670  1.0352
13148TIP3    H260860   0.576   2.958  14.738  0.3306  0.8576  0.0656
13149TIP3   OH260861   6.129   6.264  13.785 -0.2683  0.0990  0.5100
13149TIP3    H160862   6.175   6.208  13.849  0.0615  0.1547  0.3235
13149TIP3    H260863   6.043   6.222  13.775 -0.4762  0.3117  1.2900
13150TIP3   OH260864   5.921   2.942   4.379 -0.5556 -0.2021 -0.0228
13150TIP3    H160865   5.923   2.847   4.368  0.0894 -0.1281 -0.6065
13150TIP3    H260866   5.890   2.975   4.294 -0.0184  0.1468 -0.0878
13151TIP3   OH260867   2.097   4.176  11.004 -0.0135  0.1947 -0.0109
13151TIP3    H160868   2.034   4.135  10.944 -0.0469  0.2571 -0.0184
13151TIP3    H260869   2.182   4.156  10.965 -0.0575  0.6827 -0.3634
13152TIP3   OH260870   3.728   0.220   0.711 -0.3806 -0.0217 -0.1638
13152TIP3    H160871   3.684   0.270   0.781 -1.0239 -0.9158  0.0802
13152TIP3    H260872   3.814   0.261   0.704 -0.1311 -0.2019  1.4793
13153TIP3   OH260873   1.696   5.082  13.499 -0.0846 -0.4228  0.2051
13153TIP3    H160874   1.622   5.142  13.505 -1.8720 -2.5744  2.2852
13153TIP3    H260875   1.770   5.136  13.472 -1.8978  2.3202  0.3624
13154TIP3   OH260876   2.833   4.435   2.376  0.2876 -0.1009 -0.1210
13154TIP3    H160877   2.738   4.438   2.371  0.2657 -0.3191  0.1706
13154TIP3    H260878   2.861   4.417   2.286  0.1109  1.0726 -0.4343
13155TIP3   OH260879   3.777   4.438   3.605 -0.4379 -0.0673  0.7939
13155TIP3    H160880   3.753   4.411   3.694  0.0880 -0.5265  0.8006
13155TIP3    H260881   3.789   4.533   3.612  0.4183 -0.2028  1.4242
13156TIP3   OH260882   1.741   3.506  16.340 -0.0010 -0.0901  0.1335
13156TIP3    H160883   1.681   3.484  16.412 -0.8035 -0.3634 -0.5918
13156TIP3    H260884   1.740   3.601  16.337  0.2057 -0.0686  0.6169
13157TIP3   OH260885   4.146   4.206  15.646 -0.2069  0.0077 -0.0396
13157TIP3    H160886   4.211   4.274  15.667  0.7878 -0.9464  0.0786
13157TIP3    H260887   4.194   4.145  15.590 -2.1148  1.2627 -3.3218
13158TIP3   OH260888   2.742   1.187  15.060  0.4865 -0.0205 -0.2715
13158TIP3    H160889   2.800   1.260  15.037  0.9083 -0.5358 -0.9039
13158TIP3    H260890   2.655   1.216  15.033  0.5802  0.4152 -0.1197
13159TIP3   OH260891   0.503   3.518  12.633 -0.4298  0.1840 -0.5179
13159TIP3    H160892   0.447   3.595  12.627  0.1954  0.6917  0.0204
13159TIP3    H260893   0.586   3.545  12.591  0.3311  0.3400  1.0174
13160TIP3   OH260894   1.425   2.814  14.633 -0.3735  0.3518 -0.1089
13160TIP3    H160895   1.375   2.894  14.643  0.4871  0.7645  1.1556
13160TIP3    H260896   1.406   2.764  14.713  1.5916  0.7694  0.6909
13161TIP3   OH260897   5.837   0.845  11.499 -0.2023  0.9347 -0.8840
13161TIP3    H160898   5.751   0.827  11.461 -0.7305  1.1607  0.1857
13161TIP3    H260899   5.888   0.765  11.483 -0.8078  0.5630 -0.9655
13162TIP3   OH260900   0.509   3.030  13.134 -0.0608 -0.0885  0.2059
13162TIP3    H160901   0.542   2.954  13.181 -0.6337 -0.6077 -0.2322
13162TIP3    H260902   0.434   2.999  13.085  0.1887  0.5667 -0.6308
13163TIP3   OH260903   4.608   4.613  15.400  0.1698  0.0562  0.6135
13163TIP3    H160904   4.563   4.673  15.341 -0.0704 -1.6753 -1.0712
13163TIP3    H260905   4.668   4.563  15.344  1.6607 -0.1089  2.2283
13164TIP3   OH260906   5.824   6.366  14.464 -0.1583  0.1909  0.0927
13164TIP3    H160907   5.738   6.406  14.451 -0.2412  0.0305  0.1507
13164TIP3    H260908   5.885   6.440  14.460 -0.3435  0.3686  0.5458
13165TIP3   OH260909   5.747   4.714  16.712  0.0833 -0.3694  0.2711
13165TIP3    H160910   5.717   4.746  16.627 -0.9503 -0.0993  0.7234
13165TIP3    H260911   5.679   4.653  16.741  1.9597 -3.0649 -0.5427
13166TIP3   OH260912   3.391   3.947   1.705 -0.2429 -0.0508 -0.3797
13166TIP3    H160913   3.419   3.976   1.618 -2.6469  0.4328 -1.0628
13166TIP3    H260914   3.367   3.855   1.692 -1.3592  0.2371 -0.4496
13167TIP3   OH260915   6.157   6.071  15.802  0.1449 -0.1947  0.2811
13167TIP3    H160916   6.166   6.161  15.771  1.3213 -0.0305  1.0452
13167TIP3    H260917   6.074   6.070  15.850 -0.5050  0.1397 -0.7802
13168TIP3   OH260918   4.015   5.842  12.806  0.4159 -0.6432 -0.0806
13168TIP3    H160919   4.093   5.864  12.753  0.3349  0.5020  0.2458
13168TIP3    H260920   3.969   5.925  12.815  0.8508 -0.6159  2.4947
13169TIP3   OH260921   2.229   1.546  17.134 -0.5704 -0.4736  0.0284
13169TIP3    H160922   2.320   1.563  17.111 -0.1700  0.4600  2.0836
13169TIP3    H260923   2.231   1.467  17.187 -0.7576  0.2567  1.1594
13170TIP3   OH260924   2.854   5.587   3.738 -0.2000  0.5076  0.5915
13170TIP3    H160925   2.842   5.588   3.833 -0.1071 -2.3267  0.7051
13170TIP3    H260926   2.794   5.520   3.707  2.2381 -1.1200 -0.9093
13171TIP3   OH260927   5.531   0.285  11.206  0.0267  0.1043 -0.5126
13171TIP3    H160928   5.584   0.363  11.195 -0.4042  0.3132 -1.1662
13171TIP3    H260929   5.553   0.230  11.130  0.7315 -0.6600  0.2165
13172TIP3   OH260930   3.179   6.737   1.114  0.0740  0.1175  0.1771
13172TIP3    H160931   3.271   6.736   1.088 -0.0984  1.9469 -0.6468
13172TIP3    H260932   3.147   6.823   1.086 -1.5492  0.0432  1.6378
13173TIP3   OH260933   0.484   5.263   1.506 -0.2179  0.2675  0.2517
13173TIP3    H160934   0.440   5.342   1.474  2.4231  1.5735 -0.4906
13173TIP3    H260935   0.426   5.228   1.573 -1.5587  2.7562  0.5044
13174TIP3   OH260936   0.825   0.515  14.659  0.3831 -0.0109  0.3791
13174TIP3    H160937   0.848   0.441  14.716 -1.7856 -0.8047  0.3330
13174TIP3    H260938   0.877   0.502  14.580  3.9616  1.4737  2.3092
13175TIP3   OH260939   1.839   2.579  13.112  0.1297  0.4782  0.5403
13175TIP3    H160940   1.933   2.567  13.110 -0.0559 -1.1545  0.5650
13175TIP3    H260941   1.803   2.491  13.103 -1.4158  1.2192 -1.1613
13176TIP3   OH260942   6.283   2.653  12.022  0.2141 -0.5072  0.5669
13176TIP3    H160943   6.233   2.643  11.941  1.9330  2.2955 -1.0065
13176TIP3    H260944   6.362   2.600  12.007 -0.2826 -1.4707  1.2428
13177TIP3   OH260945   5.695   1.537   2.000  0.2645 -0.1938 -0.3267
13177TIP3    H160946   5.613   1.489   1.992 -1.7085  2.6552  1.0053
13177TIP3    H260947   5.725   1.518   2.089 -1.1426  1.7319  0.6404
13178TIP3   OH260948   2.054   3.879  16.474  0.0633 -0.1223 -0.7686
13178TIP3    H160949   2.121   3.859  16.408  0.8661  0.1185 -0.0479
13178TIP3    H260950   1.999   3.800  16.477  0.1817 -0.2426 -1.5184
13179TIP3   OH260951   3.626   3.863  15.912 -0.4861 -0.4648 -0.1376
13179TIP3    H160952   3.622   3.771  15.884 -0.3939 -0.4156 -0.3142
13179TIP3    H260953   3.599   3.913  15.835  0.4503 -0.2891 -0.3641
13180TIP3   OH260954   0.023   2.019  14.978  0.0180 -0.3101  0.3667
13180TIP3    H160955   0.057   2.044  14.892 -1.7282  0.0299 -0.2653
13180TIP3    H260956   0.063   2.081  15.039 -0.4534  0.9070 -0.5242
13181TIP3   OH260957   4.171   0.962  11.536  0.2692 -0.0984 -0.4928
13181TIP3    H160958   4.107   1.029  11.556  1.5552  1.0784 -0.1567
13181TIP3    H260959   4.192   0.974  11.444  0.3209 -0.2067 -0.4959
13182TIP3   OH260960   3.744   5.440   5.056  0.2785  0.3331  0.0238
13182TIP3    H160961   3.786   5.395   5.129 -0.7736 -1.0366 -0.1766
13182TIP3    H260962   3.753   5.380   4.982 -1.7281  0.1121 -0.0964
13183TIP3   OH260963   5.376   5.969  13.875 -0.1319  0.8493  0.8959
13183TIP3    H160964   5.314   5.906  13.840 -1.0096  2.2863 -0.2250
13183TIP3    H260965   5.334   6.005  13.953  0.3681  0.1028  1.5343
13184TIP3   OH260966   4.018   1.562   4.963 -0.0006  0.1551 -0.1806
13184TIP3    H160967   4.025   1.473   4.997 -0.3259  0.1638 -0.0881
13184TIP3    H260968   4.072   1.562   4.884  0.1522 -0.0703 -0.0791
13185TIP3   OH260969   0.038   0.806  16.362  0.0453  0.0131  0.3085
13185TIP3    H160970  -0.036   0.773  16.309  0.3086  0.1031 -0.1239
13185TIP3    H260971   0.011   0.895  16.387  0.4384  0.4436 -0.7293
13186TIP3   OH260972   3.580   2.237   3.384  0.5176 -0.1303 -0.0583
13186TIP3    H160973   3.529   2.308   3.424  0.2841  0.4078 -1.2665
13186TIP3    H260974   3.625   2.195   3.458 -1.1434 -0.1991  0.9717
13187TIP3   OH260975   1.701   5.178   2.574 -0.6520 -0.0362 -0.0985
13187TIP3    H160976   1.668   5.089   2.590  0.1157 -0.3107  0.0056
13187TIP3    H260977   1.622   5.230   2.558 -1.1713 -0.5766  0.6006
13188TIP3   OH260978   4.728   2.070  10.989  0.5813  0.7415  0.3286
13188TIP3    H160979   4.649   2.061  11.042 -0.0476 -1.3838 -0.8812
13188TIP3    H260980   4.787   2.123  11.044 -1.5052  2.1180  1.3909
13189TIP3   OH260981   2.855   2.461  11.865  0.5236 -0.6283  0.8179
13189TIP3    H160982   2.864   2.368  11.844 -0.4181 -0.4071 -0.7463
13189TIP3    H260983   2.761   2.475  11.877  0.5923  0.2097  0.4886
13190TIP3   OH260984   4.165   0.137  16.466  0.6478 -0.1094  0.0264
13190TIP3    H160985   4.132   0.077  16.400  0.0273 -2.5610  2.3705
13190TIP3    H260986   4.259   0.143  16.449  0.1860  1.3225 -2.4671
13191TIP3   OH260987   5.171   0.710   4.751  0.2077  0.3556 -0.0190
13191TIP3    H160988   5.098   0.658   4.715 -0.6776  1.5809 -0.0540
13191TIP3    H260989   5.224   0.646   4.798 -1.8041 -0.3478  1.4755
13192TIP3   OH260990   1.394   4.774   5.987 -0.4632 -0.7981 -0.5034
13192TIP3    H160991   1.489   4.786   5.981 -0.4411 -1.3688 -1.3275
13192TIP3    H260992   1.373   4.713   5.917 -1.4609 -0.5796 -0.4002
13193TIP3   OH260993   6.140   1.893  16.326  0.2013 -0.0713 -0.2450
13193TIP3    H160994   6.121   1.963  16.389  1.8489 -1.8741  2.4239
13193TIP3    H260995   6.060   1.840  16.325  1.2100 -1.8515  2.9833
13194TIP3   OH260996   1.918   3.989   3.032 -0.0942  0.0964 -0.3720
13194TIP3    H160997   1.948   4.077   3.011  1.8944 -0.2408  0.7745
13194TIP3    H260998   1.963   3.968   3.115 -4.1790 -0.1898  2.0345
13195TIP3   OH260999   3.760   2.436  13.174  0.0279  0.5210  0.3120
13195TIP3    H161000   3.808   2.438  13.257  0.8096  0.0972 -0.1218
13195TIP3    H261001   3.673   2.472  13.196  0.2521  0.5007  1.2861
13196TIP3   OH261002   1.705   4.759  11.898 -0.5844 -0.0618 -0.6382
13196TIP3    H161003   1.706   4.745  11.993  1.0177  0.6737 -0.4972
13196TIP3    H261004   1.696   4.854  11.888  0.0863 -0.0478 -1.1856
13197TIP3   OH261005   2.276   6.444   6.648  0.3921  0.0000  0.4695
13197TIP3    H161006   2.226   6.378   6.696 -0.0466 -0.1693 -0.1987
13197TIP3    H261007   2.300   6.401   6.566 -0.8806  1.0220 -0.4824
13198TIP3   OH261008   5.150   1.529  12.117 -0.5647  0.2292  0.3011
13198TIP3    H161009   5.230   1.581  12.127  0.5774 -1.3299 -0.3134
13198TIP3    H261010   5.142   1.482  12.200 -0.7069  0.2053  0.2730
13199TIP3   OH261011   4.434   5.606  12.608  0.1754 -0.3691 -0.8413
13199TIP3    H161012   4.514   5.597  12.660 -0.5373  2.2372  0.9203
13199TIP3    H261013   4.364   5.573  12.664 -0.2330 -0.6699 -1.5174
13200TIP3   OH261014   1.613   0.048  16.892 -0.2006 -0.1904 -0.5699
13200TIP3    H161015   1.526   0.085  16.881 -0.7014 -1.4111 -0.8725
13200TIP3    H261016   1.605  -0.043  16.863  0.4887 -1.1593  1.9927
13201TIP3   OH261017   2.028   3.309   4.028  0.2550  0.0783  0.2065
13201TIP3    H161018   2.089   3.340   4.094  0.3537 -1.8664  1.0820
13201TIP3    H261019   1.949   3.287   4.076 -0.7944  1.5144 -0.7687
13202TIP3   OH261020   3.966   1.821  15.752  0.7010  0.0390  0.1714
13202TIP3    H161021   3.903   1.769  15.803 -0.3930 -0.8099 -1.9129
13202TIP3    H261022   4.006   1.758  15.691  1.8036  1.0327 -0.1622
13203TIP3   OH261023   1.213   6.177   5.036  0.2195 -0.4745 -0.2131
13203TIP3    H161024   1.291   6.132   5.006 -0.2175 -2.3279  1.2348
13203TIP3    H261025   1.153   6.107   5.062 -1.9237  0.8859 -1.1981
13204TIP3   OH261026   3.788   5.338   1.670 -0.1143  0.3144 -0.4064
13204TIP3    H161027   3.701   5.325   1.632  0.4145 -0.6415 -1.3403
13204TIP3    H261028   3.770   5.371   1.758 -1.5568 -2.4655  0.4959
13205TIP3   OH261029   2.206   4.321   4.938  0.1804  0.4627  0.2594
13205TIP3    H161030   2.253   4.345   5.017  0.1267  0.2540  0.3568
13205TIP3    H261031   2.210   4.398   4.882  1.5541  0.1064 -0.1789
13206TIP3   OH261032   0.784   6.465  14.029  0.2777  0.1583  0.6166
13206TIP3    H161033   0.746   6.544  14.066 -0.1726  0.5325 -0.5837
13206TIP3    H261034   0.868   6.494  13.992  1.0570 -0.3520  1.9112
13207TIP3   OH261035   0.639   1.937  12.474  0.7913 -0.0807  0.0006
13207TIP3    H161036   0.690   1.942  12.555 -1.5846 -0.3363  1.6413
13207TIP3    H261037   0.550   1.916  12.504 -0.6747  1.9629 -2.4804
13208TIP3   OH261038   6.628   1.885  16.181 -0.0109  0.1677  0.5016
13208TIP3    H161039   6.585   1.928  16.107  0.3350  0.2533  0.3503
13208TIP3    H261040   6.565   1.819  16.210 -0.2661  0.3251  0.3124
13209TIP3   OH261041   4.859   0.014  14.288 -0.0220 -0.5086  0.0335
13209TIP3    H161042   4.944   0.014  14.244  0.1077 -3.0201  0.0980
13209TIP3    H261043   4.804  -0.042  14.232 -1.3202  0.2314  0.5369
13210TIP3   OH261044   4.004   5.363  13.198  0.4032 -0.8881 -0.9749
13210TIP3    H161045   3.964   5.441  13.160  1.5910  0.2654  0.0362
13210TIP3    H261046   3.932   5.318  13.242  0.0945  1.0753  0.7247
13211TIP3   OH261047   2.293   0.566  12.320  0.1930  0.1180  0.5044
13211TIP3    H161048   2.281   0.471  12.324 -3.0834  0.4142  3.5444
13211TIP3    H261049   2.240   0.594  12.246 -0.3276 -0.3036  0.7126
13212TIP3   OH261050   3.889   2.377  17.089  0.2694 -0.2570 -0.1869
13212TIP3    H161051   3.905   2.349  17.179 -0.1517 -0.0509 -0.0449
13212TIP3    H261052   3.972   2.416  17.061  0.9382 -1.7947 -0.4603
13213TIP3   OH261053   0.629   4.469  11.494 -0.0454 -0.3047 -0.2053
13213TIP3    H161054   0.702   4.408  11.489  2.1275  2.2181 -2.8517
13213TIP3    H261055   0.648   4.523  11.570  0.2748 -0.3095 -0.2837
13214TIP3   OH261056   1.884   3.880   2.176  0.0861 -0.0410  0.0892
13214TIP3    H161057   1.850   3.969   2.190  0.5084  0.4091 -1.5160
13214TIP3    H261058   1.812   3.823   2.203 -2.0467  0.8933 -3.0415
13215TIP3   OH261059   4.755   0.886   3.553  0.5565  0.5332 -0.3598
13215TIP3    H161060   4.693   0.902   3.624  0.4311 -1.9889  0.1931
13215TIP3    H261061   4.820   0.827   3.591  2.4120  1.7811 -1.4200
13216TIP3   OH261062   5.791   3.065  14.169  0.3322  0.5373  0.3188
13216TIP3    H161063   5.722   3.127  14.147  0.3029  1.1205  1.9254
13216TIP3    H261064   5.766   2.984  14.125 -0.9895  0.9485  0.2848
13217TIP3   OH261065   5.492   1.691  16.056  0.0082 -0.0007  0.1976
13217TIP3    H161066   5.482   1.700  15.961 -1.6903 -1.4728  0.1760
13217TIP3    H261067   5.447   1.768  16.092 -1.4220 -0.6036 -0.1962
13218TIP3   OH261068   5.796   0.613  16.245 -0.2615 -0.6508 -0.6115
13218TIP3    H161069   5.887   0.635  16.263 -0.7201  0.3387  0.6469
13218TIP3    H261070   5.800   0.557  16.168  1.3257  0.2623 -1.2518
13219TIP3   OH261071   4.388   3.996   4.622 -0.6299  0.7969  0.1256
13219TIP3    H161072   4.352   3.991   4.711  1.4508  1.6472  1.0899
13219TIP3    H261073   4.358   4.081   4.589 -1.4439  0.4604 -0.0295
13220TIP3   OH261074   2.972   6.038   5.773  0.2758  0.1270  0.0198
13220TIP3    H161075   2.878   6.042   5.793  0.3337  0.8333  0.2072
13220TIP3    H261076   2.992   5.945   5.767 -1.3245 -0.1374 -4.3638
13221TIP3   OH261077   2.839   3.843  11.453 -0.2385  0.5771  0.4581
13221TIP3    H161078   2.892   3.787  11.397 -1.1325 -0.4359  0.6034
13221TIP3    H261079   2.833   3.926  11.405 -1.6826 -0.5251 -1.3843
13222TIP3   OH261080   5.200   0.812  11.073  0.0007 -0.7031 -0.0427
13222TIP3    H161081   5.245   0.728  11.067  0.4010 -0.5315  0.4466
13222TIP3    H261082   5.111   0.790  11.099 -0.0358 -1.0084 -0.4272
13223TIP3   OH261083   5.122   1.879  14.975 -0.2679  0.2819  0.0830
13223TIP3    H161084   5.073   1.954  14.940 -1.4348 -0.7533 -0.5366
13223TIP3    H261085   5.147   1.828  14.898 -0.9964 -0.8813  0.5926
13224TIP3   OH261086   5.346   2.503  16.236 -0.5782  0.7605 -0.2157
13224TIP3    H161087   5.335   2.597  16.220 -0.7969  0.7385 -0.2038
13224TIP3    H261088   5.392   2.498  16.320  0.6933  0.8797 -0.8824
13225TIP3   OH261089   2.935   3.640   5.438 -0.7140  0.4741  0.5089
13225TIP3    H161090   2.860   3.653   5.381 -0.5784  0.4620  0.3269
13225TIP3    H261091   3.010   3.665   5.385 -0.5316 -0.1346  0.4722
13226TIP3   OH261092   5.197   2.159   2.981 -0.9888 -0.1471 -0.3085
13226TIP3    H161093   5.220   2.113   2.900 -0.3432 -3.8424  1.7030
13226TIP3    H261094   5.102   2.167   2.978 -1.0352 -0.8513 -1.1708
13227TIP3   OH261095   6.339   2.365  16.696  0.2353  0.2553  0.1883
13227TIP3    H161096   6.347   2.417  16.616 -1.5086  0.3853  0.0593
13227TIP3    H261097   6.244   2.351  16.706  0.5453 -1.2967  1.2506
13228TIP3   OH261098   4.685   3.903   0.362 -0.1479 -0.6285  0.2192
13228TIP3    H161099   4.608   3.888   0.308 -0.8755  2.7200  0.0800
13228TIP3    H261100   4.651   3.947   0.440  1.5231  0.4662  0.3775
13229TIP3   OH261101   2.290   0.959   2.203 -0.2975  0.2876  0.2272
13229TIP3    H161102   2.373   0.967   2.251  0.7301 -0.9132 -1.2513
13229TIP3    H261103   2.312   0.984   2.113 -1.3263 -0.8527 -0.3665
13230TIP3   OH261104   0.429   3.505   3.280  0.5479 -0.0765  0.9178
13230TIP3    H161105   0.468   3.591   3.263  1.1502 -0.2281  1.4908
13230TIP3    H261106   0.481   3.445   3.228 -2.2670  0.2685 -2.7102
13231TIP3   OH261107   3.321   4.301   4.816  0.5055  0.6211 -0.5619
13231TIP3    H161108   3.263   4.346   4.754  1.8927  1.2333 -1.4693
13231TIP3    H261109   3.297   4.338   4.901 -1.8741 -0.6969 -0.5657
13232TIP3   OH261110   4.669   1.370  17.117  0.0508  0.7056  0.1232
13232TIP3    H161111   4.749   1.423  17.114  0.0577  0.7487  0.8784
13232TIP3    H261112   4.694   1.286  17.079  0.1301  1.1245 -0.7761
13233TIP3   OH261113   3.857   2.872   5.151  0.7181  0.3079  0.1440
13233TIP3    H161114   3.780   2.906   5.196  1.1312  1.5679 -0.0499
13233TIP3    H261115   3.846   2.901   5.060  0.4951 -1.1500 -0.3176
13234TIP3   OH261116   5.561   3.741   2.515 -0.5707 -0.1509  0.3791
13234TIP3    H161117   5.537   3.715   2.604 -1.1012 -0.1175  0.2494
13234TIP3    H261118   5.529   3.831   2.507  1.0445  0.4867  0.7472
13235TIP3   OH261119   1.606   4.967   2.332  0.5201  0.3423  0.6320
13235TIP3    H161120   1.576   4.972   2.423 -0.2652 -0.0914  0.4054
13235TIP3    H261121   1.569   5.045   2.291 -0.4297 -0.2490  0.3259
13236TIP3   OH261122   5.793   3.973   1.492 -0.3327 -0.3545 -0.3655
13236TIP3    H161123   5.864   4.035   1.507 -0.3471 -0.0887 -1.3113
13236TIP3    H261124   5.777   3.933   1.577 -0.0452  0.6481  0.1734
13237TIP3   OH261125   5.193   6.459   3.625  0.9517 -0.2480 -0.2518
13237TIP3    H161126   5.269   6.428   3.575  1.5917  1.4790 -0.4416
13237TIP3    H261127   5.227   6.479   3.712 -0.2389 -3.6138  1.1515
13238TIP3   OH261128   0.784   2.874  16.920 -0.1664  0.0651  0.2136
13238TIP3    H161129   0.819   2.957  16.951  2.3343 -0.8489  0.0488
13238TIP3    H261130   0.797   2.813  16.992  0.4236 -0.7671 -0.5768
13239TIP3   OH261131   2.580   6.192  11.609 -0.5075  0.6031 -0.4490
13239TIP3    H161132   2.614   6.144  11.685 -0.4599  1.4689  0.0880
13239TIP3    H261133   2.648   6.254  11.587 -1.0073  1.1583 -0.4589
13240TIP3   OH261134   1.556   6.564  16.440  0.0057  0.3795  0.4398
13240TIP3    H161135   1.605   6.555  16.357 -2.1881  0.8359 -0.9859
13240TIP3    H261136   1.569   6.480  16.484  0.1031 -0.4081 -1.0186
13241TIP3   OH261137   5.750   2.595   2.782  0.8525  0.3789 -0.7651
13241TIP3    H161138   5.753   2.553   2.868  2.3205  0.0726 -0.9439
13241TIP3    H261139   5.752   2.522   2.720  0.2770  0.6166 -1.0734
13242TIP3   OH261140   5.637   4.389   3.937  0.3489 -0.0005 -0.1581
13242TIP3    H161141   5.558   4.390   3.883  0.7555 -1.7963 -0.8731
13242TIP3    H261142   5.605   4.391   4.027 -0.3841  1.7550 -0.4085
13243TIP3   OH261143   0.289   5.176   0.610 -0.3177  0.9722 -0.2281
13243TIP3    H161144   0.308   5.245   0.547 -1.5683  0.5613 -1.1098
13243TIP3    H261145   0.205   5.139   0.580  1.0255 -1.9562 -0.7098
13244TIP3   OH261146   0.878   1.716   4.774 -0.0146 -0.1017  0.5934
13244TIP3    H161147   0.969   1.710   4.746  0.3286  1.9840  1.0485
13244TIP3    H261148   0.880   1.694   4.867  0.2133  0.7835  0.8153
13245TIP3   OH261149   2.607   4.121  14.163  0.8219  0.2339  0.0741
13245TIP3    H161150   2.702   4.132  14.169  0.6786  1.1512  1.1044
13245TIP3    H261151   2.577   4.200  14.117  0.5942 -0.2964 -0.7090
13246TIP3   OH261152   0.454   1.116  14.251  0.0327 -0.3221 -0.2049
13246TIP3    H161153   0.543   1.094  14.223 -0.0053 -1.1423  0.2665
13246TIP3    H261154   0.402   1.111  14.172  0.3115 -0.4296 -0.3838
13247TIP3   OH261155   2.359   1.593  16.562 -0.3551 -0.6904 -0.4661
13247TIP3    H161156   2.303   1.541  16.505 -0.9314 -0.7534  0.1417
13247TIP3    H261157   2.388   1.666  16.507 -0.3311 -1.1251 -1.0353
13248TIP3   OH261158   1.711   2.534  16.967 -0.4973  0.1069  0.0773
13248TIP3    H161159   1.669   2.459  16.927  0.5247 -0.8900  0.8156
13248TIP3    H261160   1.764   2.498  17.038  0.7692  1.3968 -0.1445
13249TIP3   OH261161   6.478   4.139  15.444  0.3189  0.4303 -0.2248
13249TIP3    H161162   6.453   4.111  15.356 -1.4085 -0.4349  0.4815
13249TIP3    H261163   6.466   4.234  15.444 -1.1995  0.2701 -0.5050
13250TIP3   OH261164   0.762   0.164   6.187 -0.4460 -0.1382  0.6615
13250TIP3    H161165   0.818   0.093   6.156 -0.5272 -0.3562  1.0089
13250TIP3    H261166   0.704   0.183   6.113  0.3089  0.3262  0.1775
13251TIP3   OH261167   4.923   6.710   0.556  0.0304 -0.4673  0.4179
13251TIP3    H161168   4.978   6.635   0.576  0.9619 -0.1586 -0.8519
13251TIP3    H261169   4.976   6.786   0.581 -0.5713 -0.2035  0.9213
13252TIP3   OH261170   6.472   6.229  10.551  0.5337 -0.5729  0.1826
13252TIP3    H161171   6.516   6.182  10.621  1.8575  0.0323 -0.1993
13252TIP3    H261172   6.399   6.274  10.593  0.1826 -1.7075  0.8169
13253TIP3   OH261173   1.981   1.297   0.089  0.2181 -0.1189 -0.2834
13253TIP3    H161174   2.015   1.209   0.074 -0.7617 -0.2949 -1.5172
13253TIP3    H261175   1.986   1.341   0.004  0.8705  1.0985  0.3461
13254TIP3   OH261176   1.196   3.479   2.268 -0.5012  0.4118  0.1561
13254TIP3    H161177   1.148   3.398   2.286 -0.8014  0.6495  0.4311
13254TIP3    H261178   1.288   3.453   2.268 -0.6013  0.0567  0.1718
13255TIP3   OH261179   6.081   4.185  12.452  0.4011  0.6646  0.4121
13255TIP3    H161180   6.082   4.217  12.362 -3.1498 -0.6832 -0.2794
13255TIP3    H261181   6.043   4.257  12.503 -1.2684  0.0924  0.0494
13256TIP3   OH261182   3.933   3.690   1.099  0.1277 -0.2823  0.3642
13256TIP3    H161183   3.870   3.739   1.046 -0.8466 -0.8213  0.9957
13256TIP3    H261184   3.957   3.615   1.045  1.5859  0.7967 -0.5877
13257TIP3   OH261185   3.204   1.852  12.806 -0.5640 -0.0646 -0.0343
13257TIP3    H161186   3.124   1.841  12.755 -0.0408 -3.1393 -0.3484
13257TIP3    H261187   3.275   1.845  12.742  0.0477  1.9809  0.3352
13258TIP3   OH261188   0.877   4.090   0.733  0.6939  0.0857  0.3479
13258TIP3    H161189   0.851   4.132   0.815  1.4852  1.8078 -0.2491
13258TIP3    H261190   0.893   3.999   0.757  0.8008  0.5324  2.0781
13259TIP3   OH261191   4.564   2.478   5.617 -0.1252  0.0076 -0.4510
13259TIP3    H161192   4.472   2.501   5.626 -0.1005 -0.0458 -0.0720
13259TIP3    H261193   4.564   2.383   5.603 -0.0983 -0.0663  0.0385
13260TIP3   OH261194   0.922   4.943   0.475 -0.1034 -0.2556 -0.4147
13260TIP3    H161195   0.888   4.855   0.491 -0.6124 -0.2303 -1.3101
13260TIP3    H261196   0.932   4.949   0.380  1.3402  0.1423 -0.2596
13261TIP3   OH261197   5.360   2.425   3.065  0.0103  0.2576 -0.3779
13261TIP3    H161198   5.356   2.430   2.969 -2.1116  0.2198 -0.3322
13261TIP3    H261199   5.274   2.454   3.094  0.0907 -1.1801  1.4681
13262TIP3   OH261200   0.645   4.131   2.497  0.0440  0.2387 -0.2808
13262TIP3    H161201   0.591   4.205   2.470 -1.4457  0.3878  2.6759
13262TIP3    H261202   0.716   4.171   2.547  0.1030 -0.2366  0.0175
13263TIP3   OH261203   0.982   2.668   0.753  0.1553  0.3837 -0.1158
13263TIP3    H161204   0.928   2.611   0.807  0.7995 -0.9023 -0.7784
13263TIP3    H261205   1.064   2.677   0.801  0.5134 -0.2831 -0.5895
13264TIP3   OH261206   2.444   5.425   4.812  0.0988  0.5495 -0.3886
13264TIP3    H161207   2.515   5.470   4.858 -1.2076  0.8678  1.4658
13264TIP3    H261208   2.405   5.493   4.756  0.2030  0.8408 -0.1117
13265TIP3   OH261209   4.732   0.919  14.736 -0.1408  0.1155  0.4270
13265TIP3    H161210   4.701   0.831  14.754 -0.4087 -0.4611 -2.2986
13265TIP3    H261211   4.824   0.919  14.763 -0.1222 -1.0417  0.3957
13266TIP3   OH261212   0.337   1.632   5.001  0.3073 -0.3073  0.2698
13266TIP3    H161213   0.393   1.635   5.078 -0.7728 -0.5741  1.0928
13266TIP3    H261214   0.330   1.723   4.973 -1.2862  0.1745  2.0156
13267TIP3   OH261215   4.545   3.449  12.565  0.1392  0.6144  0.1525
13267TIP3    H161216   4.500   3.381  12.516 -1.5785 -0.1555  2.6226
13267TIP3    H261217   4.623   3.468  12.513 -1.0385 -0.7972 -2.3118
13268TIP3   OH261218   5.193   2.681   5.117  0.3669 -0.2472 -0.2904
13268TIP3    H161219   5.179   2.774   5.134  1.1946 -0.2825  0.6298
13268TIP3    H261220   5.179   2.672   5.022 -0.2189  0.7109 -0.3095
13269TIP3   OH261221   1.201   5.379   4.281 -0.3497  0.6739  0.2792
13269TIP3    H161222   1.170   5.316   4.216  1.0770  2.9796 -2.8876
13269TIP3    H261223   1.132   5.381   4.348 -0.8820 -3.4205  0.1272
13270TIP3   OH261224   5.176   6.193  11.172  0.0398 -0.3401 -0.1284
13270TIP3    H161225   5.177   6.226  11.261 -0.1329  2.7678 -1.1550
13270TIP3    H261226   5.235   6.250  11.124 -0.5571 -1.3453 -2.1983
13271TIP3   OH261227   0.367   1.988   0.390  0.2345  0.1635 -0.6910
13271TIP3    H161228   0.408   1.917   0.341  0.8427 -0.4168  0.6013
13271TIP3    H261229   0.294   1.945   0.436  0.9107  0.2363  0.4929
13272TIP3   OH261230   0.550   6.380   3.362  0.1283 -0.2039 -0.1102
13272TIP3    H161231   0.609   6.376   3.286 -0.2538  0.4124 -0.4504
13272TIP3    H261232   0.589   6.446   3.420  0.4629 -0.7327  0.2720
13273TIP3   OH261233   4.004   0.759   6.012  0.4211  0.4635  0.1197
13273TIP3    H161234   3.987   0.801   6.096 -0.3241 -1.8724  1.2151
13273TIP3    H261235   3.923   0.712   5.992  1.3445 -0.8061 -0.7948
13274TIP3   OH261236   0.191   0.311  13.269 -0.0672 -0.2317  0.7597
13274TIP3    H161237   0.209   0.260  13.190  0.8871 -2.5567  2.3656
13274TIP3    H261238   0.103   0.283  13.296 -1.2076  1.9691 -0.4126
13275TIP3   OH261239   2.695   0.163   1.275  0.4576 -0.0655 -0.0650
13275TIP3    H161240   2.630   0.110   1.229  0.2756 -1.8110  2.0161
13275TIP3    H261241   2.643   0.231   1.318 -0.0578 -1.3226  1.4105
13276TIP3   OH261242   3.259   5.042  16.406 -0.3899  0.1101 -0.3468
13276TIP3    H161243   3.187   5.054  16.343 -0.6445  0.4841  0.0155
13276TIP3    H261244   3.217   4.999  16.481 -0.2442  0.3867 -0.1098
13277TIP3   OH261245   6.391   1.129   4.710  0.7804  0.2448 -0.1210
13277TIP3    H161246   6.363   1.111   4.800  0.5216  0.6315 -0.1200
13277TIP3    H261247   6.346   1.063   4.657 -0.1204  0.8372 -0.1153
13278TIP3   OH261248   2.061   6.384  13.247  0.9860 -0.2183  0.1274
13278TIP3    H161249   2.147   6.427  13.246  0.2545  1.5378  2.4847
13278TIP3    H261250   2.034   6.387  13.338 -0.5258 -3.0670 -0.1146
13279TIP3   OH261251   5.725   2.593   0.463 -0.4683 -0.0889  0.0763
13279TIP3    H161252   5.813   2.559   0.448 -0.7810  0.0568 -2.5199
13279TIP3    H261253   5.739   2.681   0.498  0.3710 -0.5495  0.9387
13280TIP3   OH261254   4.974   1.021  15.418 -0.4924  0.2634 -0.1612
13280TIP3    H161255   5.056   1.068  15.433  0.2146 -0.6480 -1.0591
13280TIP3    H261256   4.980   0.988  15.329 -1.0161 -1.3876  0.3651
13281TIP3   OH261257   0.274   2.450  14.078  0.3879  0.1482 -0.0209
13281TIP3    H161258   0.275   2.466  13.983  0.5424 -0.6670 -0.1674
13281TIP3    H261259   0.348   2.500  14.112  0.6875 -0.0184 -0.4160
13282TIP3   OH261260   5.092   2.648  10.871  0.2933 -0.5253  0.2276
13282TIP3    H161261   5.169   2.653  10.814  1.0872 -0.7008  1.2610
13282TIP3    H261262   5.090   2.557  10.900 -1.2693 -0.9481 -1.0612
13283TIP3   OH261263   5.077   2.673   1.929 -0.2403  0.1351  0.0435
13283TIP3    H161264   5.061   2.581   1.905  0.5149  0.2342 -0.9052
13283TIP3    H261265   5.168   2.675   1.958 -0.7005  0.3140  1.5713
13284TIP3   OH261266   5.773   3.361   1.261 -0.7093  0.0268  0.2399
13284TIP3    H161267   5.773   3.436   1.321 -0.1583 -1.7158  2.5699
13284TIP3    H261268   5.680   3.341   1.248 -0.8448  0.1826  0.8992
13285TIP3   OH261269   2.959   4.494  17.114  0.0516 -1.1129 -0.1023
13285TIP3    H161270   3.033   4.500  17.054  0.0436 -0.1909 -0.0407
13285TIP3    H261271   2.998   4.502  17.201 -0.0586 -1.2687 -0.0370
13286TIP3   OH261272   0.732   3.205  11.467  0.0160  0.6667  0.0578
13286TIP3    H161273   0.686   3.195  11.551  0.5453  1.3102  0.4304
13286TIP3    H261274   0.706   3.128  11.417 -0.2195  0.2128  0.8564
13287TIP3   OH261275   4.421   0.412   4.747 -0.3828  0.8271  0.0424
13287TIP3    H161276   4.337   0.456   4.754 -1.2100 -0.7927  1.0849
13287TIP3    H261277   4.454   0.410   4.837  0.9267  1.6930 -0.3960
13288TIP3   OH261278   3.941   3.411  16.886  0.4112  0.2173 -0.3841
13288TIP3    H161279   3.926   3.403  16.792 -1.6616  1.6847 -0.2514
13288TIP3    H261280   4.007   3.480  16.894 -1.2542  1.9359 -0.7647
13289TIP3   OH261281   0.583   4.547   5.028  0.4312  0.0508  0.2104
13289TIP3    H161282   0.560   4.458   5.002 -0.8784  0.6219 -0.7521
13289TIP3    H261283   0.511   4.601   4.993  0.8649  1.4045  1.3155
13290TIP3   OH261284   6.563   0.015   1.718 -0.1307 -0.3213 -0.0692
13290TIP3    H161285   6.519  -0.065   1.692 -1.4920  0.3206  0.1688
13290TIP3    H261286   6.492   0.079   1.728  0.8623  0.7475  0.3229
13291TIP3   OH261287   5.437   6.067   3.592 -0.3641 -0.7108 -0.5868
13291TIP3    H161288   5.366   6.025   3.641  1.6862 -1.7675  1.7304
13291TIP3    H261289   5.473   5.997   3.538 -0.3761 -0.4640 -0.9165
13292TIP3   OH261290   4.179   6.178   4.287  0.2713 -0.4827 -0.0015
13292TIP3    H161291   4.173   6.269   4.261  1.0390 -0.5508 -0.4331
13292TIP3    H261292   4.220   6.134   4.213  0.6117 -1.0376  0.5056
13293TIP3   OH261293   4.261   0.183   5.806  0.6263  0.4147  0.0448
13293TIP3    H161294   4.281   0.208   5.896  1.5536  1.9277 -0.5220
13293TIP3    H261295   4.171   0.152   5.808  0.2724  1.4396  1.3269
13294TIP3   OH261296   0.238   0.297  10.764 -0.2230  0.3772 -0.7175
13294TIP3    H161297   0.247   0.243  10.686 -1.2775 -0.2095 -0.4444
13294TIP3    H261298   0.307   0.364  10.754 -0.4071  0.3938 -2.2003
13295TIP3   OH261299   4.040   4.993  13.316  0.5849 -0.0346  0.4854
13295TIP3    H161300   4.107   5.025  13.377  1.6825 -2.7097  0.8102
13295TIP3    H261301   3.971   4.959  13.372  0.8346 -0.9788  0.2345
13296TIP3   OH261302   4.828   1.078  12.651  0.2293  0.4609 -0.0700
13296TIP3    H161303   4.866   0.990  12.650 -1.3363 -0.2898  1.3377
13296TIP3    H261304   4.836   1.107  12.742  1.2250  2.0601 -0.6119
13297TIP3   OH261305   0.760   4.750   4.296  0.7674  0.0700 -0.3241
13297TIP3    H161306   0.814   4.829   4.302 -0.3667  0.7736  0.9754
13297TIP3    H261307   0.787   4.696   4.370 -0.0682  0.2878  0.1526
13298TIP3   OH261308   4.359   5.216  13.193 -0.9903 -0.1048 -0.1469
13298TIP3    H161309   4.420   5.280  13.228  2.4573 -2.3549 -1.4533
13298TIP3    H261310   4.347   5.152  13.264  0.8502 -1.3094 -0.8508
13299TIP3   OH261311   4.848   4.955   3.761 -0.0565 -0.2451 -0.3319
13299TIP3    H161312   4.833   4.868   3.725 -0.6820 -0.5452  0.6094
13299TIP3    H261313   4.886   5.005   3.689  1.8521 -1.7400 -0.4175
13300TIP3   OH261314   4.079   5.416   4.027  0.2738 -0.3312  0.4402
13300TIP3    H161315   4.112   5.341   3.978  3.0942  1.4033 -0.5400
13300TIP3    H261316   4.050   5.478   3.960  0.5218  0.5373  1.1195
13301TIP3   OH261317   6.470   4.812  13.493  0.2226  0.2873 -0.8725
13301TIP3    H161318   6.422   4.843  13.570 -0.9294  0.4438 -1.6322
13301TIP3    H261319   6.554   4.858  13.497  0.6014 -0.4689  0.8274
13302TIP3   OH261320   3.107   3.877   2.902  0.2634  0.3788  0.8288
13302TIP3    H161321   3.063   3.825   2.970 -1.1937 -0.2548 -0.5443
13302TIP3    H261322   3.200   3.869   2.923 -0.0673 -0.8858  1.9853
13303TIP3   OH261323   5.927   2.585   1.058  0.6614  0.2489  0.7148
13303TIP3    H161324   5.974   2.517   1.010  1.0836 -0.6891  2.3720
13303TIP3    H261325   5.936   2.664   1.004 -0.5115 -1.1298 -1.6620
13304TIP3   OH261326   1.261   1.331  15.618  0.0172 -0.5460 -0.4553
13304TIP3    H161327   1.223   1.262  15.672 -0.9814  0.5119  0.2270
13304TIP3    H261328   1.206   1.333  15.539  0.1344 -0.6240 -0.5395
13305TIP3   OH261329   3.613   4.458   1.149 -0.0864  0.4347  0.1636
13305TIP3    H161330   3.556   4.533   1.166  0.1188  0.2084  2.1406
13305TIP3    H261331   3.599   4.400   1.225  0.7383 -0.9012 -0.6619
13306TIP3   OH261332   4.212   3.590   3.030 -0.0476 -0.3578 -0.6059
13306TIP3    H161333   4.195   3.569   3.122  1.1708  0.4657 -0.1665
13306TIP3    H261334   4.128   3.621   2.997 -0.5850 -0.9750  0.1323
13307TIP3   OH261335   0.954   2.181   3.919  0.1298 -0.2338  0.1112
13307TIP3    H161336   0.910   2.227   3.990 -0.4981  1.0508 -1.0666
13307TIP3    H261337   0.907   2.098   3.911 -3.4244  1.7441 -2.2164
13308TIP3   OH261338   1.494   3.556   2.033 -0.2442  0.7035 -0.0685
13308TIP3    H161339   1.513   3.525   1.944  1.2351  0.4328  0.3196
13308TIP3    H261340   1.556   3.509   2.089 -0.1597  1.9471  0.9315
13309TIP3   OH261341   0.089   4.547  12.285 -0.0374 -0.9027  0.1241
13309TIP3    H161342   0.072   4.617  12.222 -0.6433  0.4545  1.7196
13309TIP3    H261343   0.162   4.580  12.338 -1.5514 -0.5638  2.1199
13310TIP3   OH261344   5.757   3.464  16.074 -0.0843 -0.3955  0.0760
13310TIP3    H161345   5.794   3.376  16.082  1.2045  0.0772 -0.6227
13310TIP3    H261346   5.832   3.522  16.069 -0.9192  0.7882  0.6832
13311TIP3   OH261347   5.243   4.525  16.064  0.3461  0.3721  0.8254
13311TIP3    H161348   5.264   4.439  16.030  2.1271  0.6880  1.0445
13311TIP3    H261349   5.270   4.586  15.995  3.1774  0.9605  2.3223
13312TIP3   OH261350   1.067   2.308   0.826  0.6299 -0.0930 -0.0214
13312TIP3    H161351   1.110   2.371   0.885 -0.2269 -0.1229  0.6504
13312TIP3    H261352   1.118   2.314   0.745  0.7007  1.3209  0.0908
13313TIP3   OH261353   4.526   2.966   4.449 -0.3967  0.5435 -0.7033
13313TIP3    H161354   4.552   2.956   4.357 -1.9398  1.7121 -1.3244
13313TIP3    H261355   4.557   3.053   4.473 -0.0453  0.2603 -0.1265
13314TIP3   OH261356   4.212   3.589  12.997  0.7710 -0.2015 -0.1495
13314TIP3    H161357   4.292   3.537  13.009  1.2225  0.8931  2.2584
13314TIP3    H261358   4.228   3.668  13.049 -2.5170 -0.7251  1.9254
13315TIP3   OH261359   4.816   1.498   1.315 -0.0251 -0.2530 -0.4216
13315TIP3    H161360   4.749   1.537   1.371 -2.2247 -1.8614 -1.7836
13315TIP3    H261361   4.857   1.573   1.271  1.6687  1.0605  2.9980
13316TIP3   OH261362   5.335   3.258  11.496  0.8072  0.1718 -0.1162
13316TIP3    H161363   5.294   3.194  11.438 -0.0750  0.6231 -0.0142
13316TIP3    H261364   5.419   3.218  11.521 -1.1251 -2.6705  2.7577
13317TIP3   OH261365   5.654   5.661   4.148  0.0300  0.0463 -0.5115
13317TIP3    H161366   5.570   5.699   4.121 -1.4308 -3.3270 -1.1695
13317TIP3    H261367   5.712   5.675   4.073 -0.1827  1.4658 -0.4559
13318TIP3   OH261368   6.697   0.034   0.753 -0.8405  0.8003 -0.2116
13318TIP3    H161369   6.674   0.126   0.769 -0.6367  0.4965  2.1525
13318TIP3    H261370   6.700  -0.006   0.840 -2.2225 -1.7922 -1.2371
13319TIP3   OH261371   2.405   3.965   0.953  0.2575 -0.0472  0.1858
13319TIP3    H161372   2.310   3.954   0.949  0.2956 -1.5745  1.9586
13319TIP3    H261373   2.441   3.878   0.935  1.2470  0.2055  0.8117
13320TIP3   OH261374   5.718   1.553  12.707 -0.3030 -0.2482  0.3173
13320TIP3    H161375   5.777   1.486  12.740  0.1426  0.2705  0.5929
13320TIP3    H261376   5.748   1.570  12.617  0.2269  0.2926  0.5877
13321TIP3   OH261377   3.927   5.583   3.818  0.0520 -0.3178 -0.1709
13321TIP3    H161378   3.994   5.650   3.803  1.1914 -1.5215 -0.5640
13321TIP3    H261379   3.908   5.548   3.732 -2.6854  1.4045 -0.4120
13322TIP3   OH261380   6.785   4.504  14.890  0.6335 -0.5419  0.1522
13322TIP3    H161381   6.824   4.504  14.977  1.9780  1.6953 -0.3700
13322TIP3    H261382   6.739   4.420  14.884 -1.6254  0.1742  3.8901
13323TIP3   OH261383   1.055   3.816  12.502  0.3180  0.7852  0.2890
13323TIP3    H161384   1.079   3.877  12.572 -2.1065  0.2555  1.6836
13323TIP3    H261385   1.037   3.872  12.426 -0.5396  1.7259  1.1590
13324TIP3   OH261386   4.736   0.388  13.485 -0.7562 -0.0047 -0.3244
13324TIP3    H161387   4.717   0.454  13.419  1.5942  1.6614  0.5314
13324TIP3    H261388   4.765   0.311  13.436 -1.0701  0.4752 -1.2741
13325TIP3   OH261389   2.551   5.294   1.748 -0.4495 -0.5641 -0.3980
13325TIP3    H161390   2.603   5.327   1.821  1.1435  0.6529 -1.9969
13325TIP3    H261391   2.549   5.367   1.685 -2.6512 -1.1871 -1.1613
13326TIP3   OH261392   1.079   3.390  16.496 -0.5737  0.3491 -0.4711
13326TIP3    H161393   1.076   3.358  16.406  0.8824  1.1126 -0.8299
13326TIP3    H261394   1.032   3.473  16.494 -0.0731  0.6363 -0.6754
13327TIP3   OH261395   1.281   4.637   1.700 -0.1422  0.2311  0.6541
13327TIP3    H161396   1.308   4.678   1.782  1.0956  1.1370 -0.1780
13327TIP3    H261397   1.294   4.543   1.716  0.7257  0.4366  1.2824
13328TIP3   OH261398   0.954   3.226  13.816 -0.1013  0.3406 -0.1548
13328TIP3    H161399   0.976   3.286  13.744  0.4301 -0.1589 -0.4085
13328TIP3    H261400   0.862   3.244  13.833 -0.2959  0.3167 -1.1032
13329TIP3   OH261401   3.188   3.176  12.783 -0.1969 -0.1115  0.2634
13329TIP3    H161402   3.143   3.100  12.820 -1.7125  0.0627 -1.0778
13329TIP3    H261403   3.259   3.139  12.731 -0.3666 -0.5636  0.3469
13330TIP3   OH261404   3.256   2.420  15.206  0.0140  0.3781  0.1395
13330TIP3    H161405   3.232   2.332  15.234 -0.2558  0.5499  0.4508
13330TIP3    H261406   3.175   2.470  15.209  0.4401  1.0470  1.5398
13331TIP3   OH261407   0.763   0.532  13.690 -0.5362 -0.3386 -0.1056
13331TIP3    H161408   0.726   0.591  13.756 -1.2170 -0.4258 -0.4017
13331TIP3    H261409   0.803   0.461  13.741 -3.4209 -1.8614  0.2532
13332TIP3   OH261410   5.650   1.019  10.868 -0.4861  0.6775  0.3240
13332TIP3    H161411   5.699   1.060  10.797 -1.3144  0.6195 -0.2835
13332TIP3    H261412   5.559   1.022  10.840 -1.1231  2.5276  2.2658
13333TIP3   OH261413   3.273   3.970  15.953 -0.0551  0.2773 -0.0949
13333TIP3    H161414   3.273   4.015  16.037  1.0465  2.1867 -1.0784
13333TIP3    H261415   3.216   4.023  15.897  0.2333 -0.2633 -0.9172
13334TIP3   OH261416   4.884   2.951   6.221  0.3533 -0.3849  0.1652
13334TIP3    H161417   4.892   3.047   6.218  2.3087 -0.4671  1.0034
13334TIP3    H261418   4.885   2.930   6.314  0.2948 -1.2345 -0.0211
13335TIP3   OH261419   4.875   0.831   1.124  0.1420 -0.3794  0.0769
13335TIP3    H161420   4.804   0.767   1.117  1.4405 -1.8538 -0.2205
13335TIP3    H261421   4.868   0.864   1.213 -1.2063 -0.1201 -0.0984
13336TIP3   OH261422   4.950   4.033  14.305  0.6346  0.0919 -0.2914
13336TIP3    H161423   4.947   4.127  14.320 -0.0122  0.3394 -1.7822
13336TIP3    H261424   4.947   4.023  14.210 -0.5048 -1.4575 -0.1456
13337TIP3   OH261425   2.966   3.607   0.869 -0.3863 -0.0005  0.1326
13337TIP3    H161426   2.886   3.658   0.879  0.3697  1.1980  0.3140
13337TIP3    H261427   3.018   3.628   0.947  0.8185  0.6207 -0.7799
13338TIP3   OH261428   6.115   0.860  10.967  0.3761 -0.5405  0.4854
13338TIP3    H161429   6.184   0.826  10.910 -0.6947 -1.2306 -0.4402
13338TIP3    H261430   6.060   0.914  10.910  1.5050  2.1230  1.7297
13339TIP3   OH261431   1.519   6.462  12.322 -0.1687 -0.6932 -0.3912
13339TIP3    H161432   1.424   6.463  12.331 -0.1194 -1.3404  0.3288
13339TIP3    H261433   1.537   6.380  12.275  0.0738 -0.8771  0.0233
13340TIP3   OH261434   3.184   5.785   0.354  0.0058 -0.2228 -0.0487
13340TIP3    H161435   3.141   5.703   0.379  0.3183 -1.0532 -2.0121
13340TIP3    H261436   3.143   5.852   0.409 -0.8800 -1.5632  0.9880
13341TIP3   OH261437   0.580   2.614   1.514  0.4777 -0.1648  0.0569
13341TIP3    H161438   0.600   2.534   1.562 -0.3455 -0.8331 -0.6746
13341TIP3    H261439   0.609   2.685   1.571  0.5034 -0.9669  1.0606
13342TIP3   OH261440   6.561   0.044  14.837 -0.4880 -0.1711  0.5432
13342TIP3    H161441   6.571   0.139  14.843 -1.3683 -0.0763  0.6486
13342TIP3    H261442   6.481   0.026  14.885 -0.0059 -1.0447  1.0418
13343TIP3   OH261443   0.742   1.358   0.072  0.0269  0.0750  0.0198
13343TIP3    H161444   0.757   1.351  -0.023 -0.3763 -0.7680  0.0061
13343TIP3    H261445   0.819   1.316   0.111 -0.9058 -1.7648 -0.0017
13344TIP3   OH261446   5.177   0.257  10.503 -0.2012  0.0292 -0.1804
13344TIP3    H161447   5.163   0.346  10.471  0.5026  1.7146  3.6486
13344TIP3    H261448   5.093   0.231  10.540  0.3566  0.4115  1.4318
13345TIP3   OH261449   6.540   4.446  15.308  0.5236 -0.1536  0.1997
13345TIP3    H161450   6.610   4.421  15.369  0.6318  0.2012  0.2275
13345TIP3    H261451   6.532   4.541  15.319  0.3505 -0.1266 -0.1363
13346TIP3   OH261452   3.108   1.330   2.501  0.1799  0.0735  0.4913
13346TIP3    H161453   3.130   1.312   2.592  0.5968 -0.7673  0.2317
13346TIP3    H261454   3.192   1.329   2.455 -0.1515 -0.9250 -0.1297
13347TIP3   OH261455   5.995   6.148   3.523 -0.1326 -0.0488 -0.1902
13347TIP3    H161456   5.940   6.104   3.458  0.0308 -0.9406  0.2577
13347TIP3    H261457   6.080   6.105   3.517  0.3157  0.8418 -0.3808
13348TIP3   OH261458   5.562   6.196  13.698  0.9316 -0.1167 -0.2763
13348TIP3    H161459   5.624   6.222  13.630  1.2945 -0.8459 -0.2310
13348TIP3    H261460   5.557   6.272  13.756  0.0870  0.7816 -1.4721
13349TIP3   OH261461   0.924   4.436   0.171 -0.0091  0.7445 -0.0487
13349TIP3    H161462   0.996   4.446   0.233  0.1627 -0.8413  0.0439
13349TIP3    H261463   0.891   4.525   0.158  0.3395  1.1928  1.8486
13350TIP3   OH261464   3.809   2.444   2.868  0.1888 -0.2407 -0.2522
13350TIP3    H161465   3.772   2.472   2.951 -0.3982 -1.1564 -0.1825
13350TIP3    H261466   3.900   2.421   2.888  0.0761 -0.3692  0.1145
13351TIP3   OH261467   5.777   1.308  11.846  0.1682  0.3099 -0.2238
13351TIP3    H161468   5.864   1.346  11.834  0.4361 -0.8755 -2.8749
13351TIP3    H261469   5.782   1.222  11.803 -2.1820  0.0143 -0.0707
13352TIP3   OH261470   2.810   4.844  11.449  0.5912 -0.2897  0.8780
13352TIP3    H161471   2.889   4.851  11.395  0.9062 -0.1010  1.3492
13352TIP3    H261472   2.753   4.913  11.417  0.1326 -1.1566 -0.2364
13353TIP3   OH261473   6.305   0.878  16.288 -0.6048  0.4198 -0.3826
13353TIP3    H161474   6.301   0.828  16.370  0.7148  2.3420  0.9419
13353TIP3    H261475   6.364   0.828  16.232  0.3275  0.2149  0.7372
13354TIP3   OH261476   5.801   5.376  15.219 -0.1974 -0.1570  0.2794
13354TIP3    H161477   5.880   5.363  15.167  0.1777  0.2061  0.7458
13354TIP3    H261478   5.729   5.373  15.156  0.3851  2.3254 -0.5765
13355TIP3   OH261479   3.565   3.156   1.378 -0.4645 -0.0035 -0.1227
13355TIP3    H161480   3.580   3.143   1.472 -0.5108  2.7443  0.3333
13355TIP3    H261481   3.475   3.190   1.373  0.1076  1.4602 -0.9652
13356TIP3   OH261482   0.318   6.133   0.974  0.2486 -0.0162 -0.1847
13356TIP3    H161483   0.351   6.181   0.898  2.2288 -1.0830 -0.0561
13356TIP3    H261484   0.308   6.200   1.042  2.3154  0.3978 -0.2107
13357TIP3   OH261485   0.571   3.495   3.860  0.0348 -0.3236  0.6940
13357TIP3    H161486   0.508   3.465   3.925  3.0147 -2.3617  2.9078
13357TIP3    H261487   0.627   3.557   3.908  0.1285  1.0006 -1.0227
13358TIP3   OH261488   6.259   5.876  13.321  0.1515 -0.9915 -0.4212
13358TIP3    H161489   6.250   5.969  13.302 -1.5482 -1.2458 -1.0676
13358TIP3    H261490   6.342   5.868  13.368  0.3375  0.8304 -0.3935
13359TIP3   OH261491   3.473   3.712   0.047 -0.0618  0.6991 -0.2852
13359TIP3    H161492   3.565   3.694   0.065  0.2051  0.4636 -1.7866
13359TIP3    H261493   3.433   3.625   0.035 -0.2968  0.8361 -0.5077
13360TIP3   OH261494   5.343   2.661  13.868 -0.4283  0.4462 -0.1710
13360TIP3    H161495   5.272   2.677  13.806  0.2129 -0.1754 -1.1021
13360TIP3    H261496   5.307   2.599  13.931 -0.8480  0.4810 -0.3751
13361TIP3   OH261497   1.324   3.543   5.695  0.0851 -0.4314  0.3787
13361TIP3    H161498   1.413   3.523   5.726  0.5528 -1.7846 -1.6380
13361TIP3    H261499   1.326   3.636   5.674  0.6170 -0.1609  1.5430
13362TIP3   OH261500   2.585   6.586  17.141 -0.1107 -0.2130 -1.4093
13362TIP3    H161501   2.630   6.671  17.141 -2.8706  1.3642 -0.3040
13362TIP3    H261502   2.609   6.546  17.225  0.3497 -0.0659 -1.4659
13363TIP3   OH261503   1.242   0.159  11.613 -0.5673 -0.8146 -0.0494
13363TIP3    H161504   1.206   0.245  11.591 -1.9356 -1.3013  0.1988
13363TIP3    H261505   1.304   0.177  11.684 -0.3479  0.0386 -0.4404
13364TIP3   OH261506   1.901   1.177  11.934  0.5877  0.2441 -0.2822
13364TIP3    H161507   1.970   1.126  11.890  0.6398  0.6956 -0.7283
13364TIP3    H261508   1.948   1.240  11.988  0.5486 -1.0761  1.4001
13365TIP3   OH261509   1.323   4.492  16.276  0.1182 -0.0162  0.4218
13365TIP3    H161510   1.245   4.518  16.326  0.0652  1.7097 -0.4558
13365TIP3    H261511   1.289   4.463  16.192  0.3891  0.1893  0.2396
13366TIP3   OH261512   4.200   3.857   2.325  0.0831  0.5304 -0.3034
13366TIP3    H161513   4.178   3.912   2.249 -0.0958  1.5106  0.4285
13366TIP3    H261514   4.293   3.840   2.317  0.3046  1.5894 -0.1626
13367TIP3   OH261515   2.222   3.375  12.411  0.3098  0.4190 -0.7997
13367TIP3    H161516   2.293   3.431  12.443  2.0977 -1.5853 -1.0130
13367TIP3    H261517   2.223   3.299  12.470 -1.0104 -0.1173 -1.4300
13368TIP3   OH261518   0.155   4.541  11.360  0.1460 -0.1063  0.3885
13368TIP3    H161519   0.246   4.525  11.385 -0.5682 -0.1057  3.3801
13368TIP3    H261520   0.108   4.465  11.392 -1.1684  0.7583  0.5654
13369TIP3   OH261521   0.953   3.472   5.316 -0.0825  0.4111 -0.6197
13369TIP3    H161522   0.906   3.412   5.375  1.1513 -0.5430 -0.5719
13369TIP3    H261523   0.992   3.415   5.250  0.7118  1.2059 -0.8520
13370TIP3   OH261524   5.223   1.394  12.363  0.1827 -0.3497  0.1790
13370TIP3    H161525   5.316   1.388  12.341 -0.0587  0.1581 -1.1094
13370TIP3    H261526   5.196   1.303  12.377  0.7753 -0.5434  0.0848
13371TIP3   OH261527   2.468   1.856   3.441 -0.4900 -0.2528  0.0820
13371TIP3    H161528   2.547   1.855   3.387 -0.4399 -0.9962  0.1594
13371TIP3    H261529   2.458   1.948   3.467  1.4915 -0.4164  1.7354
13372TIP3   OH261530   1.807   3.597  13.630  0.2091  0.0108  0.1404
13372TIP3    H161531   1.774   3.543  13.558  1.6275  0.9599 -1.2789
13372TIP3    H261532   1.878   3.544  13.667  1.4483  0.7323 -1.1058
13373TIP3   OH261533   3.067   0.585  12.965 -0.3563 -0.0892 -0.0784
13373TIP3    H161534   3.066   0.588  13.061 -1.7280 -2.6778  0.0863
13373TIP3    H261535   3.083   0.675  12.939  0.4883  0.6394  2.5706
13374TIP3   OH261536   4.475   1.094   1.781  0.0604 -0.6141  0.0782
13374TIP3    H161537   4.386   1.064   1.767 -0.0106 -0.7330  0.7568
13374TIP3    H261538   4.520   1.077   1.698 -0.1809 -1.8588  0.1882
13375TIP3   OH261539   2.046   6.783  11.122 -0.6007  0.2991  0.1208
13375TIP3    H161540   2.139   6.795  11.139 -0.2777  0.1935 -1.4383
13375TIP3    H261541   2.028   6.840  11.047 -1.8293  0.4105  0.4825
13376TIP3   OH261542   2.750   1.401   3.146 -0.3574 -0.2877 -0.2100
13376TIP3    H161543   2.795   1.370   3.067 -1.7868  0.6335 -1.4414
13376TIP3    H261544   2.724   1.322   3.192  0.2625 -0.8459 -0.7967
13377TIP3   OH261545   6.281   5.872   0.715  0.3421  0.2856  0.3467
13377TIP3    H161546   6.191   5.852   0.687 -0.1916  1.1186  1.3680
13377TIP3    H261547   6.274   5.884   0.809  1.3560  1.2415  0.3214
13378TIP3   OH261548   0.874   3.166  16.444 -0.5428  0.2054 -0.0759
13378TIP3    H161549   0.798   3.148  16.388  0.8619 -2.7076 -1.2399
13378TIP3    H261550   0.929   3.224  16.392  0.0295 -1.2604 -1.1902
13379TIP3   OH261551   2.842   2.040   2.348 -0.7502 -0.4372  0.8469
13379TIP3    H161552   2.785   1.964   2.359 -0.2841 -1.1871 -1.4252
13379TIP3    H261553   2.813   2.080   2.266  1.1925 -0.1680  0.2333
13380TIP3   OH261554   0.996   0.546   2.092 -0.5742  0.4501 -0.2315
13380TIP3    H161555   1.066   0.607   2.069  0.6533 -0.4775  0.8634
13380TIP3    H261556   1.023   0.510   2.177 -1.7270 -0.9192 -0.4077
13381TIP3   OH261557   5.405   5.770  16.875 -0.1600  0.0840  0.1812
13381TIP3    H161558   5.327   5.718  16.889  0.7846 -0.9253  2.0382
13381TIP3    H261559   5.460   5.718  16.817 -0.3134  0.2099 -0.0792
13382TIP3   OH261560   1.589   3.868   4.567 -0.3892  0.3323  0.4482
13382TIP3    H161561   1.638   3.885   4.647 -1.6288  0.5348  1.1784
13382TIP3    H261562   1.576   3.954   4.527 -1.6492  0.4858  1.1611
13383TIP3   OH261563   3.564   3.647  12.339  0.0568  0.1015 -0.4630
13383TIP3    H161564   3.627   3.637  12.411  0.7794 -1.3902 -1.2474
13383TIP3    H261565   3.558   3.742  12.326  1.1023  0.3321  0.5209
13384TIP3   OH261566   1.681   2.866  11.297 -0.0615 -0.0093 -0.3256
13384TIP3    H161567   1.709   2.947  11.340 -1.4052  0.8267 -0.9094
13384TIP3    H261568   1.651   2.810  11.368  1.2651 -0.1779  0.1266
13385TIP3   OH261569   0.876   0.245  15.213 -0.7322  0.1870  0.0448
13385TIP3    H161570   0.873   0.301  15.290 -0.8231  0.2998 -0.0409
13385TIP3    H261571   0.911   0.162  15.245 -0.2320  0.4124  0.1034
13386TIP3   OH261572   4.732   5.957  11.159 -0.3200 -0.1691 -0.0184
13386TIP3    H161573   4.766   6.024  11.218 -0.6254  0.4197 -0.4955
13386TIP3    H261574   4.639   5.951  11.180  0.0624 -1.9703  1.4744
13387TIP3   OH261575   5.853   4.665   2.220  0.1987  0.0522  0.7142
13387TIP3    H161576   5.897   4.716   2.153 -1.4713  1.3100  0.5213
13387TIP3    H261577   5.820   4.587   2.174  0.9439 -0.1836  0.5677
13388TIP3   OH261578   3.911   0.344  15.161  0.2524  0.5685  0.2425
13388TIP3    H161579   3.825   0.343  15.203 -0.5959 -1.5475 -1.3386
13388TIP3    H261580   3.973   0.357  15.233 -1.2061 -1.5316  2.0060
13389TIP3   OH261581   0.197   3.713   4.693  0.6042  0.4692 -0.5069
13389TIP3    H161582   0.224   3.641   4.751 -1.1359 -2.1700 -2.7154
13389TIP3    H261583   0.225   3.792   4.739  1.4416 -1.5081  2.7551
13390TIP3   OH261584   1.912   3.894  12.820  0.8494 -0.1037  0.0953
13390TIP3    H161585   1.906   3.846  12.902 -0.3943  0.5969  0.4318
13390TIP3    H261586   1.970   3.968  12.839  0.5134  0.0927  0.3599
13391TIP3   OH261587   1.377   6.157  16.533  0.2460 -0.8014  0.5791
13391TIP3    H161588   1.455   6.210  16.514  0.5355 -1.1268  0.8380
13391TIP3    H261589   1.335   6.146  16.447 -0.6527  1.1041  0.7421
13392TIP3   OH261590   0.371   6.420   2.038  0.5598 -0.0813  0.2789
13392TIP3    H161591   0.403   6.357   2.103  0.2746 -0.7637 -0.2299
13392TIP3    H261592   0.444   6.482   2.028  1.9345 -1.7835 -1.0823
13393TIP3   OH261593   5.337   0.849   0.059 -0.2345 -0.6342  0.3251
13393TIP3    H161594   5.337   0.842   0.154 -1.6300 -0.6657  0.3474
13393TIP3    H261595   5.411   0.906   0.039  0.4761 -1.1673  1.3716
13394TIP3   OH261596   1.793   3.673  10.502  0.6196  0.6003 -0.6664
13394TIP3    H161597   1.773   3.767  10.511 -0.5397  0.2562  0.9720
13394TIP3    H261598   1.720   3.638  10.452  0.3014  0.3561 -0.0443
13395TIP3   OH261599   3.216   3.495  10.655 -0.3373  0.2172  0.4536
13395TIP3    H161600   3.259   3.421  10.612  1.4220  1.7564 -0.5766
13395TIP3    H261601   3.181   3.458  10.736  1.7352 -1.4640  0.6787
13396TIP3   OH261602   1.932   4.248   2.876  0.2929  0.2937 -0.5226
13396TIP3    H161603   2.004   4.303   2.906  0.9140 -0.8711  0.1973
13396TIP3    H261604   1.861   4.264   2.938  1.1775 -1.2329  0.9543
13397TIP3   OH261605   6.744   2.314  13.614  0.4921  0.3747  0.4836
13397TIP3    H161606   6.752   2.255  13.540  1.2337  0.2923  0.6256
13397TIP3    H261607   6.698   2.263  13.681  1.2788 -0.1063  0.6675
13398TIP3   OH261608   3.632   2.618   6.255 -0.5316 -0.2956  0.9568
13398TIP3    H161609   3.667   2.592   6.170 -0.0231 -0.0701  1.1000
13398TIP3    H261610   3.564   2.553   6.273 -1.7123  0.5099 -0.3195
13399TIP3   OH261611   5.066   2.736   4.310  0.5486 -0.6456  0.8112
13399TIP3    H161612   5.012   2.780   4.245  0.4853 -0.6022  0.8923
13399TIP3    H261613   5.147   2.786   4.311 -0.3284  0.8355  2.4773
13400TIP3   OH261614   1.015   4.802   3.934 -0.4889 -0.4108 -0.1557
13400TIP3    H161615   1.007   4.796   4.029  0.7780  1.2711  0.0925
13400TIP3    H261616   1.102   4.767   3.915 -1.1254 -1.6994 -0.8410
13401TIP3   OH261617   3.864   6.693   2.735 -0.5440 -0.1238  0.6531
13401TIP3    H161618   3.932   6.656   2.791 -0.2827 -0.3031  0.2227
13401TIP3    H261619   3.906   6.702   2.650 -0.6436  1.0641  0.7253
13402TIP3   OH261620   2.645   0.117  10.900 -0.0478 -0.6207 -0.1469
13402TIP3    H161621   2.616   0.181  10.835 -0.8882 -1.3109 -0.4628
13402TIP3    H261622   2.739   0.109  10.884  0.0547  0.4595 -0.1628
13403TIP3   OH261623   5.595   2.062  15.185 -0.1574 -0.2708 -0.2211
13403TIP3    H161624   5.515   2.089  15.229  0.7455  2.3256 -0.0058
13403TIP3    H261625   5.635   1.998  15.243 -0.5607  0.7340  1.2025
13404TIP3   OH261626   2.494   0.472  15.866  0.2883 -0.2226  0.4502
13404TIP3    H161627   2.443   0.483  15.947 -0.9900 -0.6168 -0.2678
13404TIP3    H261628   2.507   0.378  15.859  0.4194 -0.1856  0.2031
13405TIP3   OH261629   5.920   1.346  12.869 -0.1022  0.1912  0.1889
13405TIP3    H161630   5.888   1.390  12.948  0.9350 -0.1819  0.8554
13405TIP3    H261631   5.954   1.262  12.902  2.3081  0.9124 -0.2832
13406TIP3   OH261632   4.423   6.642   1.038 -0.1109 -0.7460 -0.8776
13406TIP3    H161633   4.431   6.691   0.956 -3.3567  0.6661 -0.5248
13406TIP3    H261634   4.348   6.584   1.023 -1.0849 -0.1110  1.1871
13407TIP3   OH261635   3.582   5.370  12.298  0.3060  0.3503  0.1415
13407TIP3    H161636   3.490   5.369  12.272  0.1087  0.8477  0.7765
13407TIP3    H261637   3.620   5.442  12.247  0.6010 -0.5404 -0.9204
13408TIP3   OH261638   4.525   6.609   1.851  0.1651 -0.0618  0.4304
13408TIP3    H161639   4.474   6.534   1.881 -1.3953  0.7071 -0.2146
13408TIP3    H261640   4.461   6.667   1.810  1.5541  0.9811 -0.3436
13409TIP3   OH261641   5.652   5.565   2.205 -0.0009  0.2350 -0.0672
13409TIP3    H161642   5.612   5.540   2.122 -1.9824  1.9948  0.2509
13409TIP3    H261643   5.599   5.639   2.236  2.2068  1.2793  1.5492
13410TIP3   OH261644   3.532   4.351   0.914 -0.4279  0.2985 -0.5062
13410TIP3    H161645   3.529   4.257   0.929  0.9766  0.2797 -0.1891
13410TIP3    H261646   3.548   4.388   1.001 -2.6769  0.9720 -0.3367
13411TIP3   OH261647   0.510   0.810   5.699  0.1664 -0.4377 -0.8431
13411TIP3    H161648   0.599   0.775   5.707 -0.0707 -1.1872 -1.3752
13411TIP3    H261649   0.519   0.903   5.722  1.3999 -0.1192 -2.4133
13412TIP3   OH261650   3.626   3.018   0.855  0.2428 -0.4323  0.0535
13412TIP3    H161651   3.684   3.090   0.832  1.4631 -1.7706 -1.2446
13412TIP3    H261652   3.670   2.973   0.927 -1.1763  0.8387  1.8143
13413TIP3   OH261653   6.322   5.617  11.861 -0.0318 -0.4873 -0.4964
13413TIP3    H161654   6.314   5.547  11.796 -1.0725  0.1010 -1.0202
13413TIP3    H261655   6.331   5.571  11.944  0.1923 -1.2456 -0.9331
13414TIP3   OH261656   4.786   2.327  13.191 -0.1706  0.3112 -0.2101
13414TIP3    H161657   4.787   2.421  13.174  0.6529  0.3818  0.1642
13414TIP3    H261658   4.810   2.287  13.107  0.8627  0.5114 -0.0256
13415TIP3   OH261659   5.562   4.671  15.987  0.2207 -0.3492  0.3416
13415TIP3    H161660   5.471   4.699  15.976  0.8468  1.4016 -0.7723
13415TIP3    H261661   5.557   4.575  15.988 -1.4840 -0.3442 -1.3005
13416TIP3   OH261662   5.241   4.231  17.068 -0.1301  0.5492  0.3047
13416TIP3    H161663   5.215   4.139  17.060  1.3768 -0.0517  1.6827
13416TIP3    H261664   5.222   4.268  16.982 -2.2702 -0.6122  0.1884
13417TIP3   OH261665   2.618   6.725  12.529 -0.3403  0.3406  0.6466
13417TIP3    H161666   2.614   6.685  12.616  1.4462 -0.7453  0.2866
13417TIP3    H261667   2.564   6.668  12.474 -1.0282  0.7162  0.9256
13418TIP3   OH261668   0.125   4.793   3.572  0.0802  0.1075 -0.0576
13418TIP3    H161669   0.139   4.698   3.577  0.2341  0.1604  0.6991
13418TIP3    H261670   0.212   4.829   3.558  0.2089  0.2100  0.9489
13419TIP3   OH261671   5.434   2.385   2.090  1.0605 -0.0714 -0.3166
13419TIP3    H161672   5.421   2.373   1.996  0.7704 -2.2223 -0.0710
13419TIP3    H261673   5.496   2.316   2.115  0.6602  0.0542  1.1500
13420TIP3   OH261674   0.385   5.065  15.596  0.2963 -0.7217  0.0335
13420TIP3    H161675   0.417   4.983  15.634 -1.3896 -0.9066  1.1529
13420TIP3    H261676   0.291   5.051  15.584  0.0121  0.9742  0.0279
13421TIP3   OH261677   0.505   2.850  16.883  0.3635  0.0978 -0.3184
13421TIP3    H161678   0.478   2.831  16.973  1.0773 -1.7249 -0.4420
13421TIP3    H261679   0.600   2.861  16.888  0.4265 -0.1642 -0.8668
13422TIP3   OH261680   6.309   4.162  11.361 -0.4966 -0.4067 -0.2396
13422TIP3    H161681   6.310   4.210  11.444  1.3982 -2.0300  0.7451
13422TIP3    H261682   6.229   4.110  11.365 -0.6397 -0.1583  0.3784
13423TIP3   OH261683   6.674   1.610  11.007 -0.5832  0.9674 -0.3791
13423TIP3    H161684   6.653   1.647  11.093 -0.2165  2.0836 -0.7631
13423TIP3    H261685   6.589   1.592  10.967 -0.7718 -0.4472  0.5618
13424TIP3   OH261686   1.631   2.798  12.816  0.0969  0.3874  0.0400
13424TIP3    H161687   1.560   2.789  12.880  0.6349 -0.4133  0.5334
13424TIP3    H261688   1.631   2.715  12.769  0.8889  0.2696  0.2335
13425TIP3   OH261689   6.402   6.159   0.287 -0.1801  0.2899 -0.0071
13425TIP3    H161690   6.375   6.143   0.197 -0.7896  1.1742  0.0064
13425TIP3    H261691   6.374   6.081   0.335  1.0260 -0.6215 -0.7476
13426TIP3   OH261692   3.095   1.088  16.760 -0.2640 -0.6178 -0.1266
13426TIP3    H161693   3.005   1.056  16.769 -0.4219 -0.2489 -0.3759
13426TIP3    H261694   3.101   1.118  16.670  0.3735 -1.4323 -0.3699
13427TIP3   OH261695   3.449   3.518   4.160 -0.3988  0.1503 -0.3391
13427TIP3    H161696   3.431   3.515   4.066 -0.7019 -1.7597 -0.2531
13427TIP3    H261697   3.363   3.535   4.199 -0.3684  0.4029 -0.3822
13428TIP3   OH261698   3.499   4.665   0.331  0.3794 -0.1559 -0.4755
13428TIP3    H161699   3.547   4.711   0.400 -0.7767 -0.0631  0.3083
13428TIP3    H261700   3.523   4.573   0.342  0.8960 -0.0277 -0.5300
13429TIP3   OH261701   4.473   3.491  11.598 -0.0065 -0.4466  0.1285
13429TIP3    H161702   4.433   3.568  11.558 -0.9801 -0.7692  0.4512
13429TIP3    H261703   4.511   3.442  11.525 -1.0707 -0.6305 -0.3205
13430TIP3   OH261704   0.351   5.281   5.080  0.1403  0.1414 -0.3126
13430TIP3    H161705   0.370   5.226   5.005 -1.6288 -0.2166 -0.5413
13430TIP3    H261706   0.399   5.363   5.064 -1.1115  0.5162 -2.4274
13431TIP3   OH261707   1.271   6.435   5.519 -0.0475 -0.1165  0.2941
13431TIP3    H161708   1.188   6.468   5.482 -0.1574 -0.6159  0.0945
13431TIP3    H261709   1.284   6.350   5.477 -0.4228 -0.9200  1.7623
13432TIP3   OH261710   2.703   5.763  14.810 -0.4690 -0.2430 -0.0826
13432TIP3    H161711   2.661   5.720  14.735  1.4089 -1.7326 -0.3564
13432TIP3    H261712   2.727   5.849  14.777 -0.1886 -0.6716 -1.0492
13433TIP3   OH261713   4.378   6.506  12.675 -0.1564  0.3820  0.7577
13433TIP3    H161714   4.361   6.415  12.700 -0.6761  0.8162  2.0983
13433TIP3    H261715   4.417   6.501  12.588 -0.5345 -1.0976  0.6573
13434TIP3   OH261716   3.359   5.623  14.400 -0.3053 -0.0200  0.3032
13434TIP3    H161717   3.367   5.528  14.390  2.1917  0.0990  0.6114
13434TIP3    H261718   3.334   5.635  14.492  0.5147 -0.3425  0.5735
13435TIP3   OH261719   0.948   1.095   0.133 -0.1196 -0.1410 -0.0267
13435TIP3    H161720   1.022   1.146   0.167 -0.2136  0.4635 -0.6910
13435TIP3    H261721   0.989   1.024   0.085  0.0925  0.8909 -1.4554
13436TIP3   OH261722   5.034   3.268   0.776 -0.1562  0.1251  0.0637
13436TIP3    H161723   5.014   3.316   0.857  0.9621 -1.4821  1.3594
13436TIP3    H261724   5.051   3.179   0.805  2.5762 -0.0147 -1.6357
13437TIP3   OH261725   6.510   3.454   0.966  0.3561  0.0332  0.3589
13437TIP3    H161726   6.471   3.539   0.945  2.3533  0.9610  0.2400
13437TIP3    H261727   6.539   3.420   0.881 -0.4435 -0.8080  0.4027
13438TIP3   OH261728   2.264   2.863   0.390 -0.2194 -0.3641 -0.0782
13438TIP3    H161729   2.188   2.865   0.449  0.2982 -0.7615  0.6148
13438TIP3    H261730   2.338   2.884   0.447  0.4715 -2.0770 -0.3008
13439TIP3   OH261731   0.201   2.223   4.819 -0.3622  0.4153  0.4236
13439TIP3    H161732   0.163   2.273   4.747 -2.2722  2.5140  2.7385
13439TIP3    H261733   0.181   2.274   4.898  1.3535 -1.9058  2.5242
13440TIP3   OH261734   4.710   5.724   5.917  0.2617  0.0069  0.2698
13440TIP3    H161735   4.706   5.656   5.984  1.1356  1.3962  1.7961
13440TIP3    H261736   4.705   5.806   5.966 -0.4572  1.0673 -1.4909
13441TIP3   OH261737   6.193   5.392  14.345  0.1307  0.2609  0.6401
13441TIP3    H161738   6.139   5.460  14.306  0.2577  0.9213  1.5899
13441TIP3    H261739   6.170   5.313  14.297 -0.2586  0.9042 -0.2607
13442TIP3   OH261740   2.101   3.166   5.070  0.0299  0.0500  0.1534
13442TIP3    H161741   2.116   3.081   5.030 -0.9726  0.1853 -0.5429
13442TIP3    H261742   2.160   3.225   5.025 -2.0042  0.4699 -2.1530
13443TIP3   OH261743   2.756   5.366  15.506  0.0288 -0.1543 -0.1587
13443TIP3    H161744   2.665   5.385  15.530  0.5131  0.0400  1.6687
13443TIP3    H261745   2.806   5.435  15.548  0.9602  0.6130 -2.3601
13444TIP3   OH261746   6.395   4.647   4.111 -0.5151 -0.1722  0.0558
13444TIP3    H161747   6.385   4.575   4.173  0.0246 -0.8155 -0.5944
13444TIP3    H261748   6.312   4.695   4.116  0.3895  1.4024  3.2513
13445TIP3   OH261749   5.337   4.737  12.027  0.1446 -0.5394  0.0606
13445TIP3    H161750   5.427   4.754  12.057  0.3305 -1.7121  0.2223
13445TIP3    H261751   5.303   4.675  12.092 -0.6995 -0.2888 -0.1443
13446TIP3   OH261752   0.757   2.740   5.666 -0.4253 -0.1334 -0.5747
13446TIP3    H161753   0.697   2.744   5.591 -0.7332  0.4689 -0.3090
13446TIP3    H261754   0.835   2.785   5.635  0.7824 -2.7993 -1.6705
13447TIP3   OH261755   4.872   1.309  16.051  0.6856  0.3134  0.6138
13447TIP3    H161756   4.870   1.397  16.013  2.4373  0.5340  0.9423
13447TIP3    H261757   4.963   1.282  16.044 -0.2610 -2.8428 -2.4810
13448TIP3   OH261758   2.246   2.598   2.567 -0.0434  0.3755 -0.1554
13448TIP3    H161759   2.189   2.552   2.628  0.3040 -1.3748 -1.0518
13448TIP3    H261760   2.249   2.688   2.598  0.0571 -0.4185  2.3241
13449TIP3   OH261761   6.425   1.496  13.356  0.4145  0.3671 -0.0653
13449TIP3    H161762   6.465   1.477  13.271 -1.9724  0.2300 -1.2359
13449TIP3    H261763   6.378   1.415  13.379  0.4106  0.6636  1.0259
13450TIP3   OH261764   0.589   5.887   2.330 -1.2651 -0.2389 -0.7435
13450TIP3    H161765   0.521   5.919   2.388 -0.0803 -1.2389  1.2862
13450TIP3    H261766   0.625   5.966   2.289 -0.2702  0.8473  2.0322
13451TIP3   OH261767   4.130   5.993   0.362 -0.1761  0.6545 -0.1672
13451TIP3    H161768   4.191   6.062   0.386 -0.0853  0.4182  0.2914
13451TIP3    H261769   4.183   5.930   0.314 -0.3472  1.1019 -0.9701
13452TIP3   OH261770   1.662   6.249  11.458  0.0941 -0.4482 -0.0115
13452TIP3    H161771   1.722   6.256  11.384 -0.5193 -2.0261 -0.6969
13452TIP3    H261772   1.576   6.234  11.418 -0.3149 -0.8833  1.0030
13453TIP3   OH261773   0.430   2.154  14.517  0.0610  0.3510 -0.3793
13453TIP3    H161774   0.455   2.132  14.427 -1.3156  1.5878 -1.0884
13453TIP3    H261775   0.449   2.074  14.566  3.1640  0.4046 -1.2370
13454TIP3   OH261776   1.253   5.647  15.836 -0.2861 -0.0934  0.0417
13454TIP3    H161777   1.310   5.626  15.910  0.9232 -0.5945 -0.9808
13454TIP3    H261778   1.279   5.735  15.810 -2.3376  1.0815  1.6057
13455TIP3   OH261779   1.311   3.552  13.740 -0.4029  0.0747 -0.3717
13455TIP3    H161780   1.227   3.568  13.783 -0.9491 -0.1576 -1.3265
13455TIP3    H261781   1.313   3.458  13.726  0.5779 -0.0934  0.7422
13456TIP3   OH261782   4.808   6.661   3.883  0.0604  0.3192  0.1440
13456TIP3    H161783   4.792   6.620   3.967  0.4241  1.1618  0.6398
13456TIP3    H261784   4.883   6.613   3.847  0.2632  0.3187  0.5607
13457TIP3   OH261785   3.793   4.289  14.621 -0.5807 -0.5594 -0.3130
13457TIP3    H161786   3.791   4.196  14.642 -1.1981 -0.4730  0.0338
13457TIP3    H261787   3.725   4.300  14.554 -0.7080 -0.3136 -0.1467
13458TIP3   OH261788   5.328   2.029  15.051  0.0971  0.3150 -0.1708
13458TIP3    H161789   5.233   2.015  15.058 -0.1997  1.0745 -2.0926
13458TIP3    H261790   5.343   2.044  14.958  2.0125  0.9993  0.2067
13459TIP3   OH261791   0.892   4.555  14.672  0.1484  0.1231 -0.1061
13459TIP3    H161792   0.885   4.531  14.580 -1.2613  0.3185 -0.0637
13459TIP3    H261793   0.808   4.530  14.710  1.0668 -0.8898  1.3652
13460TIP3   OH261794   5.299   1.376   4.397  0.1592 -0.0868  0.2836
13460TIP3    H161795   5.338   1.352   4.481  2.2757  1.4592 -0.2025
13460TIP3    H261796   5.371   1.374   4.335 -0.4694  2.8812 -0.6727
13461TIP3   OH261797   0.959   0.004  15.303  0.5191  0.1686 -0.5057
13461TIP3    H161798   1.052  -0.016  15.294  0.1844 -0.3534 -3.9371
13461TIP3    H261799   0.915  -0.080  15.287 -0.6082  0.3803  1.1736
13462TIP3   OH261800   6.633   4.728  16.840  0.1850  0.3396  0.1486
13462TIP3    H161801   6.698   4.778  16.889 -1.9518  0.9084  2.6521
13462TIP3    H261802   6.572   4.795  16.808 -0.8143 -0.3792  0.5177
13463TIP3   OH261803   5.589   5.429  16.825  0.1876  0.4685 -0.0351
13463TIP3    H161804   5.558   5.438  16.915 -1.6906  0.4784 -0.6287
13463TIP3    H261805   5.632   5.512  16.806  1.1139  0.2437  1.0256
13464TIP3   OH261806   0.017   4.845   1.264 -0.8375 -0.0262  0.7711
13464TIP3    H161807   0.061   4.924   1.298  0.8432 -2.1125  3.9540
13464TIP3    H261808  -0.064   4.840   1.314 -1.9292  0.6189 -0.8422
13465TIP3   OH261809   2.401   2.900   4.566  0.6495 -0.0412 -0.3266
13465TIP3    H161810   2.405   2.815   4.523 -0.6987 -0.4846  0.3743
13465TIP3    H261811   2.354   2.884   4.647  3.5371  0.6748  1.6542
13466TIP3   OH261812   2.856   1.791   0.792  0.1556  0.3446  0.1751
13466TIP3    H161813   2.764   1.802   0.770  0.4180 -0.0446 -1.1944
13466TIP3    H261814   2.858   1.795   0.887 -1.3997 -0.6651  0.2792
13467TIP3   OH261815   6.342   3.385   5.315 -0.2694  0.0609  0.0155
13467TIP3    H161816   6.375   3.318   5.374  0.3363  0.6260  0.3409
13467TIP3    H261817   6.416   3.403   5.256  0.2854  1.7916  1.1451
13468TIP3   OH261818   1.350   2.450   2.135 -0.1366  0.1317  0.2106
13468TIP3    H161819   1.435   2.469   2.094  0.6763 -1.3973  1.0956
13468TIP3    H261820   1.365   2.462   2.229  0.0062 -2.9254  0.6948
13469TIP3   OH261821   3.153   0.158  14.755 -0.1431  0.3800  0.1450
13469TIP3    H161822   3.222   0.184  14.817 -0.4198  0.3397  0.4744
13469TIP3    H261823   3.150   0.230  14.692  1.8127 -0.6711 -1.2627
13470TIP3   OH261824   4.432   1.953  13.937  0.1017  0.2735  0.3572
13470TIP3    H161825   4.521   1.989  13.933  0.7203 -1.2193 -0.1310
13470TIP3    H261826   4.445   1.859  13.950 -1.3059 -0.3521 -2.0930
13471TIP3   OH261827   1.503   5.241  15.415  0.0414 -0.0338  0.2198
13471TIP3    H161828   1.410   5.264  15.414  0.1560  0.4566 -0.4734
13471TIP3    H261829   1.529   5.249  15.506 -0.6065 -0.2167  0.4268
13472TIP3   OH261830   3.747   2.150  14.452 -0.0881  0.0491 -0.3142
13472TIP3    H161831   3.800   2.136  14.374 -0.5457 -1.2255 -0.4166
13472TIP3    H261832   3.711   2.064  14.472 -0.6398  0.5292  0.8243
13473TIP3   OH261833   2.695   1.419  14.274 -0.9742 -0.2184 -0.3136
13473TIP3    H161834   2.715   1.505  14.237  0.8590 -0.5646 -0.2707
13473TIP3    H261835   2.754   1.412  14.350  0.2317 -2.1697 -1.3458
13474TIP3   OH261836   0.601   5.328   0.445 -0.7509  0.0241  0.8800
13474TIP3    H161837   0.508   5.342   0.462 -0.9185  1.2336 -0.7629
13474TIP3    H261838   0.604   5.293   0.355  0.4375  1.9974  0.0911
13475TIP3   OH261839   0.313   1.977  13.116  0.3006  0.0608 -0.6674
13475TIP3    H161840   0.281   1.977  13.025  0.6212  2.1074 -0.8226
13475TIP3    H261841   0.371   2.053  13.121  0.7827 -0.3891  1.0974
13476TIP3   OH261842   6.661   5.380   0.518  0.0363 -0.1041  0.4434
13476TIP3    H161843   6.744   5.350   0.482 -0.2179 -2.3880  1.5732
13476TIP3    H261844   6.595   5.348   0.456 -0.0536  2.5701 -1.0016
13477TIP3   OH261845   2.154   5.418   5.380  0.1447 -0.2335  0.0884
13477TIP3    H161846   2.205   5.489   5.341  0.5129 -0.0523  0.8679
13477TIP3    H261847   2.098   5.462   5.445 -0.0445 -0.5881  0.1705
13478TIP3   OH261848   3.047   4.549   5.209 -0.0960 -0.2727  0.1906
13478TIP3    H161849   3.009   4.585   5.290  1.7647  1.6399  0.2830
13478TIP3    H261850   3.005   4.599   5.139  0.5816  0.2788  0.1710
13479TIP3   OH261851   3.541   3.679  14.854 -0.4988  0.5513  0.5210
13479TIP3    H161852   3.480   3.681  14.779  1.4929  1.7167 -1.1873
13479TIP3    H261853   3.569   3.587  14.859 -0.2350  0.5463 -0.5912
13480TIP3   OH261854   0.559   4.699   4.609 -0.7598 -0.1023 -0.0143
13480TIP3    H161855   0.574   4.790   4.584 -2.6024  0.5274  0.9728
13480TIP3    H261856   0.587   4.648   4.534 -0.9928  1.3788 -1.1430
13481TIP3   OH261857   3.468   0.053   1.767 -0.2255  0.1852  0.3329
13481TIP3    H161858   3.526   0.035   1.841 -0.9563 -1.5243  0.5250
13481TIP3    H261859   3.427   0.137   1.789  1.8751  1.2716  0.3396
13482TIP3   OH261860   6.451   6.272  16.509  0.0001  0.4634  0.4473
13482TIP3    H161861   6.529   6.258  16.455 -1.0396  1.1292 -1.3500
13482TIP3    H261862   6.380   6.232  16.459 -1.0062  0.9993  1.4026
13483TIP3   OH261863   2.913   4.556  11.947 -0.4364  0.1502 -0.0817
13483TIP3    H161864   2.823   4.563  11.914 -0.3398  0.6650 -0.2476
13483TIP3    H261865   2.962   4.620  11.896  0.3307 -1.1097 -0.9964
13484TIP3   OH261866   5.055   2.246   0.264  0.1477 -0.0861 -0.2321
13484TIP3    H161867   5.098   2.331   0.255  0.6990 -0.4798 -1.6073
13484TIP3    H261868   5.049   2.213   0.175 -3.3291  0.0774 -0.2073
13485TIP3   OH261869   1.718   3.781  16.009 -0.4409 -0.2950 -0.3483
13485TIP3    H161870   1.674   3.820  15.934 -0.5514  2.8965  1.2129
13485TIP3    H261871   1.648   3.753  16.067 -0.3489 -2.3706 -1.1465
13486TIP3   OH261872   5.404   0.995  11.183  0.6428 -0.4612 -0.3931
13486TIP3    H161873   5.362   0.909  11.187  0.5675 -0.4233 -0.3734
13486TIP3    H261874   5.413   1.012  11.089 -2.2968  0.9513 -0.5231
13487TIP3   OH261875   2.936   2.531  16.391  0.1328 -0.6026 -0.8543
13487TIP3    H161876   2.958   2.611  16.438  0.1338 -0.9060 -0.3280
13487TIP3    H261877   2.872   2.487  16.448 -1.0318 -0.2454 -1.8486
13488TIP3   OH261878   1.701   1.998  16.838  0.2242 -0.5275 -0.1978
13488TIP3    H161879   1.711   1.979  16.932  1.1168  1.4070  0.1545
13488TIP3    H261880   1.789   2.022  16.809 -0.4457  1.2681 -0.9282
13489TIP3   OH261881   5.452   5.043   3.527  0.1987 -0.5106 -0.1001
13489TIP3    H161882   5.491   4.965   3.487  0.5272 -1.1772  1.4540
13489TIP3    H261883   5.367   5.053   3.483  0.4669 -1.3077 -0.8276
13490TIP3   OH261884   1.270   1.627   2.314  0.2121  0.4266 -0.1389
13490TIP3    H161885   1.248   1.620   2.221 -0.0258 -0.5027 -0.0217
13490TIP3    H261886   1.355   1.672   2.315 -0.4503  1.7388 -0.7180
13491TIP3   OH261887   1.882   5.511   0.270 -0.4481  0.0911 -0.3991
13491TIP3    H161888   1.803   5.532   0.319  0.0171  1.3895 -0.1717
13491TIP3    H261889   1.882   5.572   0.196  0.5526  0.4050 -0.1569
13492TIP3   OH261890   3.400   1.119   4.533  0.1006  0.3365 -0.1442
13492TIP3    H161891   3.442   1.185   4.478  2.3743  0.0386  1.1159
13492TIP3    H261892   3.423   1.036   4.492 -3.4542  0.1757 -2.2170
13493TIP3   OH261893   1.740   0.661  15.649  0.4668  0.9124  0.0059
13493TIP3    H161894   1.646   0.669  15.659  0.3934  0.4908 -0.3380
13493TIP3    H261895   1.769   0.616  15.729  0.3875  1.0795  0.1311
13494TIP3   OH261896   4.972   6.597  15.825 -0.2416  0.4105 -0.7402
13494TIP3    H161897   4.975   6.607  15.730 -0.5690  4.0229 -0.4824
13494TIP3    H261898   5.056   6.630  15.856 -0.7807  0.8727  0.3049
13495TIP3   OH261899   6.511   1.208  12.654  1.2880 -0.0660 -0.2107
13495TIP3    H161900   6.485   1.131  12.705  1.2918 -1.0118 -1.5864
13495TIP3    H261901   6.490   1.185  12.564  0.2157  2.0294 -0.5325
13496TIP3   OH261902   1.160   1.381  17.061  0.2015 -0.0609  0.7552
13496TIP3    H161903   1.145   1.318  17.131 -1.4491 -0.6455 -0.0810
13496TIP3    H261904   1.128   1.464  17.095  2.2341  0.3744  1.7993
13497TIP3   OH261905   4.240   3.646  16.617 -0.4888  0.2865  0.4813
13497TIP3    H161906   4.166   3.699  16.586 -0.7031  0.0707  0.6224
13497TIP3    H261907   4.207   3.602  16.695 -1.6444 -3.0476 -1.6590
13498TIP3   OH261908   3.640   2.673  15.597 -0.2944  0.5129  0.1102
13498TIP3    H161909   3.696   2.731  15.545  1.8871 -2.0218 -0.6350
13498TIP3    H261910   3.685   2.664  15.681 -1.2432  0.8161  0.6656
13499TIP3   OH261911   1.917   1.498  15.377  0.3446  0.0676 -0.0371
13499TIP3    H161912   1.926   1.580  15.425  0.3614  1.0006 -1.5974
13499TIP3    H261913   1.845   1.453  15.421  1.1767  0.2948  1.6553
13500TIP3   OH261914   4.459   4.744   1.817 -0.3158  0.4225 -0.2992
13500TIP3    H161915   4.480   4.663   1.770 -0.5207  0.1429  0.0814
13500TIP3    H261916   4.489   4.814   1.760  1.3717  0.0510  0.0928
13501TIP3   OH261917   3.248   3.560  11.477  1.0006 -0.2399  0.5042
13501TIP3    H161918   3.193   3.482  11.485 -0.8256  0.7264 -1.4884
13501TIP3    H261919   3.319   3.533  11.419  0.9152 -0.6961  0.6102
13502TIP3   OH261920   3.200   5.009   2.598 -1.3438  0.1157 -0.4527
13502TIP3    H161921   3.115   5.020   2.557 -1.3144  2.8748  0.0148
13502TIP3    H261922   3.263   5.022   2.527 -1.3272  1.3193 -0.2414
13503TIP3   OH261923   0.655   2.138  12.269 -0.1937 -0.1511 -0.4034
13503TIP3    H161924   0.726   2.185  12.311  2.3341 -1.1723 -3.1613
13503TIP3    H261925   0.644   2.059  12.322  0.9458 -0.1200 -0.1035
13504TIP3   OH261926   6.132   1.027  12.874 -1.2949 -0.4122  0.6297
13504TIP3    H161927   6.164   1.093  12.813  0.6169 -0.3523  1.6172
13504TIP3    H261928   6.037   1.032  12.868 -1.1726 -0.2385 -2.1107
13505TIP3   OH261929   3.467   6.556  12.621 -0.2263  0.2539  0.2486
13505TIP3    H161930   3.554   6.518  12.607 -0.2290 -0.3956  1.8031
13505TIP3    H261931   3.420   6.538  12.540 -0.1990 -3.0296  0.8496
13506TIP3   OH261932   3.526   6.004   3.884  0.3786 -0.0994 -0.2603
13506TIP3    H161933   3.448   5.952   3.903  0.6306 -1.0617 -1.6334
13506TIP3    H261934   3.499   6.064   3.815  0.7569 -0.2011 -0.5005
13507TIP3   OH261935   2.377   1.797  16.383 -0.0389 -0.5541 -0.0518
13507TIP3    H161936   2.317   1.871  16.371  1.5329  0.6555 -0.8994
13507TIP3    H261937   2.413   1.781  16.295  2.4691  0.2419  0.7304
13508TIP3   OH261938   3.357   2.586   5.821 -0.0634 -0.2782 -0.2556
13508TIP3    H161939   3.390   2.652   5.760  0.9155 -0.3904  0.1372
13508TIP3    H261940   3.432   2.529   5.838 -0.4998 -0.6264  0.5444
13509TIP3   OH261941   4.155   3.375   1.592  0.0589  0.5586 -0.0433
13509TIP3    H161942   4.084   3.425   1.553  1.0359  1.7932 -0.2913
13509TIP3    H261943   4.212   3.352   1.518 -0.1507 -0.5985  0.1218
13510TIP3   OH261944   4.296   5.364  15.118 -0.8777  0.1358  0.1307
13510TIP3    H161945   4.222   5.309  15.094 -0.8185 -0.1352  0.5598
13510TIP3    H261946   4.329   5.326  15.200  0.0615 -0.0736 -0.3313
13511TIP3   OH261947   0.081   5.071   0.993 -0.1534  0.7809  0.2825
13511TIP3    H161948   0.009   5.024   0.950 -0.6173  1.7098  0.0106
13511TIP3    H261949   0.037   5.137   1.047  0.4960  2.1869 -0.8362
13512TIP3   OH261950   6.606   3.313  16.438 -0.0489  0.1637  0.2787
13512TIP3    H161951   6.566   3.235  16.476  1.7757 -1.0884 -0.2320
13512TIP3    H261952   6.698   3.289  16.425 -0.1828  0.9745 -3.4661
13513TIP3   OH261953   2.393   4.298  14.041 -0.1576  0.2969  0.4934
13513TIP3    H161954   2.410   4.259  13.955 -0.2321  0.4771  0.3940
13513TIP3    H261955   2.346   4.380  14.020 -1.0376 -0.1312  0.7577
13514TIP3   OH261956   2.688   0.679   5.430 -0.4070  0.4147 -1.0769
13514TIP3    H161957   2.780   0.690   5.454  0.0002 -0.2499 -2.2292
13514TIP3    H261958   2.677   0.736   5.353 -0.6440 -0.3560 -1.6246
13515TIP3   OH261959   3.430   6.228   3.674  0.6455  0.1132 -0.1875
13515TIP3    H161960   3.501   6.291   3.669 -0.2311  1.0605 -1.0882
13515TIP3    H261961   3.355   6.278   3.705  0.0508 -0.6004 -0.4450
13516TIP3   OH261962   5.191   6.127   0.403 -0.0347 -0.1762  0.2963
13516TIP3    H161963   5.276   6.169   0.403 -0.1350  0.0830  1.9842
13516TIP3    H261964   5.180   6.095   0.313  1.7004  0.0232 -0.0173
13517TIP3   OH261965   0.887   0.086  14.243  0.4550 -0.3962 -0.3176
13517TIP3    H161966   0.941   0.101  14.320 -1.7521  0.4355  1.1604
13517TIP3    H261967   0.889   0.170  14.196 -0.6251  0.1346  0.5166
13518TIP3   OH261968   1.660   0.675   3.131 -0.0372 -0.1336  0.4173
13518TIP3    H161969   1.714   0.734   3.184  2.7590 -1.5743 -0.6311
13518TIP3    H261970   1.622   0.732   3.064 -0.2398  0.9984  1.4424
13519TIP3   OH261971   2.425   3.417  12.569 -0.4992 -0.3123 -0.6817
13519TIP3    H161972   2.418   3.345  12.632 -1.8679 -1.3273 -1.9233
13519TIP3    H261973   2.455   3.375  12.488  0.3455  0.8121 -0.9836
13520TIP3   OH261974   3.431   0.570   4.707 -0.2163  0.2610 -0.0665
13520TIP3    H161975   3.450   0.479   4.683  0.2507  0.7387 -1.6414
13520TIP3    H261976   3.344   0.566   4.748 -0.6708 -0.7786 -1.0495
13521TIP3   OH261977   2.885   0.467   5.252 -0.7892  0.2623  0.0584
13521TIP3    H161978   2.906   0.504   5.166 -0.3356 -1.0183 -0.4051
13521TIP3    H261979   2.790   0.474   5.259 -0.7294  1.3502 -0.0788
13522TIP3   OH261980   5.171   1.760  13.200 -0.0320  0.5857 -0.7506
13522TIP3    H161981   5.183   1.830  13.136  1.9135  0.2451 -0.8114
13522TIP3    H261982   5.241   1.697  13.181  0.4534  0.3463  1.5323
13523TIP3   OH261983   2.717   0.615   4.007  0.8141  0.3195  0.1275
13523TIP3    H161984   2.751   0.692   4.053  1.1531 -0.8422  1.9318
13523TIP3    H261985   2.670   0.565   4.075  2.3472 -2.0800 -0.4469
13524TIP3   OH261986   3.410   2.584  14.100 -0.4548  0.2300 -0.3446
13524TIP3    H161987   3.329   2.616  14.138 -0.3172  0.1398  0.0219
13524TIP3    H261988   3.424   2.640  14.023 -0.4696  0.7433  0.0222
13525TIP3   OH261989   2.262   0.565  15.749 -0.5184  0.5252  0.3872
13525TIP3    H161990   2.348   0.535  15.776 -0.5829  0.3744  0.4244
13525TIP3    H261991   2.274   0.658  15.731 -0.7776  0.9889  2.3117
13526TIP3   OH261992   2.407   0.984   4.470  0.1731 -0.1058  0.1805
13526TIP3    H161993   2.418   0.919   4.401 -1.5364 -0.3479  0.0842
13526TIP3    H261994   2.495   0.999   4.504  1.0863  0.1319 -2.1278
13527TIP3   OH261995   2.161   3.262  12.173  0.2222 -0.3338 -0.2473
13527TIP3    H161996   2.074   3.300  12.162  0.4317  0.4499  0.6261
13527TIP3    H261997   2.187   3.286  12.262  1.6732  0.1597 -0.7702
13528TIP3   OH261998   2.583   1.755   0.061 -0.4323 -0.3017  0.0590
13528TIP3    H161999   2.540   1.838   0.083  1.4948  0.2197  2.2901
13528TIP3    H262000   2.548   1.732  -0.024 -2.0447  2.1179 -0.0447
13529TIP3   OH262001   1.554   5.016   6.781 -0.0831 -0.1584 -0.0256
13529TIP3    H162002   1.496   5.064   6.840 -1.1325  1.0891 -1.9782
13529TIP3    H262003   1.497   4.987   6.710  1.4718  0.2306 -1.4977
13530TIP3   OH262004   1.241   1.853  12.042  0.3541  0.1337 -0.1922
13530TIP3    H162005   1.176   1.901  12.094  0.2892 -0.2000  0.0364
13530TIP3    H262006   1.191   1.812  11.972  0.5243  1.0744 -0.8755
13531TIP3   OH262007   2.245   3.041   2.432  0.0172 -0.6666  0.3368
13531TIP3    H162008   2.267   3.048   2.339 -1.6798  2.1756  0.0456
13531TIP3    H262009   2.314   3.090   2.476 -1.2213  1.3354  0.1525
13532TIP3   OH262010   0.911   0.465  16.082  0.3799  0.3613 -0.0513
13532TIP3    H162011   0.974   0.529  16.116  0.7621  1.6984 -2.9428
13532TIP3    H262012   0.835   0.517  16.057 -0.7049 -0.8364  0.6812
13533TIP3   OH262013   3.983   2.629  11.171 -0.2021 -0.2098 -0.0506
13533TIP3    H162014   4.075   2.623  11.143  0.0526 -0.4374  0.8039
13533TIP3    H262015   3.933   2.622  11.090  0.5660  1.5502 -0.7431
13534TIP3   OH262016   5.947   1.670  14.238 -0.0033 -0.1766 -0.0944
13534TIP3    H162017   5.971   1.633  14.153  2.7098 -1.3207  1.0671
13534TIP3    H262018   5.919   1.595  14.290 -1.6978  0.5250  0.0743
13535TIP3   OH262019   3.428   0.142   6.542 -0.2708  0.1778 -0.2040
13535TIP3    H162020   3.345   0.095   6.539  0.1528 -0.6893  0.8736
13535TIP3    H262021   3.411   0.224   6.497 -1.5055 -0.2931 -0.6334
13536TIP3   OH262022   0.089   5.198  14.843  0.3569 -0.9363 -0.2121
13536TIP3    H162023   0.017   5.167  14.789  0.5454 -0.5507 -0.6968
13536TIP3    H262024   0.102   5.289  14.815  0.0891 -0.5421  0.8711
13537TIP3   OH262025   2.863   5.647   4.155  0.0856 -0.2390 -0.0457
13537TIP3    H162026   2.956   5.663   4.172  0.2140  0.0482 -0.9884
13537TIP3    H262027   2.844   5.566   4.203  0.3111  0.7620  1.8145
13538TIP3   OH262028   4.025   5.255   1.514 -0.2729 -0.0093 -0.7144
13538TIP3    H162029   4.067   5.308   1.445  1.2624  0.1820  0.3114
13538TIP3    H262030   3.951   5.308   1.544  0.1562  0.7355 -0.9588
13539TIP3   OH262031   6.065   5.583   3.582  1.2394  0.2644 -0.0099
13539TIP3    H162032   6.035   5.648   3.519  0.2754 -0.2654 -0.1159
13539TIP3    H262033   6.019   5.503   3.558 -0.5230  0.4424  2.3647
13540TIP3   OH262034   5.106   6.299  11.415  0.1438  0.1272 -0.1765
13540TIP3    H162035   5.075   6.389  11.404  1.1503  0.5070  0.0035
13540TIP3    H262036   5.105   6.285  11.510  1.3768  0.4678 -0.0990
13541TIP3   OH262037   4.964   3.923  16.795  0.1997  0.8934 -0.5045
13541TIP3    H162038   4.941   3.988  16.728 -0.3042 -1.3510 -2.6579
13541TIP3    H262039   4.879   3.888  16.823  0.4922  0.7153  0.1628
13542TIP3   OH262040   3.777   1.862  10.720 -0.0136  0.7330  0.5253
13542TIP3    H162041   3.738   1.803  10.655  1.3691  0.1172  0.2165
13542TIP3    H262042   3.803   1.939  10.670  3.4693 -0.7718 -0.3454
13543TIP3   OH262043   5.612   4.318   3.529  0.7033 -0.4293  0.0402
13543TIP3    H162044   5.669   4.349   3.458  0.4902  0.0328  0.0646
13543TIP3    H262045   5.614   4.389   3.593  1.9898 -1.4120  1.1518
13544TIP3   OH262046   6.066   2.313  11.753 -0.1643 -0.1788 -0.1154
13544TIP3    H162047   6.067   2.217  11.750 -1.3966 -0.2275  0.4122
13544TIP3    H262048   6.060   2.340  11.661  0.4624 -0.5877 -0.2842
13545TIP3   OH262049   0.287   2.444  16.797  0.7911  0.1501 -0.2146
13545TIP3    H162050   0.228   2.399  16.737  0.0870  1.7964 -0.8039
13545TIP3    H262051   0.370   2.397  16.789  0.0764 -1.0648 -0.7480
13546TIP3   OH262052   2.410   3.272   2.537 -0.1626 -0.2811  0.0650
13546TIP3    H162053   2.470   3.334   2.578 -0.8436  2.1761 -2.2894
13546TIP3    H262054   2.376   3.320   2.461 -4.4286 -1.8448  0.7571
13547TIP3   OH262055   4.076   6.754   5.856  0.3217 -0.0602 -0.2260
13547TIP3    H162056   4.124   6.678   5.891  2.1446  1.1054 -0.0684
13547TIP3    H262057   3.995   6.756   5.908  1.8849  0.2373  2.4200
13548TIP3   OH262058   2.830   3.001   4.917  0.1071  0.7037  0.2347
13548TIP3    H162059   2.758   3.063   4.918 -0.2732  0.3005 -0.6777
13548TIP3    H262060   2.788   2.915   4.919  0.4905  0.4454 -1.2920
13549TIP3   OH262061   0.953   5.790   3.024  0.3135  0.3714  0.5013
13549TIP3    H162062   0.862   5.762   3.034  0.4481  0.4676  2.2804
13549TIP3    H262063   1.000   5.743   3.093  1.7474 -0.1954 -0.8262
13550TIP3   OH262064   3.480   4.283  13.873  0.4374  0.7236 -0.0698
13550TIP3    H162065   3.554   4.240  13.829 -0.3646 -0.3976 -0.3902
13550TIP3    H262066   3.419   4.304  13.802  0.3167  1.3610  0.2219
13551TIP3   OH262067   5.397   0.152   0.352 -0.2395  1.1644 -0.3367
13551TIP3    H162068   5.385   0.168   0.259  0.3942  0.0733 -0.6274
13551TIP3    H262069   5.464   0.214   0.379  0.4575  0.6843 -0.8985
13552TIP3   OH262070   2.040   2.891   1.714 -0.2051 -0.3815  0.2091
13552TIP3    H162071   1.965   2.863   1.661 -1.0162 -0.1052  1.1820
13552TIP3    H262072   2.078   2.964   1.665 -1.2295  0.1801  0.2241
13553TIP3   OH262073   4.236   3.842  13.779 -0.4176  0.4864 -0.4722
13553TIP3    H162074   4.234   3.881  13.691  1.3406  1.6747 -0.0484
13553TIP3    H262075   4.237   3.917  13.838 -0.2625 -0.2719  0.5166
13554TIP3   OH262076   1.224   3.259   5.317 -0.2772  0.1369 -0.2317
13554TIP3    H162077   1.173   3.223   5.390 -1.4926  2.6360  0.2670
13554TIP3    H262078   1.167   3.248   5.240 -0.1588 -0.0324 -0.2962
13555TIP3   OH262079   5.947   1.763   2.781 -0.2986  0.0796 -0.0649
13555TIP3    H162080   5.909   1.780   2.695  0.6635 -0.1032 -0.5379
13555TIP3    H262081   6.031   1.808   2.780 -0.9038  1.3159  1.3263
13556TIP3   OH262082   4.341   3.034   1.442  0.6737  0.8442  0.0097
13556TIP3    H162083   4.418   3.090   1.429  3.4574 -2.8346 -1.0109
13556TIP3    H262084   4.309   3.017   1.354  2.3766 -2.1329 -0.1599
13557TIP3   OH262085   3.698   6.420  12.570 -0.5022 -0.0958  0.2774
13557TIP3    H162086   3.665   6.404  12.482 -0.6485  0.5296  0.2164
13557TIP3    H262087   3.690   6.335  12.614  0.9993 -0.8276 -0.7469
13558TIP3   OH262088   2.110   2.920  12.337 -0.0283  0.1885  0.3143
13558TIP3    H162089   2.035   2.979  12.344  0.8595  1.3624  0.3400
13558TIP3    H262090   2.162   2.956  12.266  0.4401 -0.6984  0.1921
13559TIP3   OH262091   4.534   1.824   0.424 -0.0689  0.0343  0.6792
13559TIP3    H162092   4.621   1.808   0.462 -0.0606 -0.3235  0.5170
13559TIP3    H262093   4.539   1.784   0.337 -1.2113 -2.2607  1.5927
13560TIP3   OH262094   0.691   4.795  12.594 -0.3366  0.4535  0.2420
13560TIP3    H162095   0.703   4.771  12.502 -0.3195 -1.0355  0.5941
13560TIP3    H262096   0.614   4.852  12.594 -0.3014  0.5243 -0.6969
13561TIP3   OH262097   1.427   2.621  16.037  0.3911  0.3906  0.3314
13561TIP3    H162098   1.392   2.706  16.010 -0.7389  0.8607  2.9625
13561TIP3    H262099   1.504   2.642  16.090  0.2621 -0.2218  0.7701
13562TIP3   OH262100   6.254   5.831  11.643 -0.1415  0.1904 -0.4764
13562TIP3    H162101   6.274   5.798  11.731 -0.4060  0.9505 -0.1158
13562TIP3    H262102   6.303   5.774  11.584 -1.4284 -1.5196  0.0245
13563TIP3   OH262103   4.874   3.577   1.036 -0.3870 -0.3567  0.1654
13563TIP3    H162104   4.866   3.638   1.109 -1.3084  0.1681 -0.3642
13563TIP3    H262105   4.784   3.556   1.012 -0.0998 -0.4883 -0.8453
13564TIP3   OH262106   3.247   5.329   1.723  0.4121 -0.5484  0.2064
13564TIP3    H162107   3.288   5.244   1.709  1.9374  0.0025  1.0100
13564TIP3    H262108   3.279   5.384   1.651 -0.5058 -0.6265 -0.2686
13565TIP3   OH262109   1.189   4.806   5.670 -0.0274  0.1430  0.4313
13565TIP3    H162110   1.224   4.718   5.684 -0.6179  0.1062  1.7903
13565TIP3    H262111   1.097   4.791   5.646  0.6232  0.2624 -2.6353
13566TIP3   OH262112   3.796   5.131   6.214 -0.1801  0.3361  0.1753
13566TIP3    H162113   3.805   5.179   6.297  0.1049 -0.6229  0.7164
13566TIP3    H262114   3.707   5.095   6.218 -0.1625  0.2810  0.0590
13567TIP3   OH262115   2.323   5.827  17.005  1.2274 -0.2030  0.1183
13567TIP3    H162116   2.325   5.915  17.043 -0.1294  0.2763 -0.8505
13567TIP3    H262117   2.346   5.840  16.914 -0.6759 -0.5618 -0.4680
13568TIP3   OH262118   1.229   1.561   2.017 -0.3973  0.0871  0.1007
13568TIP3    H162119   1.323   1.547   2.015 -0.4401 -0.4688  1.1429
13568TIP3    H262120   1.204   1.574   1.925  0.4850 -1.2382 -0.3540
13569TIP3   OH262121   4.074   4.542   1.788 -0.3838  0.0726  0.1472
13569TIP3    H162122   4.152   4.585   1.751 -1.3393  0.9699 -0.9173
13569TIP3    H262123   4.109   4.471   1.841  1.1356 -0.7035 -1.7485
13570TIP3   OH262124   6.453   1.174   6.072 -0.1442 -0.3117  0.0745
13570TIP3    H162125   6.541   1.183   6.035  0.4608 -2.1572  0.9296
13570TIP3    H262126   6.456   1.224   6.153 -0.0301 -0.0100 -0.1128
13571TIP3   OH262127   6.200   2.152  12.725 -0.3093  0.1421 -0.2415
13571TIP3    H162128   6.129   2.095  12.697 -0.7880  0.7978 -0.3774
13571TIP3    H262129   6.252   2.097  12.785 -2.2832  0.3522  1.7976
13572TIP3   OH262130   3.309   0.146   5.585 -0.2162 -0.5887  0.2373
13572TIP3    H162131   3.342   0.235   5.570 -2.6154  0.6301  1.5683
13572TIP3    H262132   3.315   0.134   5.680 -0.0834 -1.8123  0.0893
13573TIP3   OH262133   6.751   2.254   5.564  0.8021 -0.7647 -0.2113
13573TIP3    H162134   6.803   2.176   5.586  2.0967  0.2384  0.4356
13573TIP3    H262135   6.793   2.325   5.613 -0.1173  0.4177 -1.0841
13574TIP3   OH262136   4.554   3.840   5.266 -0.0074 -0.4514  0.1287
13574TIP3    H162137   4.522   3.764   5.314 -2.0474  0.8734  1.0268
13574TIP3    H262138   4.587   3.899   5.334 -0.1317  0.2013 -0.3602
13575TIP3   OH262139   4.204   1.298   2.184 -0.1379  0.0062  0.3243
13575TIP3    H162140   4.231   1.280   2.094 -1.0210 -1.0416  0.2481
13575TIP3    H262141   4.112   1.324   2.177  0.0165  0.7352  0.8553
13576TIP3   OH262142   3.680   3.236  15.825 -0.0195 -0.0560 -0.0984
13576TIP3    H162143   3.612   3.289  15.784  0.9381  1.1230 -0.2204
13576TIP3    H262144   3.642   3.207  15.908 -0.3536  1.3611  0.2619
13577TIP3   OH262145   1.122   1.466   5.011  0.3569  0.2971 -0.1689
13577TIP3    H162146   1.075   1.473   5.093 -0.2622 -1.4735 -0.3256
13577TIP3    H262147   1.068   1.513   4.948 -0.1349  0.0493  0.0675
13578TIP3   OH262148   0.360   5.805   1.297  0.4217  0.4723 -0.1395
13578TIP3    H162149   0.320   5.758   1.223  1.0601 -0.2652 -0.0294
13578TIP3    H262150   0.326   5.894   1.290 -0.4999  0.0954 -0.5948
13579TIP3   OH262151   4.523   4.152  14.306 -0.3338 -0.2120 -0.6299
13579TIP3    H162152   4.565   4.129  14.224 -1.1822 -1.9942 -0.6033
13579TIP3    H262153   4.449   4.208  14.280  0.0828  0.1918 -0.9598
13580TIP3   OH262154   6.227   4.352   1.651 -0.1407  0.3936  0.4723
13580TIP3    H162155   6.283   4.346   1.728 -1.3710  1.0436  1.4524
13580TIP3    H262156   6.266   4.421   1.598  1.1815 -0.6107  0.0832
13581TIP3   OH262157   5.471   5.616   6.062 -0.5326  0.3669  0.5971
13581TIP3    H162158   5.461   5.711   6.070  1.7350  0.6344  0.8192
13581TIP3    H262159   5.534   5.604   5.991  0.9213 -0.8360  2.0010
13582TIP3   OH262160   1.402   2.442  16.698 -0.1739  0.5895 -0.3133
13582TIP3    H162161   1.441   2.479  16.778  2.0695  0.9268 -1.4733
13582TIP3    H262162   1.313   2.476  16.697 -0.4051  0.3013  2.1955
13583TIP3   OH262163   6.386   1.348   5.090  0.3023 -0.0737 -0.6116
13583TIP3    H162164   6.410   1.410   5.021  2.8779 -1.2551 -0.8956
13583TIP3    H262165   6.420   1.387   5.170 -0.3277  0.0378 -0.3906
13584TIP3   OH262166   5.004   5.218  12.970  0.1856 -0.1550  0.3505
13584TIP3    H162167   5.020   5.206  13.064 -2.2355 -0.2891  0.8083
13584TIP3    H262168   4.915   5.184  12.956 -0.2629  1.5971 -1.6215
13585TIP3   OH262169   2.048   3.519   0.193 -0.0325  0.3731 -0.0756
13585TIP3    H162170   2.006   3.434   0.181 -0.3618  0.4537  0.4682
13585TIP3    H262171   1.978   3.576   0.225 -0.0929  1.1539 -1.5423
13586TIP3   OH262172   0.118   5.294   2.932  0.2230 -0.4268 -0.3045
13586TIP3    H162173   0.197   5.242   2.912  0.3415 -0.9883  1.4390
13586TIP3    H262174   0.129   5.319   3.024 -1.5903 -0.4294 -0.0627
13587TIP3   OH262175   5.062   1.484   0.415 -0.2638 -0.1360 -0.1740
13587TIP3    H162176   5.059   1.580   0.417 -1.2012 -0.1275 -0.9094
13587TIP3    H262177   5.149   1.464   0.379 -0.1480  0.4473 -0.2421
13588TIP3   OH262178   2.047   0.445   4.112 -0.2585 -0.9423  0.8717
13588TIP3    H162179   2.023   0.411   4.026  0.1404 -0.2333  0.4647
13588TIP3    H262180   2.143   0.438   4.115 -0.1356  0.3526  0.6586
13589TIP3   OH262181   3.819   3.282   3.495 -0.2402 -0.2418  0.0092
13589TIP3    H162182   3.773   3.235   3.564  0.0513 -1.4293 -0.5824
13589TIP3    H262183   3.778   3.254   3.414  0.6202 -0.2856 -0.4307
13590TIP3   OH262184   6.579   1.734   4.946 -0.0013  0.0634 -0.0923
13590TIP3    H162185   6.642   1.708   5.013 -0.3595  1.7331  0.9494
13590TIP3    H262186   6.598   1.826   4.929 -1.0647  0.1431 -1.0140
13591TIP3   OH262187   5.315   3.120   1.440 -0.2383 -0.3671 -0.4608
13591TIP3    H162188   5.352   3.198   1.398  0.6684 -0.7920 -0.4775
13591TIP3    H262189   5.223   3.141   1.452  0.0492  0.8311 -0.1836
13592TIP3   OH262190   0.024   1.935  11.604  0.5178 -0.2825 -0.1387
13592TIP3    H162191   0.044   1.869  11.537  0.7247 -0.5389  0.1734
13592TIP3    H262192  -0.059   1.973  11.575  0.6932 -0.2715 -0.6317
13593TIP3   OH262193   5.581   3.533   5.311  0.1482 -0.2499  0.8463
13593TIP3    H162194   5.545   3.453   5.273 -0.6969  0.0797  0.9068
13593TIP3    H262195   5.660   3.550   5.261  0.0205 -0.8064  0.4436
13594TIP3   OH262196   5.547   6.152   1.039 -0.5986  0.4362  0.5988
13594TIP3    H162197   5.606   6.175   0.967 -1.0409 -0.7420 -0.1781
13594TIP3    H262198   5.605   6.135   1.113  0.1421 -1.4537 -0.3497
13595TIP3   OH262199   0.981   6.662   3.487 -0.7437 -0.2064  0.0252
13595TIP3    H162200   1.024   6.576   3.484 -2.5735 -1.1439 -1.7064
13595TIP3    H262201   1.053   6.725   3.482  0.5745 -1.6512 -0.0366
13596TIP3   OH262202   1.838   5.045  15.556  0.4568 -0.0244 -0.2398
13596TIP3    H162203   1.848   5.110  15.626 -0.2445 -1.4415  1.2546
13596TIP3    H262204   1.759   4.996  15.579  0.1946 -0.5282 -2.0602
13597TIP3   OH262205   0.069   4.093   6.246  0.2110 -0.1438  0.3823
13597TIP3    H162206   0.025   4.050   6.174 -0.7876  1.2206  0.1342
13597TIP3    H262207   0.047   4.186   6.236  1.7869  0.3703  1.2171
13598TIP3   OH262208   3.774   5.922  11.713 -0.0672 -0.0882  0.0962
13598TIP3    H162209   3.813   5.836  11.721  1.6522  0.6939  0.4711
13598TIP3    H262210   3.767   5.954  11.804  0.1125  0.5006 -0.0900
13599TIP3   OH262211   4.382   3.172  12.013  0.0607 -0.2847 -0.5089
13599TIP3    H162212   4.450   3.223  12.057  0.5951 -0.1689 -1.4524
13599TIP3    H262213   4.403   3.081  12.034  0.2864 -0.2275 -0.4831
13600TIP3   OH262214   5.348   2.003   1.751  0.2629  0.0729  0.0868
13600TIP3    H162215   5.377   1.964   1.834 -1.0563  2.0863  1.5640
13600TIP3    H262216   5.264   1.962   1.733  1.2291 -1.5079 -1.1660
13601TIP3   OH262217   4.491   1.543  16.301 -0.1102  0.3660  0.7774
13601TIP3    H162218   4.576   1.506  16.274 -1.1502 -0.9718 -0.8945
13601TIP3    H262219   4.506   1.574  16.390  2.6508  1.9128 -0.0853
13602TIP3   OH262220   4.712   6.435  11.373 -0.2539 -0.0451  0.2432
13602TIP3    H162221   4.660   6.369  11.329  1.4510 -1.6364  0.4906
13602TIP3    H262222   4.711   6.409  11.465  1.1437 -0.2791  0.2168
13603TIP3   OH262223   2.498   5.986   0.827 -0.1979 -0.3473  0.0346
13603TIP3    H162224   2.533   6.070   0.797  2.1880 -1.1367  0.4019
13603TIP3    H262225   2.496   5.932   0.748  1.2503 -0.8559  0.3082
13604TIP3   OH262226   0.827   2.479   1.136  0.4604 -0.0396 -0.5007
13604TIP3    H162227   0.881   2.399   1.136 -2.0176 -1.8351 -0.5571
13604TIP3    H262228   0.879   2.543   1.088  2.2931 -1.7937 -1.0128
13605TIP3   OH262229   6.402   1.030  15.708  0.1993 -0.1546 -0.2356
13605TIP3    H162230   6.455   1.109  15.715  1.8793 -1.1887 -0.6309
13605TIP3    H262231   6.462   0.964  15.672 -1.0616 -1.6880  0.3586
13606TIP3   OH262232   2.642   1.164   1.800  0.0869 -0.1258  1.1378
13606TIP3    H162233   2.552   1.141   1.777  0.4129  0.0922 -0.4804
13606TIP3    H262234   2.693   1.084   1.783  0.2117 -0.2540  2.0570
13607TIP3   OH262235   4.066   2.022  15.043 -0.0958  0.6081 -0.2278
13607TIP3    H162236   4.006   1.956  15.078  1.7391 -0.6293  0.7018
13607TIP3    H262237   4.048   2.101  15.095 -1.5740  0.5761 -0.6419
13608TIP3   OH262238   3.420   5.784  11.737 -0.4891 -0.7586  0.2168
13608TIP3    H162239   3.470   5.724  11.793 -0.0578 -1.0673 -0.4890
13608TIP3    H262240   3.433   5.750  11.649 -0.3058  0.3281 -0.1873
13609TIP3   OH262241   2.116   6.398   5.933 -0.1859 -0.0903 -0.2988
13609TIP3    H162242   2.098   6.479   5.886 -0.8893  0.2052  0.4413
13609TIP3    H262243   2.075   6.329   5.880 -0.2806  0.1383 -0.5232
13610TIP3   OH262244   1.698   6.500  15.431  0.0870  0.0521  0.6240
13610TIP3    H162245   1.759   6.499  15.505  0.8174 -1.6393  0.0290
13610TIP3    H262246   1.742   6.551  15.364 -0.5024  1.4418  1.2466
13611TIP3   OH262247   1.775   2.110  17.114 -0.2701 -0.1337 -0.5643
13611TIP3    H162248   1.859   2.067  17.128 -0.4467  0.2396  1.9679
13611TIP3    H262249   1.710   2.046  17.142 -0.7917  0.1186 -1.1604
13612TIP3   OH262250   5.870   5.536   5.215  0.1882  0.3523  0.2794
13612TIP3    H162251   5.790   5.547   5.267  0.2340  0.5653  0.3035
13612TIP3    H262252   5.921   5.615   5.232  0.1829  0.4452 -0.1290
13613TIP3   OH262253   5.495   3.120  16.626 -0.5011  0.0021 -0.1477
13613TIP3    H162254   5.455   3.115  16.713  0.6946  3.5880  0.7592
13613TIP3    H262255   5.421   3.112  16.565 -1.7174  0.1542  1.2613
13614TIP3   OH262256   0.237   4.669  11.062 -0.1762  0.5091 -0.7224
13614TIP3    H162257   0.240   4.671  11.157 -0.2791 -0.3742 -0.6896
13614TIP3    H262258   0.237   4.575  11.040  1.4857  0.6979 -1.6508
13615TIP3   OH262259   1.411   5.868  12.912  0.0901  0.6062 -0.1656
13615TIP3    H162260   1.465   5.804  12.865  2.0080  1.5191  0.6868
13615TIP3    H262261   1.471   5.939  12.933 -1.7216  2.1823 -0.0687
13616TIP3   OH262262   3.506   3.327  13.616 -0.3574 -0.4167 -0.3419
13616TIP3    H162263   3.437   3.373  13.664 -1.7685 -2.0675 -0.6759
13616TIP3    H262264   3.462   3.250  13.579  1.8027 -1.8899 -0.0335
13617TIP3   OH262265   5.028   0.310  10.870  0.0402 -0.2900  0.2524
13617TIP3    H162266   5.122   0.296  10.871  0.3095  1.2943  0.6694
13617TIP3    H262267   5.000   0.283  10.782  1.2083  0.9840 -0.5581
13618TIP3   OH262268   2.535   4.659  15.080  0.2696  0.8023 -0.3160
13618TIP3    H162269   2.466   4.595  15.092 -0.5868  1.4881 -1.3896
13618TIP3    H262270   2.614   4.607  15.065 -0.4859 -0.0202 -1.6166
13619TIP3   OH262271   6.161   5.413  15.802 -0.2291  0.2172 -0.1873
13619TIP3    H162272   6.201   5.331  15.828 -0.5987  0.3673  0.8950
13619TIP3    H262273   6.071   5.408  15.833  0.2229  1.7485  1.5859
13620TIP3   OH262274   3.281   6.308   6.177  0.1907 -0.0413  0.5478
13620TIP3    H162275   3.349   6.367   6.144 -0.1086  0.1606  0.2919
13620TIP3    H262276   3.298   6.225   6.132  0.1696  0.0536  0.3636
13621TIP3   OH262277   2.236   3.398   1.817  0.1651 -0.2677  0.1290
13621TIP3    H162278   2.192   3.459   1.876 -4.5611 -2.7611 -0.3602
13621TIP3    H262279   2.189   3.406   1.734  0.2188 -3.4794 -0.3309
13622TIP3   OH262280   0.873   1.942  11.272  0.1910  0.1386  0.3495
13622TIP3    H162281   0.947   1.993  11.305  0.1354  0.6092 -0.2592
13622TIP3    H262282   0.801   1.965  11.330  0.4053  0.0088  0.6731
13623TIP3   OH262283   1.311   3.514   1.239 -0.2085 -0.2712 -0.5132
13623TIP3    H162284   1.263   3.457   1.180 -2.8612  0.0531  1.1800
13623TIP3    H262285   1.254   3.591   1.251  2.2455  1.7721 -0.9691
13624TIP3   OH262286   4.487   0.674   4.344 -0.7293  0.2225 -0.1538
13624TIP3    H162287   4.424   0.614   4.384 -2.3251  2.1889  0.4582
13624TIP3    H262288   4.447   0.699   4.261  0.3129 -0.1716 -0.7909
13625TIP3   OH262289   0.310   5.773   0.422 -0.4710 -0.1859 -0.2155
13625TIP3    H162290   0.328   5.867   0.416  0.1202 -0.2144  1.0607
13625TIP3    H262291   0.230   5.767   0.475  0.5737 -0.4836  1.3696
13626TIP3   OH262292   2.501   6.087  13.561  0.1075  0.5358 -0.1849
13626TIP3    H162293   2.439   6.152  13.528 -1.2249 -0.2131  0.7226
13626TIP3    H262294   2.473   6.004  13.521  0.7312  0.2400 -0.0222
13627TIP3   OH262295   1.139   3.918  12.745 -0.2515  0.4814  0.0023
13627TIP3    H162296   1.211   3.981  12.737  0.4341 -0.0739  1.4726
13627TIP3    H262297   1.115   3.919  12.837 -0.3649 -1.2521  0.0338
13628TIP3   OH262298   2.904   3.966  16.880  0.0288 -0.6285  0.5208
13628TIP3    H162299   2.987   3.964  16.831 -0.2881 -1.3073 -0.0032
13628TIP3    H262300   2.864   4.049  16.856  0.1426 -0.7057  0.0589
13629TIP3   OH262301   1.397   0.693   6.505 -0.4316 -0.4107 -0.2735
13629TIP3    H162302   1.439   0.741   6.577 -0.5011  1.1345 -1.2175
13629TIP3    H262303   1.466   0.683   6.440  0.4112 -4.1678  0.9722
13630TIP3   OH262304   1.833   1.425   0.573  0.6832  0.1597 -0.2401
13630TIP3    H162305   1.910   1.416   0.628  1.3867  1.1536 -1.0227
13630TIP3    H262306   1.849   1.367   0.498  1.2001  1.1741 -0.9429
13631TIP3   OH262307   2.660   6.074   1.609 -0.0236 -0.2341 -0.2990
13631TIP3    H162308   2.730   6.136   1.589 -0.4170  0.3892  0.2275
13631TIP3    H262309   2.637   6.036   1.524  1.3349 -0.8800 -0.4084
13632TIP3   OH262310   4.551   5.696   0.144  0.6776  0.2909 -0.2463
13632TIP3    H162311   4.512   5.609   0.131 -1.5765  1.1281  0.5181
13632TIP3    H262312   4.549   5.737   0.057  0.3481  0.1400 -0.3086
13633TIP3   OH262313   2.617   5.502  12.768 -0.2282 -0.0177  0.3325
13633TIP3    H162314   2.560   5.535  12.699 -1.4299  0.2926  1.4373
13633TIP3    H262315   2.558   5.456  12.828  1.0251 -1.8250  0.2594
13634TIP3   OH262316   6.740   6.501  10.617  0.4446 -0.1922  0.2937
13634TIP3    H162317   6.814   6.446  10.592  0.5737  0.1342 -0.0446
13634TIP3    H262318   6.704   6.533  10.535 -0.3639 -0.7206  0.4353
13635TIP3   OH262319   1.334   2.235  15.079 -0.6386  0.0749 -0.5616
13635TIP3    H162320   1.402   2.302  15.074  0.6407 -1.2178 -1.1605
13635TIP3    H262321   1.359   2.179  15.153 -0.8762 -0.5851 -0.9643
13636TIP3   OH262322   2.772   6.729  16.158  0.3304 -0.1662 -0.3256
13636TIP3    H162323   2.770   6.785  16.235 -1.0968  0.6675 -0.9232
13636TIP3    H262324   2.691   6.679  16.163  0.3686 -0.3252 -1.1242
13637TIP3   OH262325   1.551   2.138  12.512  0.3388  0.4465 -0.6151
13637TIP3    H162326   1.464   2.172  12.493  0.5292  0.8354 -0.8105
13637TIP3    H262327   1.539   2.043  12.521 -0.3287  0.6249  0.6517
13638TIP3   OH262328   2.438   2.556   2.036 -0.2876  0.6676 -0.6253
13638TIP3    H162329   2.383   2.477   2.034  1.6275 -0.8369  1.0643
13638TIP3    H262330   2.377   2.628   2.022 -2.2508 -1.0479 -1.5294
13639TIP3   OH262331   1.738   2.537   4.957  0.0295  0.3046 -0.1159
13639TIP3    H162332   1.787   2.572   4.883  0.2323  1.9464  0.7519
13639TIP3    H262333   1.769   2.587   5.032 -3.0113  1.5042  0.4807
13640TIP3   OH262334   5.173   1.932  13.430 -0.3434 -0.1950  0.3965
13640TIP3    H162335   5.174   1.880  13.350  0.4866  0.0328  0.2528
13640TIP3    H262336   5.139   2.017  13.403  1.1606  0.3108 -0.0049
13641TIP3   OH262337   1.599   3.821   2.058  0.9837  0.3522  0.2384
13641TIP3    H162338   1.691   3.809   2.083  0.8473 -1.5481 -0.0252
13641TIP3    H262339   1.559   3.735   2.070 -0.5493  0.8998 -0.5844
13642TIP3   OH262340   5.671   5.944  13.861 -0.1899 -0.2519  0.0072
13642TIP3    H162341   5.637   5.888  13.930  0.9475  0.3223  1.0627
13642TIP3    H262342   5.614   6.021  13.863  0.7693  0.4605  1.3947
13643TIP3   OH262343   5.449   0.158   4.269  0.3570 -0.2415 -0.1072
13643TIP3    H162344   5.418   0.068   4.284  1.8165 -0.6131  0.8551
13643TIP3    H262345   5.392   0.191   4.199 -1.7327 -1.1155  1.0733
13644TIP3   OH262346   4.973   4.292  14.269  0.0438  0.2281 -0.3537
13644TIP3    H162347   5.014   4.297  14.183  1.8528  0.6784  0.4863
13644TIP3    H262348   5.031   4.342  14.326 -1.5881  0.6823  0.9680
13645TIP3   OH262349   0.787   3.881   4.957  0.1463 -0.2686 -0.2333
13645TIP3    H162350   0.816   3.790   4.964  0.7192 -0.2792 -2.0419
13645TIP3    H262351   0.868   3.932   4.952 -0.0209  0.8449  4.3174
13646TIP3   OH262352   6.439   0.315   4.542 -0.3522 -0.1017 -0.0197
13646TIP3    H162353   6.355   0.330   4.500 -0.0256  0.0484 -0.6194
13646TIP3    H262354   6.416   0.285   4.631 -1.0206  2.0207  0.5669
13647TIP3   OH262355   2.701   6.593   3.435  0.1852  0.2882 -0.5612
13647TIP3    H162356   2.711   6.664   3.371 -1.8769  0.8140 -0.3742
13647TIP3    H262357   2.740   6.627   3.515  0.8688  0.4641 -0.9589
13648TIP3   OH262358   1.242   1.629  16.864 -0.3987  0.1953 -0.6529
13648TIP3    H162359   1.238   1.607  16.771 -1.0162 -3.3460  0.0563
13648TIP3    H262360   1.333   1.615  16.889 -0.4080  0.2982 -0.5602
13649TIP3   OH262361   5.118   5.645   5.114  0.2464  0.1848 -0.0810
13649TIP3    H162362   5.057   5.621   5.183  0.6639  0.8662  0.5400
13649TIP3    H262363   5.110   5.575   5.049 -1.2931  0.3333 -0.0872
13650TIP3   OH262364   1.405   3.497   1.533 -0.2020 -0.2047 -0.3775
13650TIP3    H162365   1.465   3.568   1.555 -0.4247 -0.5206  1.4343
13650TIP3    H262366   1.384   3.511   1.441 -0.3474  2.1536 -0.0574
13651TIP3   OH262367   2.662   1.047  14.832 -0.6982  0.4649 -0.2271
13651TIP3    H162368   2.687   1.048  14.925 -2.1149  0.2719  0.1918
13651TIP3    H262369   2.743   1.065  14.785 -0.3868  3.0945  1.1500
13652TIP3   OH262370   0.573   2.343   1.143  0.3420 -0.2967 -0.5596
13652TIP3    H162371   0.660   2.375   1.120 -0.1332  1.4808 -0.0787
13652TIP3    H262372   0.584   2.249   1.158  1.8428 -0.3863 -2.0193
13653TIP3   OH262373   1.835   3.017  15.434 -0.3583 -0.1261  0.1452
13653TIP3    H162374   1.773   3.087  15.452  1.0566  1.3948 -0.5823
13653TIP3    H262375   1.919   3.051  15.464  0.4914 -1.1895 -0.9128
13654TIP3   OH262376   1.262   2.552  13.531 -0.5991  0.0597 -0.1466
13654TIP3    H162377   1.353   2.532  13.555 -0.0852  0.5169 -1.6338
13654TIP3    H262378   1.213   2.541  13.613  0.7489 -0.4269  0.6291
13655TIP3   OH262379   5.016   6.243  15.890 -0.5830  0.1004 -0.3559
13655TIP3    H162380   5.082   6.282  15.832  0.3728  0.5997  1.0200
13655TIP3    H262381   4.943   6.305  15.887 -0.0785  0.7160 -0.1349
13656TIP3   OH262382   0.845   4.996  15.732  0.5042 -0.4184  0.3703
13656TIP3    H162383   0.928   5.036  15.760 -0.1098  0.4994  0.9467
13656TIP3    H262384   0.781   5.065  15.743  0.2719  0.4691 -4.3306
13657TIP3   OH262385   2.261   4.945  12.946  0.2437 -0.2277  0.0553
13657TIP3    H162386   2.211   4.994  13.012  1.0915 -0.2650  0.7470
13657TIP3    H262387   2.330   4.901  12.996  0.1483 -1.2765 -0.6997
13658TIP3   OH262388   6.378   5.189  13.610  0.8006 -0.1225 -0.0431
13658TIP3    H162389   6.337   5.271  13.636  2.4485  0.2012  1.8159
13658TIP3    H262390   6.384   5.193  13.515 -0.7609  1.0875 -0.1157
13659TIP3   OH262391   6.149   0.415  11.863 -0.3343  0.5369 -0.2090
13659TIP3    H162392   6.086   0.459  11.806  0.1659  0.9746 -0.4347
13659TIP3    H262393   6.230   0.466  11.853 -0.2710  0.7038  0.9937
13660TIP3   OH262394   5.624   0.813  11.302 -0.0558 -0.2512  1.1216
13660TIP3    H162395   5.662   0.859  11.227 -0.0243 -0.3702  1.0645
13660TIP3    H262396   5.544   0.861  11.322  0.3087  0.2324  1.4771
13661TIP3   OH262397   2.336   1.204   5.247 -0.5967 -0.0359  0.1578
13661TIP3    H162398   2.284   1.280   5.221 -1.8312 -0.3890  1.4697
13661TIP3    H262399   2.369   1.226   5.334  1.0673 -0.0410 -0.4350
13662TIP3   OH262400   3.940   0.030   3.431  0.0145  0.1877  0.7563
13662TIP3    H162401   3.993   0.034   3.510  2.0833 -0.0146 -0.5324
13662TIP3    H262402   3.867   0.090   3.448  2.6832  3.6590  1.2426
13663TIP3   OH262403   4.991   6.652   1.727 -0.1436  0.5652  0.4398
13663TIP3    H162404   4.964   6.566   1.760  1.8390 -0.1056  0.4218
13663TIP3    H262405   5.056   6.683   1.789 -0.7460  2.0424  0.3852
13664TIP3   OH262406   3.257   2.037  14.198  0.4875  0.7357  0.2897
13664TIP3    H162407   3.305   1.999  14.271  2.8961  2.2300 -0.4064
13664TIP3    H262408   3.186   1.976  14.181  2.0109 -1.4999  1.5366
13665TIP3   OH262409   1.353   2.810   4.838  0.2293  0.1084  0.3811
13665TIP3    H162410   1.275   2.858   4.810  0.2776  0.0452  0.1348
13665TIP3    H262411   1.403   2.873   4.889  1.5123  1.1471 -1.9650
13666TIP3   OH262412   2.377   5.187  14.607 -0.0714  0.0492 -0.1889
13666TIP3    H162413   2.370   5.271  14.653  0.2663  1.2094 -2.1174
13666TIP3    H262414   2.402   5.124  14.674  0.9356  1.7476  1.1102
13667TIP3   OH262415   5.486   0.091  15.271 -0.2311 -0.1189 -0.1899
13667TIP3    H162416   5.532   0.173  15.288 -0.5626  0.0876 -0.2960
13667TIP3    H262417   5.529   0.055  15.194 -0.5780  0.3245 -0.5943
13668TIP3   OH262418   5.596   3.994  15.404 -0.3956  0.0532  0.2546
13668TIP3    H162419   5.662   3.951  15.458 -0.8566  0.6831  1.3533
13668TIP3    H262420   5.516   3.944  15.419 -0.7163  0.7221  0.8144
13669TIP3   OH262421   1.327   5.577  15.589 -0.6919 -0.5447  0.1784
13669TIP3    H162422   1.323   5.573  15.684  0.3139 -0.9806  0.2146
13669TIP3    H262423   1.242   5.613  15.563 -0.2515  1.4725  1.3355
13670TIP3   OH262424   2.828   1.098  11.915 -0.2102  0.0461 -0.2906
13670TIP3    H162425   2.862   1.090  11.826  0.6079 -1.4278  0.1073
13670TIP3    H262426   2.738   1.065  11.909 -0.1618 -0.0346 -0.5775
13671TIP3   OH262427   1.200   4.849  12.625 -0.4820  0.1773  0.9472
13671TIP3    H162428   1.174   4.905  12.699 -0.1185 -2.0473  2.9013
13671TIP3    H262429   1.204   4.761  12.663  3.9157 -0.5222 -0.6521
13672TIP3   OH262430   6.394   0.556   5.396  0.1510  0.2750  0.8631
13672TIP3    H162431   6.448   0.636   5.401 -1.2773  1.2429  1.5079
13672TIP3    H262432   6.345   0.565   5.314  0.0551  0.0166  0.8925
13673TIP3   OH262433   5.848   5.149  12.904 -0.6097 -0.3347 -0.1649
13673TIP3    H162434   5.784   5.216  12.880 -0.3950 -0.3272 -0.7278
13673TIP3    H262435   5.902   5.190  12.971  0.4767  0.6270 -1.5507
13674TIP3   OH262436   3.343   3.549   5.148  0.0186  0.6020  0.4500
13674TIP3    H162437   3.297   3.613   5.201 -0.0158  0.8113  0.1671
13674TIP3    H262438   3.309   3.464   5.178 -0.8352  0.7702 -0.0198
13675TIP3   OH262439   2.475   3.332   1.909 -0.4941 -0.1114 -0.1443
13675TIP3    H162440   2.464   3.329   2.004  0.6788  1.9775  0.1349
13675TIP3    H262441   2.387   3.352   1.875 -0.8528 -0.5233  0.5245
13676TIP3   OH262442   3.017   0.905   5.299  0.4821 -0.2344  0.2528
13676TIP3    H162443   2.923   0.922   5.301  0.0167 -2.5582  0.9733
13676TIP3    H262444   3.049   0.936   5.384  0.5449  1.2817 -0.2986
13677TIP3   OH262445   3.880   0.993   1.934  0.5764 -0.1374 -0.2769
13677TIP3    H162446   3.964   1.001   1.890  1.0113  0.8065  0.6818
13677TIP3    H262447   3.818   1.038   1.877  0.6270 -1.1722 -1.1743
13678TIP3   OH262448   6.157   3.785  15.329 -0.3300  0.3157  0.1431
13678TIP3    H162449   6.123   3.793  15.240  0.4962  2.3831 -0.0472
13678TIP3    H262450   6.212   3.706  15.328 -4.4370 -2.8860  0.3277
13679TIP3   OH262451   0.662   2.501  16.977  0.2307  0.2769 -0.2733
13679TIP3    H162452   0.599   2.444  17.020  0.5253  0.2940  0.1917
13679TIP3    H262453   0.631   2.508  16.887 -0.1995 -0.0433 -0.1508
13680TIP3   OH262454   6.728   4.462   0.397 -0.8248 -0.0128  0.2797
13680TIP3    H162455   6.742   4.425   0.484 -0.1204  0.3091  0.3156
13680TIP3    H262456   6.786   4.412   0.339 -0.5951  0.3794  0.1618
13681TIP3   OH262457   6.328   0.991  11.857 -0.2740 -0.5184  0.1666
13681TIP3    H162458   6.362   0.984  11.946 -1.0726 -1.0588  0.4314
13681TIP3    H262459   6.333   0.902  11.822  1.9249  0.0013 -1.0513
13682TIP3   OH262460   4.165   1.277   0.605 -0.3950 -0.3988 -0.2999
13682TIP3    H162461   4.255   1.309   0.606 -1.2125  2.0785  0.2373
13682TIP3    H262462   4.158   1.230   0.522  0.9383  0.8144 -1.1528
13683TIP3   OH262463   3.228   3.327  16.675 -0.1790  0.6697  0.1208
13683TIP3    H162464   3.147   3.359  16.636  0.0928  0.8904 -0.2632
13683TIP3    H262465   3.293   3.393  16.654 -0.1343  1.0709  1.4092
13684TIP3   OH262466   3.579   5.310   4.477 -0.0926  0.0418 -0.0736
13684TIP3    H162467   3.600   5.302   4.384  0.4249  1.6227 -0.1332
13684TIP3    H262468   3.484   5.317   4.480 -0.0284  1.5427 -0.6658
13685TIP3   OH262469   1.157   1.021  12.523  0.1098 -0.3122 -0.2625
13685TIP3    H162470   1.208   1.087  12.569  0.5171 -0.2139 -0.8317
13685TIP3    H262471   1.067   1.035  12.551  0.4281 -0.6707  0.9713
13686TIP3   OH262472   0.735   1.789  13.132 -0.3234  0.1200 -0.4401
13686TIP3    H162473   0.700   1.859  13.075 -1.5312  1.2075  1.5051
13686TIP3    H262474   0.819   1.766  13.092  0.3896  3.0577 -0.9379
13687TIP3   OH262475   1.774   4.658   3.368 -0.0752  0.3600 -0.7484
13687TIP3    H162476   1.714   4.666   3.442 -0.5000  1.2582 -1.1721
13687TIP3    H262477   1.852   4.616   3.405  0.1691  1.8007  0.4955
13688TIP3   OH262478   1.919   2.246   1.745  0.1527 -0.0305  0.9734
13688TIP3    H162479   1.880   2.159   1.753  1.1977 -0.5377  0.7220
13688TIP3    H262480   1.993   2.245   1.805 -1.0671  1.4473  2.6063
13689TIP3   OH262481   4.616   1.660   1.519  0.5556  0.0565 -0.0395
13689TIP3    H162482   4.558   1.736   1.508  0.9723  0.2113 -1.4298
13689TIP3    H262483   4.695   1.696   1.558  0.8666  0.4284 -0.9652
13690TIP3   OH262484   1.544   3.107   5.024  0.0690  0.5298 -0.1127
13690TIP3    H162485   1.522   3.033   5.080  1.3045  0.7163  0.6448
13690TIP3    H262486   1.551   3.181   5.083  0.3388  0.9491 -0.6562
13691TIP3   OH262487   0.586   4.150  14.301  0.2670 -0.4034  0.2887
13691TIP3    H162488   0.512   4.106  14.342  1.1795 -2.8174 -0.4617
13691TIP3    H262489   0.583   4.239  14.336 -4.1504  0.3107 -1.2559
13692TIP3   OH262490   4.378   1.337   1.843  0.6141 -0.3235 -0.4999
13692TIP3    H162491   4.406   1.252   1.808  1.7611 -0.1707  0.0022
13692TIP3    H262492   4.450   1.397   1.823 -1.0039  1.0450 -2.5938
13693TIP3   OH262493   2.687   2.991   4.403 -0.3372  0.1969 -0.1770
13693TIP3    H162494   2.758   3.051   4.422 -0.5366  0.6576 -0.8513
13693TIP3    H262495   2.639   2.983   4.485  0.4858 -0.1217  0.2844
13694TIP3   OH262496   1.724   2.672  11.518  0.2592 -0.3611  0.4121
13694TIP3    H162497   1.679   2.612  11.458 -0.9863  1.9209 -1.0676
13694TIP3    H262498   1.815   2.642  11.517 -0.1044 -1.5653 -1.1028
13695TIP3   OH262499   2.236   2.643  16.076  0.2178  0.4267 -0.2250
13695TIP3    H162500   2.264   2.626  15.986  1.4617  3.4612 -0.5155
13695TIP3    H262501   2.317   2.649  16.126 -0.4613 -2.7150  1.5762
13696TIP3   OH262502   6.077   5.632   2.024 -0.0731 -0.1346  0.3811
13696TIP3    H162503   5.989   5.642   1.988 -0.4191  1.1543  1.4864
13696TIP3    H262504   6.122   5.576   1.962 -0.7118  1.6912 -1.8886
13697TIP3   OH262505   4.850   0.016  11.664  0.3608 -0.0489  0.0674
13697TIP3    H162506   4.915   0.057  11.606 -0.1872  3.1717  1.4696
13697TIP3    H262507   4.900  -0.048  11.714  3.0727  3.4218  2.2755
13698TIP3   OH262508   3.218   4.443   0.520  0.0273 -0.1298 -0.3677
13698TIP3    H162509   3.204   4.520   0.465 -0.6951 -0.2054 -0.2997
13698TIP3    H262510   3.130   4.418   0.550  0.4221 -0.0321  0.9166
13699TIP3   OH262511   2.040   1.343  10.764  0.0651 -0.4121  0.0210
13699TIP3    H162512   2.127   1.306  10.755 -0.9529 -3.5598  1.6247
13699TIP3    H262513   2.025   1.346  10.859 -1.6340 -0.1648 -0.2228
13700TIP3   OH262514   2.982   1.529   0.534 -0.2846  0.4731  0.2834
13700TIP3    H162515   2.915   1.594   0.517  0.5462  1.0944 -0.7727
13700TIP3    H262516   3.058   1.558   0.483  0.9493  0.0469  1.7763
13701TIP3   OH262517   4.925   1.799   5.510  0.4354 -0.3664 -0.5454
13701TIP3    H162518   4.850   1.764   5.462 -0.2482  0.7072 -0.2989
13701TIP3    H262519   4.950   1.730   5.570 -1.6657 -0.0274  0.8099
13702TIP3   OH262520   5.914   5.222   4.431 -0.1808 -0.0280 -0.7218
13702TIP3    H162521   5.834   5.260   4.468 -0.7686  1.3417 -3.1006
13702TIP3    H262522   5.984   5.252   4.488 -1.2504 -0.3294  0.7991
13703TIP3   OH262523   1.812   4.016  13.532 -0.1964  0.0063  0.1920
13703TIP3    H162524   1.795   4.029  13.626 -0.8398 -0.7185  0.1828
13703TIP3    H262525   1.773   4.092  13.490  0.4323  0.5313  0.5412
13704TIP3   OH262526   6.214   0.700   1.136  0.1639 -0.2512  0.3189
13704TIP3    H162527   6.129   0.738   1.155  0.7116  0.1626  2.1503
13704TIP3    H262528   6.197   0.607   1.123 -0.6553 -0.0407 -0.1644
13705TIP3   OH262529   6.389   5.895  15.836  0.0335  0.0653  0.4361
13705TIP3    H162530   6.431   5.872  15.753  2.3243 -0.8069  1.7371
13705TIP3    H262531   6.315   5.951  15.811 -0.3513 -1.4807 -2.2665
13706TIP3   OH262532   2.515   6.306   1.442  0.1313  0.6308  0.8409
13706TIP3    H162533   2.420   6.289   1.444  0.2412 -0.1705  0.0271
13706TIP3    H262534   2.552   6.225   1.408  1.0352  1.2725  0.2790
13707TIP3   OH262535   3.615   4.951  15.450 -0.0121 -0.3221  0.6553
13707TIP3    H162536   3.534   4.994  15.476  0.9407  0.7605  1.9501
13707TIP3    H262537   3.613   4.867  15.495 -0.4922 -0.3943  0.5099
13708TIP3   OH262538   4.290   0.320   3.451  0.1145 -0.0413  0.4323
13708TIP3    H162539   4.352   0.254   3.421  0.9610  0.2864  1.4070
13708TIP3    H262540   4.272   0.297   3.542 -0.8908  0.1124  0.2867
13709TIP3   OH262541   6.702   3.927   1.463  0.8550  0.5580  0.5538
13709TIP3    H162542   6.707   3.961   1.553 -1.1704  0.7970  0.6212
13709TIP3    H262543   6.793   3.906   1.440  1.3396 -0.3694  2.9872
13710TIP3   OH262544   6.514   3.374   2.956  0.4439 -0.2956  0.3318
13710TIP3    H162545   6.505   3.456   2.907 -0.1151 -0.9481 -0.6822
13710TIP3    H262546   6.582   3.392   3.021 -0.3796  1.2981  0.8077
13711TIP3   OH262547   5.413   3.256  14.825  0.1508  0.4607 -0.3202
13711TIP3    H162548   5.391   3.344  14.855  1.2970  0.8052 -0.4497
13711TIP3    H262549   5.399   3.200  14.902  0.2822  0.8919  0.0172
13712TIP3   OH262550   5.346   5.338   0.507  0.0420 -0.2249 -0.0058
13712TIP3    H162551   5.373   5.429   0.491  0.3453 -0.5513 -1.5727
13712TIP3    H262552   5.369   5.322   0.598 -0.4173  1.4026  0.4293
13713TIP3   OH262553   1.715   0.570  12.605  0.0063 -0.5790  0.5922
13713TIP3    H162554   1.713   0.621  12.524  3.1057 -0.5045  0.4452
13713TIP3    H262555   1.725   0.479  12.576 -1.3201 -0.8492  0.9098
13714TIP3   OH262556   2.486   2.126   5.216 -0.1732  0.2595  0.4135
13714TIP3    H162557   2.446   2.061   5.275  2.0107  0.4212  2.1890
13714TIP3    H262558   2.542   2.074   5.158  1.7871  0.4629  2.0103
13715TIP3   OH262559   0.674   2.817   1.020  0.2904  0.4077 -0.1185
13715TIP3    H162560   0.616   2.871   0.966 -0.3312 -0.8981 -0.8106
13715TIP3    H262561   0.641   2.827   1.109 -0.1674  0.7354 -0.3214
13716TIP3   OH262562   0.060   2.666   0.852  0.6416 -0.0722 -0.2375
13716TIP3    H162563   0.103   2.702   0.775 -0.1713  1.0793 -0.1755
13716TIP3    H262564   0.061   2.572   0.839 -0.7094  0.1574 -2.3201
13717TIP3   OH262565   3.927   6.559   0.430 -0.4725 -0.1361  0.2836
13717TIP3    H162566   3.903   6.647   0.402  0.2228  0.4477  1.4463
13717TIP3    H262567   3.901   6.502   0.357 -0.5094  1.0769 -0.6697
13718TIP3   OH262568   2.453   2.150  11.762 -0.1031  0.0218  0.0476
13718TIP3    H162569   2.529   2.131  11.818 -0.5894 -0.7053  0.4832
13718TIP3    H262570   2.431   2.065  11.723 -0.3265  0.3476 -0.5486
13719TIP3   OH262571   4.108   1.603  16.513 -0.0324  0.4311  0.3575
13719TIP3    H162572   4.022   1.621  16.549 -0.6210 -1.0005 -0.2609
13719TIP3    H262573   4.099   1.622  16.419  0.2530  0.0768  0.2545
13720TIP3   OH262574   4.038   4.663  13.148  0.3177 -0.0271 -0.2351
13720TIP3    H162575   3.993   4.664  13.232  0.7719  1.0321 -0.0015
13720TIP3    H262576   3.968   4.675  13.083  0.2286  1.5834  0.1248
13721TIP3   OH262577   1.333   4.096  13.751  0.3444  0.7527  0.7767
13721TIP3    H162578   1.240   4.090  13.770  0.0484  1.2781 -0.4207
13721TIP3    H262579   1.366   4.007  13.760 -0.3781  0.4752  0.6489
13722TIP3   OH262580   4.103   1.617   1.848 -0.2335 -0.0585 -0.2632
13722TIP3    H162581   4.123   1.660   1.930  2.3806  0.2687 -0.9890
13722TIP3    H262582   4.102   1.523   1.869  2.8279 -0.1666 -0.1886
13723TIP3   OH262583   2.096   1.447  13.198  0.3815 -0.2622 -0.2802
13723TIP3    H162584   2.090   1.520  13.260  0.9026 -0.1625 -0.3380
13723TIP3    H262585   2.160   1.476  13.133  0.3044 -0.6195 -0.5167
13724TIP3   OH262586   4.208   4.539  13.489  0.1758  0.3802  0.0575
13724TIP3    H162587   4.242   4.623  13.521  1.6936  0.1187 -0.7675
13724TIP3    H262588   4.281   4.500  13.441 -0.7850 -1.0195 -0.3429
13725TIP3   OH262589   5.678   2.835  14.104 -0.6383 -0.4396  0.0739
13725TIP3    H162590   5.653   2.791  14.023 -0.7744 -0.5016  0.1497
13725TIP3    H262591   5.655   2.772  14.173  0.3908 -0.8055  0.1021
13726TIP3   OH262592   1.805   2.293   2.243 -0.2302 -0.2515  0.2082
13726TIP3    H162593   1.862   2.251   2.308  0.8811 -0.1294 -0.6617
13726TIP3    H262594   1.860   2.361   2.204 -1.5086  1.0182  0.5154
13727TIP3   OH262595   2.193   6.753   4.477  0.2047  0.0365 -0.0705
13727TIP3    H162596   2.288   6.762   4.474  0.6371 -3.3392 -2.3582
13727TIP3    H262597   2.164   6.783   4.391 -0.7422  0.5216  0.4086
13728TIP3   OH262598   0.406   0.383  12.777  0.1905 -0.5203 -0.1506
13728TIP3    H162599   0.405   0.472  12.812 -0.9531 -0.4707 -0.2725
13728TIP3    H262600   0.367   0.391  12.690  0.5489 -1.0718 -0.3706
13729TIP3   OH262601   3.390   4.231   3.296  0.1264  0.5472  0.0487
13729TIP3    H162602   3.318   4.243   3.234  0.0164  1.1334  0.2804
13729TIP3    H262603   3.391   4.137   3.313 -0.2627  0.4664 -0.3416
13730TIP3   OH262604   0.319   5.177   6.592 -0.2596  0.1267  0.2065
13730TIP3    H162605   0.224   5.179   6.582 -0.1411 -0.1341 -1.0267
13730TIP3    H262606   0.351   5.244   6.532  0.3428  0.1546  0.5514
13731TIP3   OH262607   6.272   4.320   4.035  0.7432  0.0445  0.4764
13731TIP3    H162608   6.195   4.364   3.999 -0.3262 -1.5227  0.7837
13731TIP3    H262609   6.284   4.359   4.121 -0.8264 -0.9340  1.1749
13732TIP3   OH262610   3.764   2.597   2.200 -0.2118 -0.0249  0.0714
13732TIP3    H162611   3.858   2.582   2.198 -0.0830  0.6026  1.1025
13732TIP3    H262612   3.730   2.545   2.126  0.9240 -0.2726 -0.2928
13733TIP3   OH262613   1.984   2.168   0.909  0.4383 -0.4223 -0.1782
13733TIP3    H162614   2.063   2.129   0.872 -0.3752 -0.8737 -1.5066
13733TIP3    H262615   1.913   2.116   0.873 -0.5815  1.2539 -0.6554
13734TIP3   OH262616   4.602   2.933  11.291 -0.1622  0.3979  0.3227
13734TIP3    H162617   4.545   2.938  11.214  0.8117 -1.4495 -0.5980
13734TIP3    H262618   4.570   2.856  11.338  1.0161 -0.1525  0.2397
13735TIP3   OH262619   0.032   4.652   2.619 -0.5657  0.0615  0.0144
13735TIP3    H162620   0.005   4.727   2.566  0.7320  0.2414 -0.4186
13735TIP3    H262621  -0.037   4.587   2.606 -0.8054  0.5129 -1.0220
13736TIP3   OH262622   3.607   2.236   1.206  0.0465  0.2340  0.8602
13736TIP3    H162623   3.532   2.221   1.148 -0.1340  1.5797  0.7149
13736TIP3    H262624   3.682   2.204   1.157 -0.1184  1.2463 -0.0912
13737TIP3   OH262625   2.592   6.387   5.568 -0.2680  0.3323  0.3193
13737TIP3    H162626   2.550   6.398   5.654  1.8417  2.6568  1.2007
13737TIP3    H262627   2.629   6.474   5.549  1.5036 -0.7832 -1.7423
13738TIP3   OH262628   1.906   6.617   0.179 -0.1748  0.0776 -0.6762
13738TIP3    H162629   1.971   6.665   0.128  1.1065 -1.4720 -0.5662
13738TIP3    H262630   1.832   6.605   0.118  0.2384  0.5826 -1.2898
13739TIP3   OH262631   4.969   3.199  15.539  0.5773  0.0241 -0.1639
13739TIP3    H162632   4.946   3.110  15.511 -0.0695  0.0284  0.3089
13739TIP3    H262633   5.064   3.199  15.544  0.6216 -0.4335 -0.8356
13740TIP3   OH262634   5.976   0.305   1.379 -0.5502  0.8290  0.0578
13740TIP3    H162635   6.029   0.369   1.428  0.2887 -1.6811  2.7198
13740TIP3    H262636   5.886   0.336   1.390 -0.2700  1.0382  2.2606
13741TIP3   OH262637   2.011   4.058  15.231 -0.4700 -0.5890  0.2881
13741TIP3    H162638   1.967   3.973  15.242 -0.5149 -0.5317  0.5564
13741TIP3    H262639   2.070   4.065  15.307  1.3100 -1.4462 -0.9423
13742TIP3   OH262640   6.047   2.912   2.933 -0.0188  0.7119  0.9470
13742TIP3    H162641   6.067   2.924   3.026  1.0373 -0.6211  0.9217
13742TIP3    H262642   6.132   2.900   2.891 -0.5150  0.8814 -0.1355
13743TIP3   OH262643   4.375   3.455   2.802  0.0398  0.5089  0.5200
13743TIP3    H162644   4.439   3.515   2.764  1.4678 -0.7020  0.9703
13743TIP3    H262645   4.340   3.503   2.877 -1.9494  2.4491 -1.4706
13744TIP3   OH262646   0.562   5.690  15.465  0.5802  0.3298  0.5490
13744TIP3    H162647   0.521   5.604  15.468  0.6728  0.2431 -0.2990
13744TIP3    H262648   0.522   5.739  15.537 -1.8950  0.6093 -0.8754
13745TIP3   OH262649   0.994   3.131  15.263 -0.6438  0.3082 -0.1037
13745TIP3    H162650   0.993   3.037  15.278 -1.1528  0.0791 -1.4532
13745TIP3    H262651   1.083   3.150  15.234 -1.1261 -0.1647 -2.0369
13746TIP3   OH262652   3.311   1.177   1.197  0.5740  0.0345  0.2648
13746TIP3    H162653   3.333   1.084   1.201 -0.5740 -0.2829 -0.1622
13746TIP3    H262654   3.393   1.222   1.213  1.3470 -1.0564 -0.4416
13747TIP3   OH262655   3.900   5.100   3.789 -0.0141 -0.2471  0.4226
13747TIP3    H162656   3.950   5.164   3.839 -0.9759 -0.4985  1.7446
13747TIP3    H262657   3.841   5.060   3.852 -0.8907 -0.9694 -0.8035
13748TIP3   OH262658   0.600   5.217  13.540 -0.4014  0.2066 -0.0890
13748TIP3    H162659   0.543   5.154  13.495  0.2331  0.0757 -0.7304
13748TIP3    H262660   0.668   5.237  13.476 -0.0237  0.7632  0.4808
13749TIP3   OH262661   6.398   5.070   2.550 -0.6750  0.1437 -0.0703
13749TIP3    H162662   6.342   5.061   2.628 -1.4033  0.4691 -0.5472
13749TIP3    H262663   6.479   5.025   2.574 -0.5283  1.0548  1.2311
13750TIP3   OH262664   5.601   2.816  15.180  0.4285 -0.0400  0.1548
13750TIP3    H162665   5.695   2.832  15.178  0.3296  0.5629 -2.4307
13750TIP3    H262666   5.591   2.725  15.155  0.3262 -0.2707  1.0028
13751TIP3   OH262667   2.063   6.652   1.110 -0.3899  0.2229  0.1101
13751TIP3    H162668   2.105   6.624   1.029 -1.5603  1.1598 -0.8652
13751TIP3    H262669   1.979   6.605   1.110 -0.5299  0.4753  0.6211
13752TIP3   OH262670   6.613   4.019  11.115 -0.2575  0.5112  0.5985
13752TIP3    H162671   6.653   4.091  11.066 -0.2846 -0.5802 -1.1094
13752TIP3    H262672   6.684   3.987  11.171  0.7072 -0.0396 -0.8612
13753TIP3   OH262673   1.020   3.416  13.604  0.7043 -0.2475  0.2969
13753TIP3    H162674   0.957   3.478  13.642  1.7490  1.1065 -0.0979
13753TIP3    H262675   1.035   3.448  13.515  3.0886  0.4278  0.8623
13754TIP3   OH262676   2.373   6.124  14.473  0.2334 -0.9436  0.2523
13754TIP3    H162677   2.344   6.102  14.384  0.5575  1.7637 -0.6470
13754TIP3    H262678   2.298   6.105  14.528 -0.3353 -1.7489 -0.7675
13755TIP3   OH262679   5.410   2.997  14.945  0.6368  0.2004  0.4085
13755TIP3    H162680   5.356   2.954  15.011  0.0488 -0.0689 -0.2342
13755TIP3    H262681   5.480   2.933  14.926 -0.8821 -1.0329 -1.3855
13756TIP3   OH262682   1.003   5.647  12.308  0.4581  0.4993  0.0665
13756TIP3    H162683   1.034   5.599  12.385 -3.6113  0.3231  1.7943
13756TIP3    H262684   0.974   5.731  12.342 -1.8064  0.2659 -1.1268
13757TIP3   OH262685   6.313   2.206   2.897  0.0322  0.4037 -0.0033
13757TIP3    H162686   6.294   2.281   2.841  3.0126  1.6880  0.5168
13757TIP3    H262687   6.385   2.160   2.852 -0.4895 -1.0806  0.6264
13758TIP3   OH262688   5.067   1.961  13.865 -0.0247 -0.0457  0.5933
13758TIP3    H162689   5.122   1.948  13.787  0.3328  0.2323  0.7949
13758TIP3    H262690   4.999   2.022  13.836  1.6391  2.2382  1.1695
13759TIP3   OH262691   2.340   6.648   6.349 -0.2661 -0.0512 -0.2783
13759TIP3    H162692   2.329   6.554   6.364 -0.3173 -0.2854 -1.5988
13759TIP3    H262693   2.271   6.689   6.401 -0.4002 -0.7628  0.1209
13760TIP3   OH262694   5.728   5.759   4.646  0.4745 -0.4509  0.5963
13760TIP3    H162695   5.697   5.806   4.569 -1.3378 -0.2591  1.3912
13760TIP3    H262696   5.660   5.693   4.662 -0.0536  0.5750  2.9501
13761TIP3   OH262697   3.398   6.747   0.935  0.5406  0.5146 -0.3963
13761TIP3    H162698   3.369   6.771   0.847  0.3145 -0.2451 -0.5335
13761TIP3    H262699   3.436   6.827   0.970 -1.2851  1.4256 -0.3910
13762TIP3   OH262700   2.889   4.302   3.897 -0.4050 -0.0099 -0.5002
13762TIP3    H162701   2.944   4.230   3.867 -0.2595 -0.5671  1.0153
13762TIP3    H262702   2.872   4.283   3.990  1.2760  2.8726  0.5352
13763TIP3   OH262703   5.687   0.147  13.496 -0.7686 -0.6505 -0.4193
13763TIP3    H162704   5.777   0.114  13.488 -0.8575 -0.8135 -0.7776
13763TIP3    H262705   5.635   0.068  13.513 -1.0125 -0.7360 -1.4871
13764TIP3   OH262706   0.511   4.791  12.801 -0.4234  0.2277 -0.4793
13764TIP3    H162707   0.605   4.810  12.800 -0.1872 -0.8414  0.3090
13764TIP3    H262708   0.476   4.848  12.869  0.0162 -0.9070  0.7232
13765TIP3   OH262709   4.346   4.469   6.443 -0.2153 -0.7179  0.1592
13765TIP3    H162710   4.291   4.497   6.517  0.8919 -1.2627  1.2103
13765TIP3    H262711   4.375   4.551   6.403 -0.4690 -0.4087  0.5911
13766TIP3   OH262712   2.967   3.447   4.365 -0.1926 -0.3945 -0.2243
13766TIP3    H162713   2.912   3.525   4.374 -0.4547 -0.7119  1.1387
13766TIP3    H262714   3.044   3.477   4.317  0.4335  1.1043  1.5900
13767TIP3   OH262715   6.513   6.396   0.432 -0.6636  0.4298 -0.1607
13767TIP3    H162716   6.467   6.312   0.432 -0.6893  0.3968 -1.7175
13767TIP3    H262717   6.570   6.392   0.355 -0.5038  1.7525 -0.1401
13768TIP3   OH262718   1.536   6.191   3.965 -0.3841  0.2911 -0.6466
13768TIP3    H162719   1.579   6.215   3.882 -1.4983 -0.0178 -1.3405
13768TIP3    H262720   1.552   6.097   3.973 -0.0607  0.3690 -0.3766
13769TIP3   OH262721   3.612   0.445   5.600 -0.0023  1.0575 -0.4245
13769TIP3    H162722   3.585   0.406   5.683  2.5190  1.0004  0.4458
13769TIP3    H262723   3.532   0.448   5.548 -1.8007  1.5701  2.1668
13770TIP3   OH262724   5.687   1.758  12.289 -0.9664  0.0330 -0.0456
13770TIP3    H162725   5.662   1.806  12.210 -1.8382  0.2617  0.3565
13770TIP3    H262726   5.625   1.788  12.356  0.3823  0.6009  0.9914
13771TIP3   OH262727   5.905   5.607   4.442  0.2847 -0.3114 -0.1840
13771TIP3    H162728   5.890   5.573   4.530  0.2086  0.3455  0.0608
13771TIP3    H262729   5.860   5.545   4.384  0.6616 -0.9631  0.2041
13772TIP3   OH262730   1.380   1.742   0.127  0.4842 -0.3785 -0.7547
13772TIP3    H162731   1.296   1.786   0.115  1.2203  1.3414  0.1364
13772TIP3    H262732   1.357   1.650   0.140 -1.0617 -0.4840 -3.4348
13773TIP3   OH262733   5.410   3.551  12.009 -0.1608  0.2310  0.4913
13773TIP3    H162734   5.424   3.457  12.021  1.1135  0.5261  1.4795
13773TIP3    H262735   5.323   3.567  12.045  0.0954 -0.3771  1.4153
13774TIP3   OH262736   5.569   0.435   2.486 -0.4944 -0.0231  0.1377
13774TIP3    H162737   5.663   0.432   2.503 -0.5931 -0.4683  0.6201
13774TIP3    H262738   5.536   0.504   2.544 -0.2157  1.3941 -1.3159
13775TIP3   OH262739   0.416   1.567   0.747 -0.0240  0.6072  0.5040
13775TIP3    H162740   0.455   1.548   0.833 -1.9002 -0.3384  1.2204
13775TIP3    H262741   0.431   1.661   0.734  1.3125  0.5339  1.2968
13776TIP3   OH262742   3.355   4.261  11.792  0.0125 -0.1880 -0.4361
13776TIP3    H162743   3.326   4.175  11.761  0.0154 -0.2004 -0.4045
13776TIP3    H262744   3.279   4.318  11.783 -0.7668 -0.7616  1.8530
13777TIP3   OH262745   1.428   0.531  11.261 -0.0642 -0.3688  0.4131
13777TIP3    H162746   1.501   0.514  11.200 -0.0177 -0.6646  0.5533
13777TIP3    H262747   1.470   0.566  11.339 -0.2007  0.9569 -0.0752
13778TIP3   OH262748   3.413   5.739   2.480  0.4448 -0.2924 -0.5528
13778TIP3    H162749   3.343   5.678   2.456 -0.1799 -0.2590  1.0348
13778TIP3    H262750   3.469   5.743   2.403 -1.6093  0.1294 -2.1187
13779TIP3   OH262751   5.320   0.712  11.808  0.0615  0.0628 -1.2399
13779TIP3    H162752   5.300   0.801  11.836  0.3698 -0.3449  0.4125
13779TIP3    H262753   5.416   0.707  11.810  0.0386 -0.3708 -1.0410
13780TIP3   OH262754   2.216   2.074  11.469 -0.8523  0.3756 -0.0908
13780TIP3    H162755   2.231   2.000  11.528 -0.3933 -0.2450 -0.9560
13780TIP3    H262756   2.262   2.050  11.389 -0.3955  1.7670 -0.2692
13781TIP3   OH262757   1.227   6.408  15.791  0.0559 -0.4744 -0.1631
13781TIP3    H162758   1.262   6.467  15.725  0.5089  0.3622  0.7897
13781TIP3    H262759   1.246   6.451  15.875 -2.4226 -0.3964  0.4596
13782TIP3   OH262760   1.618   4.988   4.073 -0.3021  0.2168  0.0850
13782TIP3    H162761   1.612   5.044   4.151  1.3723 -0.3741  0.6949
13782TIP3    H262762   1.696   5.020   4.027 -0.6287 -0.1750 -0.7550
13783TIP3   OH262763   2.365   4.165   2.428 -0.4363 -0.1631  0.0147
13783TIP3    H162764   2.375   4.234   2.494 -1.1730 -0.6410  0.6472
13783TIP3    H262765   2.326   4.209   2.353 -0.5917  0.1695  0.2890
13784TIP3   OH262766   0.185   1.779   4.455  0.1113 -0.6945 -0.0960
13784TIP3    H162767   0.142   1.862   4.478 -0.1946 -0.8115 -0.2455
13784TIP3    H262768   0.171   1.723   4.531  0.1946 -0.6610 -0.0544
13785TIP3   OH262769   5.209   2.639  12.347 -0.1390  0.5104 -0.1588
13785TIP3    H162770   5.299   2.606  12.354 -0.0516  0.8550  0.3958
13785TIP3    H262771   5.190   2.675  12.433 -0.6651  0.8161 -0.3988
13786TIP3   OH262772   3.100   2.915  15.130  0.2111  0.5653 -0.0362
13786TIP3    H162773   3.183   2.870  15.146 -0.1376  0.0658  0.4495
13786TIP3    H262774   3.069   2.878  15.048  0.5754  0.9160 -0.3320
13787TIP3   OH262775   1.209   3.001   5.156  0.0323  0.3007  0.1529
13787TIP3    H162776   1.302   2.988   5.141 -0.0774 -0.9183  0.4146
13787TIP3    H262777   1.174   3.023   5.070  0.3112 -0.9051 -0.2861
13788TIP3   OH262778   5.073   3.093   0.042 -0.0767  0.4468 -0.5056
13788TIP3    H162779   4.988   3.087   0.086  0.5119  0.1178  0.6226
13788TIP3    H262780   5.078   3.013  -0.010 -0.2698  0.2365 -0.2109
13789TIP3   OH262781   2.712   0.465  13.537 -0.3226  0.4032 -0.5965
13789TIP3    H162782   2.687   0.395  13.477  1.7233 -2.4229  1.5578
13789TIP3    H262783   2.663   0.446  13.617  0.9186  0.8381  0.3080
13790TIP3   OH262784   1.928   1.191  11.373  0.0110 -0.1978 -0.4030
13790TIP3    H162785   1.999   1.211  11.435  1.2162  2.4934 -2.4243
13790TIP3    H262786   1.876   1.271  11.370  0.1349 -0.1382 -2.9832
13791TIP3   OH262787   4.224   3.017   6.170  0.0822  0.1198 -0.0024
13791TIP3    H162788   4.267   2.932   6.178 -1.2260 -0.8839 -2.6175
13791TIP3    H262789   4.287   3.072   6.124  0.4679  0.2150  0.6275
13792TIP3   OH262790   1.781   1.584  13.021 -0.1411 -0.4639 -0.8060
13792TIP3    H162791   1.736   1.639  12.957 -0.4343 -0.4333 -0.5783
13792TIP3    H262792   1.865   1.562  12.980  1.7437  3.3055  0.5235
13793TIP3   OH262793   2.495   3.051   6.604 -0.0886  0.6071 -0.4266
13793TIP3    H162794   2.511   2.967   6.647 -0.7127 -0.1126 -1.5476
13793TIP3    H262795   2.557   3.111   6.644 -0.0398 -0.2418  0.8271
13794TIP3   OH262796   3.731   6.432  17.103 -0.1379 -0.6198 -0.0435
13794TIP3    H162797   3.726   6.409  17.010 -0.5965  0.3678 -0.2786
13794TIP3    H262798   3.816   6.400  17.131  0.3247 -0.2646 -0.9989
13795TIP3   OH262799   5.977   0.702  16.548  0.0110  0.3086  0.4174
13795TIP3    H162800   6.047   0.646  16.581 -0.6309 -2.1892 -2.0228
13795TIP3    H262801   6.019   0.756  16.481  0.1142  0.8374  0.9027
13796TIP3   OH262802   6.083   4.076   3.703  0.6324  0.1375  0.2796
13796TIP3    H162803   6.120   4.049   3.618  0.8003 -1.9134  0.9446
13796TIP3    H262804   6.013   4.137   3.680  0.2828 -0.8294 -1.3935
13797TIP3   OH262805   0.154   2.646  11.469 -0.8407  0.2133  0.3995
13797TIP3    H162806   0.116   2.685  11.390 -0.3778  1.4230  0.7403
13797TIP3    H262807   0.086   2.589  11.504 -1.2047 -0.0072 -0.6324
13798TIP3   OH262808   1.499   3.216  15.712  0.6103 -0.2914  0.1322
13798TIP3    H162809   1.423   3.246  15.761 -1.4632 -1.3805 -2.2156
13798TIP3    H262810   1.554   3.172  15.778 -1.6727 -1.0757  1.6273
13799TIP3   OH262811   5.042   0.353   2.255 -0.1369 -0.1996 -0.0128
13799TIP3    H162812   5.023   0.352   2.349 -0.8415  0.0635 -0.1415
13799TIP3    H262813   5.038   0.261   2.229  1.6352 -0.4501  0.4980
13800TIP3   OH262814   0.269   4.027   3.565  0.0931 -0.0792  1.0516
13800TIP3    H162815   0.215   4.073   3.501 -0.5856 -0.3687  1.4079
13800TIP3    H262816   0.234   4.054   3.650  1.6972  1.1902  1.3741
13801TIP3   OH262817   4.704   2.209  14.862  0.4220  0.3339 -0.7716
13801TIP3    H162818   4.709   2.302  14.884 -0.6987  0.2971 -0.2810
13801TIP3    H262819   4.783   2.171  14.900 -0.2002  0.7176  0.9889
13802TIP3   OH262820   3.680   0.290   2.351 -0.2528  0.0894 -0.2135
13802TIP3    H162821   3.596   0.276   2.308  0.0146 -1.7087 -0.2212
13802TIP3    H262822   3.660   0.350   2.423 -0.7698  2.9474 -2.5466
13803TIP3   OH262823   3.548   0.758   5.189  0.0336 -0.1997 -0.3544
13803TIP3    H162824   3.457   0.741   5.216  0.6924  1.1326  3.2345
13803TIP3    H262825   3.592   0.674   5.199 -0.5760 -0.6714 -1.3840
13804TIP3   OH262826   2.991   2.016  14.855 -0.0365 -0.0712 -0.2056
13804TIP3    H162827   2.904   2.024  14.815  0.7430  0.2582 -1.9283
13804TIP3    H262828   2.982   1.945  14.919 -2.1561  1.4712  1.3694
13805TIP3   OH262829   4.635   0.868  17.155 -0.2322  0.4747  0.6157
13805TIP3    H162830   4.660   0.867  17.062 -0.0845 -2.9386  0.5603
13805TIP3    H262831   4.546   0.903  17.156  0.1836  1.6452 -0.6426
13806TIP3   OH262832   1.127   2.862  13.330 -0.1470  0.2284 -0.2405
13806TIP3    H162833   1.162   2.809  13.258 -3.3405  1.0370 -2.6307
13806TIP3    H262834   1.167   2.824  13.409  2.9195 -1.2496 -2.2882
13807TIP3   OH262835   1.281   5.836   2.222  0.0126 -0.3102 -1.2635
13807TIP3    H162836   1.371   5.828   2.255 -0.0318 -0.2925 -1.1345
13807TIP3    H262837   1.256   5.746   2.200  1.0734 -0.0108 -4.0895
13808TIP3   OH262838   4.932   0.209   0.595 -0.1701  0.3164  0.0378
13808TIP3    H162839   4.862   0.169   0.543  0.1524 -0.2241  0.0214
13808TIP3    H262840   4.890   0.230   0.679  0.6163 -3.9880  1.7489
13809TIP3   OH262841   5.282   1.956  13.674 -0.4617  0.0649  0.6331
13809TIP3    H162842   5.242   1.914  13.598  0.8492 -1.2565  0.6307
13809TIP3    H262843   5.318   2.038  13.641  2.3766 -1.6298 -0.8567
13810TIP3   OH262844   3.846   3.141   0.175 -0.3304 -0.0895 -0.0371
13810TIP3    H162845   3.841   3.065   0.232  3.4185 -1.7047 -1.5426
13810TIP3    H262846   3.877   3.212   0.232 -0.4218 -0.6179  0.6813
13811TIP3   OH262847   4.192   5.115  14.196 -0.3824 -0.0597 -0.0765
13811TIP3    H162848   4.206   5.030  14.154 -1.7718  0.6056 -2.0206
13811TIP3    H262849   4.124   5.157  14.144  1.0804  2.7601  0.0785
13812TIP3   OH262850   4.185   5.709   4.851 -0.5630 -0.3564  0.1990
13812TIP3    H162851   4.216   5.622   4.827 -0.2362 -0.1638 -0.0818
13812TIP3    H262852   4.090   5.700   4.855 -0.5832 -0.5599 -0.5242
13813TIP3   OH262853   4.278   4.259  14.192 -0.3089 -0.2431  0.1465
13813TIP3    H162854   4.191   4.288  14.164 -0.0177  0.0520 -0.4680
13813TIP3    H262855   4.339   4.322  14.152  0.0810  0.7768  2.2053
13814TIP3   OH262856   5.630   3.422   2.928  0.0335  0.3187 -0.0714
13814TIP3    H162857   5.619   3.433   3.022 -0.6785 -0.4142 -0.0622
13814TIP3    H262858   5.713   3.467   2.908  0.4377  0.0561  0.9756
13815TIP3   OH262859   1.715   4.359   1.530  0.0627 -0.5019  0.2882
13815TIP3    H162860   1.805   4.386   1.515 -0.1271  0.8191  1.3284
13815TIP3    H262861   1.723   4.279   1.583  0.6494  0.5327  1.8328
13816TIP3   OH262862   0.556   5.286   4.823  0.0110 -0.3248  0.2798
13816TIP3    H162863   0.529   5.353   4.761 -4.6046 -0.7782  1.4240
13816TIP3    H262864   0.571   5.208   4.769 -0.1210  0.2350 -0.5835
13817TIP3   OH262865   0.051   0.718  14.042  0.2936 -0.2803 -0.2957
13817TIP3    H162866  -0.035   0.717  14.084  0.1442 -0.6404 -0.6086
13817TIP3    H262867   0.090   0.634  14.065 -0.3650 -1.1055 -2.0517
13818TIP3   OH262868   0.862   2.713   1.300  0.4373  0.5646  0.3552
13818TIP3    H162869   0.790   2.769   1.327 -0.1864  0.1199 -0.3449
13818TIP3    H262870   0.821   2.644   1.248  1.4533  0.8402 -0.8872
13819TIP3   OH262871   6.491   4.040   6.185  0.2633 -0.2137 -0.1320
13819TIP3    H162872   6.574   4.080   6.158  0.3939 -2.1348 -3.0151
13819TIP3    H262873   6.439   4.113   6.218  2.5134  1.3090  0.2964
13820TIP3   OH262874   3.159   5.568   2.551 -0.0534  0.2366  0.6085
13820TIP3    H162875   3.140   5.474   2.556 -0.2790  0.2139 -0.4341
13820TIP3    H262876   3.243   5.578   2.594  0.8473 -0.7299 -0.8371
13821TIP3   OH262877   1.856   0.325  14.279  0.0769  0.7296 -0.1424
13821TIP3    H162878   1.843   0.393  14.213  1.5409  0.5619 -0.6221
13821TIP3    H262879   1.891   0.372  14.355  2.5755  0.3555 -0.9935
13822TIP3   OH262880   2.966   0.703   5.608  0.3121 -0.3071  0.6500
13822TIP3    H162881   2.903   0.731   5.674 -0.1002 -2.0033  1.0055
13822TIP3    H262882   3.029   0.776   5.603 -1.1348  1.0202  0.9426
13823TIP3   OH262883   5.724   3.214   4.337  0.7477 -0.2428  0.4605
13823TIP3    H162884   5.759   3.171   4.259 -2.6885  0.9921 -2.0414
13823TIP3    H262885   5.668   3.149   4.378  1.2242 -0.3835  0.8785
13824TIP3   OH262886   4.570   3.010  13.939 -0.1081  0.0028 -0.0989
13824TIP3    H162887   4.645   2.962  13.975  1.2446  2.1040  0.0913
13824TIP3    H262888   4.573   3.095  13.983 -1.2780  0.9360 -1.7128
13825TIP3   OH262889   2.265   5.430   0.645  0.2134 -0.1921  0.1006
13825TIP3    H162890   2.272   5.517   0.685  2.2465 -0.2626 -0.0035
13825TIP3    H262891   2.352   5.413   0.608 -0.4183 -1.8756 -0.7276
13826TIP3   OH262892   3.921   1.520   3.172  0.8646 -0.0108  0.0780
13826TIP3    H162893   3.847   1.553   3.223  0.5750  0.8763 -0.8904
13826TIP3    H262894   3.975   1.597   3.156  2.5967 -0.8336  1.6943
13827TIP3   OH262895   2.325   5.828  15.923 -0.2366  0.0884 -0.1493
13827TIP3    H162896   2.327   5.892  15.993  0.6335 -0.9466  0.8172
13827TIP3    H262897   2.309   5.744  15.967 -1.2660 -0.3803 -1.3641
13828TIP3   OH262898   5.943   5.039   5.144  0.1823 -0.5857 -0.4323
13828TIP3    H162899   5.849   5.041   5.125  0.1765 -0.1555 -0.3759
13828TIP3    H262900   5.984   5.071   5.064  0.2782 -0.7248 -0.4385
13829TIP3   OH262901   0.739   5.807  17.187  0.3640  0.4595  0.1821
13829TIP3    H162902   0.697   5.768  17.263  1.1533  1.0300  0.9218
13829TIP3    H262903   0.833   5.791  17.199  0.3674 -1.4013 -1.7824
13830TIP3   OH262904   0.508   5.201  14.814  0.2404  0.6060  0.7016
13830TIP3    H162905   0.444   5.252  14.863  0.2817 -0.2581  1.7042
13830TIP3    H262906   0.467   5.185  14.729  0.9155  3.6923 -0.3167
13831TIP3   OH262907   3.315   1.266  10.457 -0.1891  0.6730  0.2328
13831TIP3    H162908   3.299   1.180  10.496  1.6217  0.4692  0.6104
13831TIP3    H262909   3.230   1.292  10.421 -0.5018 -1.8457 -1.0471
13832TIP3   OH262910   6.184   6.450   0.344 -0.1942 -0.4499 -0.3364
13832TIP3    H162911   6.237   6.370   0.335  0.0430 -0.5841  1.7320
13832TIP3    H262912   6.244   6.515   0.379 -0.7784  0.1842 -0.4898
13833TIP3   OH262913   5.073   3.487  16.281 -0.1096 -0.3944  0.5689
13833TIP3    H162914   5.071   3.481  16.377  0.5459 -0.9634  0.5580
13833TIP3    H262915   5.101   3.577  16.264 -0.9859 -0.0536  0.8990
13834TIP3   OH262916   5.657   1.369  13.468 -0.0543  0.7327  0.0256
13834TIP3    H162917   5.748   1.352  13.443 -0.0408  0.0851  0.5017
13834TIP3    H262918   5.629   1.437  13.407  0.2243 -0.2388 -1.2527
13835TIP3   OH262919   6.368   2.849   6.515 -0.3037  0.4844 -0.2738
13835TIP3    H162920   6.277   2.825   6.500 -0.8091  1.8703  0.3856
13835TIP3    H262921   6.365   2.942   6.537  0.9705  0.0486  2.1202
13836TIP3   OH262922   2.126   6.139  11.346  0.1836 -0.0186  0.1032
13836TIP3    H162923   2.171   6.082  11.284  2.0025 -0.5797  1.8262
13836TIP3    H262924   2.197   6.188  11.389 -1.1799  2.0963  0.0899
13837TIP3   OH262925   4.664   2.505   0.124 -0.2801  0.2957 -0.1269
13837TIP3    H162926   4.703   2.487   0.038 -0.1463  2.0292 -0.4546
13837TIP3    H262927   4.683   2.426   0.175  1.0537 -0.1253 -1.1933
13838TIP3   OH262928   6.255   0.300  11.285 -0.7158 -0.6066 -0.2425
13838TIP3    H162929   6.231   0.347  11.205 -1.4191 -0.5985 -0.0384
13838TIP3    H262930   6.210   0.216  11.278 -1.1594 -0.4258  0.3500
13839TIP3   OH262931   3.360   5.793  12.392  0.1843  0.6669  0.1548
13839TIP3    H162932   3.320   5.712  12.360  1.1324  0.6632 -1.0963
13839TIP3    H262933   3.371   5.847  12.313 -0.0911  1.8759  0.9094
13840TIP3   OH262934   4.047   3.073   5.935  0.3657 -0.6940 -0.0282
13840TIP3    H162935   3.992   3.150   5.919  0.0842 -0.8183  0.3197
13840TIP3    H262936   4.085   3.088   6.022 -0.8798 -1.6287  0.7167
13841TIP3   OH262937   6.304   0.656   0.530 -0.1121  0.4851 -0.3836
13841TIP3    H162938   6.281   0.660   0.623  1.9771 -0.6296  0.2527
13841TIP3    H262939   6.346   0.740   0.512  0.0186  0.4688 -0.1586
13842TIP3   OH262940   6.684   4.405  16.297  0.4613 -0.0362 -0.4246
13842TIP3    H162941   6.684   4.310  16.288  0.2804 -0.0088 -0.7098
13842TIP3    H262942   6.593   4.428  16.318  0.8569 -0.1059  1.6388
13843TIP3   OH262943   5.147   6.396  12.220 -0.5942 -0.2179  0.4182
13843TIP3    H162944   5.112   6.478  12.186  0.9891 -0.3364 -1.7616
13843TIP3    H262945   5.221   6.421  12.274 -0.0520 -0.1959 -0.3252
13844TIP3   OH262946   2.395   0.555  14.500  0.5050  0.4708  0.1959
13844TIP3    H162947   2.444   0.530  14.422  0.1831  0.6015 -0.0456
13844TIP3    H262948   2.448   0.520  14.573  0.5094 -0.1552 -0.1033
13845TIP3   OH262949   2.341   0.724   5.744  0.2647  0.0923 -0.0032
13845TIP3    H162950   2.360   0.774   5.824 -0.4852  1.1806 -0.4889
13845TIP3    H262951   2.282   0.780   5.694  0.4461 -0.7293 -1.1727
13846TIP3   OH262952   3.287   4.357  14.629  0.3799  0.3531  0.1411
13846TIP3    H162953   3.195   4.364  14.603  0.3553  2.9389  0.6907
13846TIP3    H262954   3.294   4.409  14.709  2.0954 -0.8257  0.8258
13847TIP3   OH262955   4.570   6.055   5.584  0.1405  0.7266  0.4561
13847TIP3    H162956   4.533   6.094   5.504 -1.2538 -1.3482  0.0167
13847TIP3    H262957   4.647   6.008   5.553  0.1886  0.7771  0.5008
13848TIP3   OH262958   3.583   4.712  14.947 -0.1402 -0.2682 -0.4971
13848TIP3    H162959   3.595   4.731  15.040 -0.2538  0.0419 -0.5453
13848TIP3    H262960   3.587   4.797  14.904  0.1492 -0.4318 -0.8059
13849TIP3   OH262961   4.562   2.294   5.320 -0.7530 -0.0966 -0.2726
13849TIP3    H162962   4.479   2.262   5.355  0.7377 -3.7261  0.3424
13849TIP3    H262963   4.568   2.255   5.232  0.6729 -0.6833  0.0548
13850TIP3   OH262964   3.226   2.898  16.709  0.4721 -0.2384 -0.6090
13850TIP3    H162965   3.264   2.969  16.657 -1.0705  1.2489  0.1972
13850TIP3    H262966   3.253   2.917  16.799  0.0307 -0.6689 -0.3840
13851TIP3   OH262967   0.881   5.282  14.068  0.4062  0.4012  0.1107
13851TIP3    H162968   0.927   5.357  14.106 -0.4241  1.0980 -0.2164
13851TIP3    H262969   0.943   5.244  14.006  1.5768 -0.4080  1.7026
13852TIP3   OH262970   4.756   1.010  11.260 -0.0402 -0.2578  0.2325
13852TIP3    H162971   4.713   0.947  11.203  0.6227 -0.0154 -0.5529
13852TIP3    H262972   4.844   0.976  11.272  1.1470  1.6431 -2.1577
13853TIP3   OH262973   4.593   1.623   3.836 -0.4405 -0.0862  0.2390
13853TIP3    H162974   4.543   1.618   3.918 -0.5215  0.0100  0.1962
13853TIP3    H262975   4.609   1.717   3.824 -1.0211 -0.0395 -0.2090
13854TIP3   OH262976   2.421   6.321   4.278 -0.7391 -0.4300 -0.4830
13854TIP3    H162977   2.360   6.318   4.204 -0.4582  0.5397 -0.7633
13854TIP3    H262978   2.369   6.358   4.349 -0.4244  0.6102 -0.7852
13855TIP3   OH262979   5.035   0.939   3.271 -0.0247  0.0229  0.2023
13855TIP3    H162980   5.069   0.874   3.209  0.8678  0.5719  0.0964
13855TIP3    H262981   4.965   0.893   3.318  0.6554 -1.0427  0.1990
13856TIP3   OH262982   1.599   3.837  10.793 -0.3092  0.7828  0.1225
13856TIP3    H162983   1.580   3.899  10.863 -0.8087 -0.0433  0.7354
13856TIP3    H262984   1.514   3.800  10.770  0.2881 -2.1964  2.1766
13857TIP3   OH262985   0.404   5.994  15.514 -0.0005 -0.0853  0.2085
13857TIP3    H162986   0.379   5.984  15.606 -0.8639 -0.4891 -0.0571
13857TIP3    H262987   0.349   5.931  15.468  2.0603 -1.6000 -0.3370
13858TIP3   OH262988   3.146   5.344  16.480  0.3502  0.6254 -0.0728
13858TIP3    H162989   3.222   5.286  16.475 -0.5869 -0.5838 -0.5906
13858TIP3    H262990   3.080   5.303  16.424 -1.2710  0.7709  1.6246
13859TIP3   OH262991   1.870   6.604   3.884  0.3415  0.5851 -0.9298
13859TIP3    H162992   1.793   6.644   3.842  0.1406 -0.4069 -1.5390
13859TIP3    H262993   1.934   6.596   3.814  0.7390  0.7442 -0.5848
13860TIP3   OH262994   6.388   5.301  14.994 -0.1441 -0.0751 -0.6950
13860TIP3    H162995   6.427   5.227  14.946  0.3693  0.1739 -0.6617
13860TIP3    H262996   6.367   5.265  15.080  1.7552  0.2685 -0.0533
13861TIP3   OH262997   6.183   4.382  12.936  0.2228  0.7566  0.3559
13861TIP3    H162998   6.202   4.300  12.982  0.6866 -0.3059 -1.6421
13861TIP3    H262999   6.269   4.422  12.921  0.2678  0.1371 -1.2232
13862TIP3   OH263000   0.557   4.306   4.237  0.5337 -0.2528  0.5464
13862TIP3    H163001   0.584   4.279   4.325 -0.8320  1.1370  1.4488
13862TIP3    H263002   0.486   4.246   4.214  0.5573 -0.3052  0.6118
13863TIP3   OH263003   1.621   5.341  11.981 -0.1513  0.4134  0.3460
13863TIP3    H163004   1.577   5.256  11.993 -1.5014  1.1977  1.1999
13863TIP3    H263005   1.711   5.318  11.961 -0.2891 -1.2376  1.3783
13864TIP3   OH263006   0.258   4.331  12.532 -0.3053 -0.2869 -0.1565
13864TIP3    H163007   0.284   4.412  12.489  1.6087 -0.3612  0.7448
13864TIP3    H263008   0.230   4.357  12.619  0.6867 -0.5870  0.2740
13865TIP3   OH263009   4.523   2.460   0.735  0.8420  0.0817  0.3349
13865TIP3    H163010   4.455   2.509   0.781 -2.3247  0.9164 -4.4855
13865TIP3    H263011   4.582   2.528   0.700 -0.9321  0.3410 -2.5049
13866TIP3   OH263012   6.678   0.211   1.295  0.1493 -0.5536 -0.1474
13866TIP3    H163013   6.771   0.228   1.277  0.1109 -0.3614 -0.1725
13866TIP3    H263014   6.677   0.173   1.383  0.2628 -0.6637 -0.1942
13867TIP3   OH263015   0.624   0.059  14.130  0.2272  0.3033 -0.5526
13867TIP3    H163016   0.585   0.020  14.208  1.1797 -1.4811 -0.9085
13867TIP3    H263017   0.718   0.059  14.147  0.2672  2.6613 -0.5330
13868TIP3   OH263018   4.166   6.566  16.745  0.0580 -0.5573 -0.1482
13868TIP3    H163019   4.144   6.659  16.743 -1.5796 -0.9171 -0.2949
13868TIP3    H263020   4.220   6.552  16.666 -1.3610 -0.1084 -1.2317
13869TIP3   OH263021   0.652   1.186  15.831 -0.6187 -0.8895 -0.4905
13869TIP3    H163022   0.624   1.270  15.796 -0.3903 -0.9110 -0.7198
13869TIP3    H263023   0.717   1.154  15.769 -1.1390 -1.5140 -0.7289
13870TIP3   OH263024   5.480   1.439   0.622 -0.2540 -0.1113 -0.6355
13870TIP3    H163025   5.560   1.387   0.615 -0.6120 -0.7682 -0.0877
13870TIP3    H263026   5.450   1.424   0.712  0.3843  2.2157  0.0364
13871TIP3   OH263027   2.316   3.233   0.001 -0.1744  0.2203 -0.0880
13871TIP3    H163028   2.284   3.289   0.071  0.8724 -0.3590  0.8848
13871TIP3    H263029   2.278   3.270  -0.079 -1.8234  0.5791  0.8152
13872TIP3   OH263030   4.515   6.245  12.295  0.0645 -0.0699  0.3362
13872TIP3    H163031   4.582   6.308  12.324 -1.1014  1.0273  0.7435
13872TIP3    H263032   4.440   6.299  12.272 -1.4648 -1.3743  2.0175
13873TIP3   OH263033   1.032   0.383   4.254  0.2011  0.4763  0.0373
13873TIP3    H163034   1.082   0.302   4.257 -1.6795 -0.8166 -0.7816
13873TIP3    H263035   0.990   0.390   4.340  0.9617  1.0150  0.3732
13874TIP3   OH263036   5.498   2.301   1.235 -0.0411  0.4997  0.0573
13874TIP3    H163037   5.551   2.363   1.185 -0.4265  1.1551  0.4564
13874TIP3    H263038   5.543   2.293   1.319 -0.4603  0.9107  0.3255
13875TIP3   OH263039   4.776   2.576  14.422 -0.2102  0.8861 -0.5130
13875TIP3    H163040   4.720   2.599  14.349  0.5978  1.4692 -0.9713
13875TIP3    H263041   4.841   2.646  14.425 -0.3465  0.9845  0.8919
13876TIP3   OH263042   5.393   1.624  16.914  0.6619 -0.2128 -0.5055
13876TIP3    H163043   5.319   1.632  16.853 -0.7086 -0.1597  1.0706
13876TIP3    H263044   5.430   1.538  16.896 -0.4632 -0.6874 -0.6375
13877TIP3   OH263045   4.856   0.461   1.060  0.3119  0.2160  0.3469
13877TIP3    H163046   4.770   0.503   1.056  0.1022 -0.2970 -1.0999
13877TIP3    H263047   4.879   0.462   1.153 -0.7555  1.3475  0.6204
13878TIP3   OH263048   0.263   5.293  13.490 -0.5070  0.4013  0.8686
13878TIP3    H163049   0.299   5.323  13.573  0.4002  0.4809  0.4520
13878TIP3    H263050   0.322   5.224  13.460  0.2716  1.6386 -0.6116
13879TIP3   OH263051   0.762   2.095   1.370  0.6730 -0.2711  0.2280
13879TIP3    H163052   0.716   2.104   1.286 -0.5257  3.7841  1.0967
13879TIP3    H263053   0.817   2.172   1.376  1.6153 -1.0249  2.7248
13880TIP3   OH263054   4.823   6.245   0.703 -0.2523 -0.0118  0.5054
13880TIP3    H163055   4.769   6.191   0.761  1.3274 -2.6259 -0.2627
13880TIP3    H263056   4.874   6.181   0.652 -0.0963  2.1904 -2.3328
13881TIP3   OH263057   1.127   5.576   0.770  0.0409  0.0095 -0.2821
13881TIP3    H163058   1.153   5.591   0.862  0.8424 -0.8733 -0.3455
13881TIP3    H263059   1.049   5.521   0.776  1.2215 -1.7360 -0.1139
13882TIP3   OH263060   0.609   6.090  12.060 -0.3620 -0.4622  0.0394
13882TIP3    H163061   0.520   6.116  12.084 -0.1974  0.5282 -0.4034
13882TIP3    H263062   0.655   6.081  12.144 -1.2215 -2.3722  0.3709
13883TIP3   OH263063   2.540   0.684  15.169  0.4314 -0.2215  0.5338
13883TIP3    H163064   2.573   0.692  15.259 -0.2261  0.5096  0.7234
13883TIP3    H263065   2.540   0.590  15.152  2.0140 -0.2825  0.7309
13884TIP3   OH263066   0.836   3.715  14.403 -0.4084  0.2307 -0.8183
13884TIP3    H163067   0.893   3.655  14.354 -0.1965  0.3320 -0.6967
13884TIP3    H263068   0.891   3.791  14.422 -0.3663  0.0263 -0.0801
13885TIP3   OH263069   3.154   6.393  16.784  0.1035 -0.1051  0.8523
13885TIP3    H163070   3.167   6.482  16.752 -2.7992  0.2493  0.4082
13885TIP3    H263071   3.185   6.337  16.713  1.0580  0.5174  0.7509
13886TIP3   OH263072   6.346   5.287  14.664 -0.9310  0.5530  0.2814
13886TIP3    H163073   6.408   5.326  14.602 -0.4419  2.0872  1.6586
13886TIP3    H263074   6.268   5.343  14.658 -2.0777 -1.0793 -1.0839
13887TIP3   OH263075   2.618   6.704  15.868 -0.5409 -0.4071 -0.0211
13887TIP3    H163076   2.610   6.659  15.952  1.1756 -0.1626  0.3078
13887TIP3    H263077   2.528   6.710  15.836 -1.4402  0.8609  2.4926
13888TIP3   OH263078   2.267   0.675   3.618 -0.0125  1.0235 -0.2089
13888TIP3    H163079   2.258   0.702   3.709 -0.2287 -0.7175  0.3266
13888TIP3    H263080   2.184   0.700   3.577 -0.2938  0.9646  0.3129
13889TIP3   OH263081   4.760   6.517  17.149  0.0147  0.3617  0.1968
13889TIP3    H163082   4.756   6.560  17.063 -1.8623  1.9119  1.0077
13889TIP3    H263083   4.674   6.477  17.160  0.7600 -1.1913  0.7351
13890TIP3   OH263084   1.157   1.177   2.375 -0.3104 -0.3225  0.2065
13890TIP3    H163085   1.206   1.136   2.447 -0.6061 -0.8789  0.0982
13890TIP3    H263086   1.138   1.265   2.406  1.2544  0.1063  0.0236
13891TIP3   OH263087   0.669   3.542   2.112 -0.4654  0.4035 -0.5150
13891TIP3    H163088   0.753   3.589   2.115 -0.2948  0.0845 -0.0979
13891TIP3    H263089   0.666   3.494   2.195 -0.3668 -0.7672 -1.1675
13892TIP3   OH263090   3.994   6.660   0.669 -0.5776 -0.1060 -0.5778
13892TIP3    H163091   3.971   6.617   0.587 -2.3065 -1.7831  0.6725
13892TIP3    H263092   3.912   6.660   0.719  0.8443 -1.1169  1.9451
13893TIP3   OH263093   5.364   4.751   0.906  0.0185  0.7387 -0.0501
13893TIP3    H163094   5.294   4.728   0.845  1.2008 -1.2793 -0.7520
13893TIP3    H263095   5.431   4.793   0.851  0.1160  1.0420  0.2912
13894TIP3   OH263096   0.722   5.512   5.802 -0.1267 -0.3727 -0.1154
13894TIP3    H163097   0.800   5.457   5.805 -0.4475 -0.9463 -1.3900
13894TIP3    H263098   0.680   5.500   5.887  0.3001 -1.3895 -0.0385
13895TIP3   OH263099   0.138   5.828  17.202 -0.3288  0.2697  0.2106
13895TIP3    H163100   0.212   5.775  17.172 -0.6335  0.3579 -0.7396
13895TIP3    H263101   0.061   5.773  17.184 -0.5509  0.4765  0.5079
13896TIP3   OH263102   0.889   4.454   1.281  0.0327 -0.3473  0.0241
13896TIP3    H163103   0.847   4.414   1.357 -0.5245 -1.2334 -0.7279
13896TIP3    H263104   0.825   4.447   1.211  0.3676  0.8666 -0.4283
13897TIP3   OH263105   2.630   6.261  12.896  0.0094  0.1748 -0.1905
13897TIP3    H163106   2.661   6.270  12.986 -1.4986 -1.0034  0.4896
13897TIP3    H263107   2.668   6.179  12.865 -0.0373  0.2286 -0.3927
13898TIP3   OH263108   6.422   6.569   0.896  0.3838 -1.0481 -0.3040
13898TIP3    H163109   6.363   6.612   0.958  1.2256 -2.5068  1.6208
13898TIP3    H263110   6.441   6.636   0.830  0.5146  1.0553  1.7571
13899TIP3   OH263111   1.322   1.918  16.912  0.0960 -0.1276  0.5093
13899TIP3    H163112   1.265   1.846  16.882  3.0832 -1.7422 -1.8727
13899TIP3    H263113   1.315   1.984  16.843  0.9642 -0.3020  0.2393
13900TIP3   OH263114   0.662   3.011   2.092  0.2078 -0.1361  0.3642
13900TIP3    H163115   0.650   2.955   2.169 -0.5270  1.9518  1.8554
13900TIP3    H263116   0.736   3.067   2.114 -0.4842  0.9907 -0.0981
13901TIP3   OH263117   6.557   5.003  15.663  0.5478 -0.3651 -0.2806
13901TIP3    H163118   6.521   5.090  15.680  1.3382 -0.0832 -0.0185
13901TIP3    H263119   6.622   4.990  15.732 -0.3930 -1.6580  0.4106
13902TIP3   OH263120   1.584   6.655   3.673  0.0681  0.0776 -0.5008
13902TIP3    H163121   1.504   6.653   3.725  0.9530 -0.4989  0.9225
13902TIP3    H263122   1.565   6.715   3.601 -1.2161  0.9290  0.5002
13903TIP3   OH263123   0.302   5.478   2.013  0.6030  0.3585 -0.3545
13903TIP3    H163124   0.396   5.490   2.025  0.8054 -1.0100 -0.3335
13903TIP3    H263125   0.261   5.532   2.080  1.4249 -0.2074  0.6183
13904TIP3   OH263126   5.992   1.446  16.173  0.0994  0.2446  0.8350
13904TIP3    H163127   5.912   1.470  16.125 -0.0581 -1.1080  0.3596
13904TIP3    H263128   5.972   1.466  16.264 -0.9882 -0.5061  0.7904
13905TIP3   OH263129   6.132   1.161   0.468 -0.1696 -0.7841 -0.1638
13905TIP3    H163130   6.213   1.147   0.518  0.3709 -0.7599 -1.0106
13905TIP3    H263131   6.162   1.176   0.378 -0.8067  2.9681  0.0605
13906TIP3   OH263132   1.419   6.756   2.157  0.0751  0.4918  0.0773
13906TIP3    H163133   1.323   6.752   2.157  0.1092 -1.8827 -1.1543
13906TIP3    H263134   1.442   6.800   2.076  0.0391  0.3698  0.0012
13907TIP3   OH263135   3.010   1.275   1.784 -0.0674  0.0603  0.1538
13907TIP3    H163136   3.065   1.197   1.790 -0.2495 -0.2170 -1.4802
13907TIP3    H263137   3.056   1.340   1.837  2.4407  0.1726 -1.9789
13908TIP3   OH263138   4.298   5.847   4.443 -0.2878  0.2020  0.7110
13908TIP3    H163139   4.234   5.864   4.511 -0.2966  0.3595  0.6645
13908TIP3    H263140   4.380   5.829   4.490 -0.6585 -1.3214  0.8126
13909TIP3   OH263141   1.297   1.357  14.181  0.0645 -0.4705  0.4641
13909TIP3    H163142   1.392   1.362  14.168 -0.0848  2.1127 -0.2409
13909TIP3    H263143   1.286   1.299  14.256  2.1079 -1.7681 -0.1638
13910TIP3   OH263144   0.567   4.900  14.588  0.4138 -0.1259 -0.5462
13910TIP3    H163145   0.648   4.888  14.639 -0.5765 -5.9588  0.4035
13910TIP3    H263146   0.497   4.884  14.651 -1.3464  0.9087 -2.1473
13911TIP3   OH263147   0.520   3.720   4.622 -0.4959 -0.3865 -0.3060
13911TIP3    H163148   0.467   3.673   4.558 -0.4761 -0.0133 -0.5998
13911TIP3    H263149   0.464   3.792   4.651 -0.1387  0.0362 -0.6491
13912TIP3   OH263150   2.897   4.412   1.781 -0.3437 -0.7686  0.3465
13912TIP3    H163151   2.846   4.385   1.857  1.5583 -1.1230  1.5693
13912TIP3    H263152   2.906   4.506   1.790 -3.0781 -0.2413 -1.4197
13913TIP3   OH263153   6.357   2.055   2.505 -0.2115 -0.1397  0.7105
13913TIP3    H163154   6.287   2.118   2.519 -1.4296 -1.5706  1.2942
13913TIP3    H263155   6.322   1.993   2.442  0.7719 -0.5283  0.5326
13914TIP3   OH263156   1.692   5.376   2.196  0.1226  0.0224 -0.6053
13914TIP3    H163157   1.637   5.438   2.245  0.4659 -0.0172 -0.1585
13914TIP3    H263158   1.769   5.427   2.172  1.5682 -0.7896  1.8594
13915TIP3   OH263159   5.602   0.282   4.899  0.1163 -0.0071  0.4976
13915TIP3    H163160   5.514   0.297   4.934 -0.0014 -1.3527  0.8514
13915TIP3    H263161   5.656   0.267   4.977  0.2286 -1.2022  0.2111
13916TIP3   OH263162   6.024   5.918  16.956 -0.0637  0.1662  0.1268
13916TIP3    H163163   6.047   5.935  17.047 -0.8523 -0.2472  0.4139
13916TIP3    H263164   5.949   5.858  16.961 -0.2274  0.2789 -0.7901
13917TIP3   OH263165   2.621   5.520   1.002 -0.4733  0.1501  0.0311
13917TIP3    H163166   2.618   5.615   0.991  1.8083  0.3336  0.4606
13917TIP3    H263167   2.657   5.506   1.089  0.3390 -1.0864 -0.4646
13918TIP3   OH263168   4.317   1.250  16.629 -0.1600 -0.2121 -0.2786
13918TIP3    H163169   4.343   1.256  16.537 -1.8924  2.0477 -0.7157
13918TIP3    H263170   4.222   1.236  16.626  0.0240 -2.3489  1.2328
13919TIP3   OH263171   0.177   4.855  10.860 -0.6402 -0.9983  0.4859
13919TIP3    H163172   0.084   4.850  10.883 -1.0363 -0.2391 -0.7992
13919TIP3    H263173   0.218   4.783  10.907 -2.0880 -2.0940  0.1309
13920TIP3   OH263174   5.834   6.007   1.157  0.0894  0.3273 -0.3889
13920TIP3    H163175   5.929   5.993   1.158  0.2019  0.9843  0.8540
13920TIP3    H263176   5.803   5.959   1.234 -0.5703  0.2342 -0.7146
13921TIP3   OH263177   2.704   4.734   4.747  0.4900  0.0213 -0.3752
13921TIP3    H163178   2.677   4.667   4.809  0.3878 -0.3998 -0.8647
13921TIP3    H263179   2.639   4.728   4.676  0.4026  0.7246 -0.3607
13922TIP3   OH263180   1.413   1.274   3.715 -0.0877  0.0955  0.0020
13922TIP3    H163181   1.440   1.315   3.797  0.8928 -1.1436  0.3084
13922TIP3    H263182   1.342   1.215   3.740 -0.5944  0.5812 -0.2453
13923TIP3   OH263183   1.477   3.296   5.526 -0.3006  0.2848  0.0862
13923TIP3    H163184   1.560   3.343   5.539 -0.4248  0.8144 -0.9010
13923TIP3    H263185   1.460   3.304   5.432 -1.1207 -0.4227  0.1650
13924TIP3   OH263186   3.783   0.776   2.780 -0.1839  0.9333  1.3277
13924TIP3    H163187   3.804   0.759   2.871 -0.4117  1.7834  1.5471
13924TIP3    H263188   3.867   0.782   2.736 -0.0796 -0.0606  1.3546
13925TIP3   OH263189   1.910   6.088  14.128  0.0451  0.5179 -0.4194
13925TIP3    H163190   1.850   6.114  14.198  0.9217  1.6471 -0.0562
13925TIP3    H263191   1.940   6.170  14.090  0.6039 -0.0549 -1.2604
13926TIP3   OH263192   3.849   2.121   5.974  0.0816  0.1598  0.4134
13926TIP3    H163193   3.936   2.095   5.945 -0.5469 -1.6617  0.0189
13926TIP3    H263194   3.858   2.137   6.068  1.0056  0.8935  0.2143
13927TIP3   OH263195   1.542   1.096   2.856 -0.6759  0.3769  0.6486
13927TIP3    H163196   1.560   1.186   2.883  0.9265  0.7841 -1.4962
13927TIP3    H263197   1.551   1.097   2.760 -2.9837 -1.5794  0.3009
13928TIP3   OH263198   6.705   5.293   0.876  0.1173  0.5967 -0.0873
13928TIP3    H163199   6.671   5.246   0.800  0.6477 -1.7335  1.0226
13928TIP3    H263200   6.767   5.356   0.839 -1.0683  0.8938 -1.6801
13929TIP3   OH263201   3.703   2.030   3.577  0.4038  0.4467 -0.3722
13929TIP3    H163202   3.630   1.970   3.592  1.4167 -0.3119  2.0556
13929TIP3    H263203   3.762   1.982   3.518 -0.0757  0.2317 -0.6839
13930TIP3   OH263204   3.951   1.384   2.930  0.3131  0.2727  0.0978
13930TIP3    H163205   3.911   1.399   3.016 -0.0142  0.5472 -0.1020
13930TIP3    H263206   4.043   1.407   2.942  0.1633  0.8114  0.2400
13931TIP3   OH263207   3.772   6.066   5.173 -0.4300  0.4409 -0.0186
13931TIP3    H163208   3.774   6.157   5.202 -3.5774  0.7675 -0.4484
13931TIP3    H263209   3.807   6.068   5.084 -1.8270  1.5251 -0.5696
13932TIP3   OH263210   5.217   0.664  15.909  0.1289 -0.8071 -0.2432
13932TIP3    H163211   5.300   0.616  15.907  0.2868 -0.5564 -2.7321
13932TIP3    H263212   5.173   0.639  15.828 -1.3175  0.6157  0.0553
13933TIP3   OH263213   2.800   4.581  16.544  0.4937 -0.7808 -0.4811
13933TIP3    H163214   2.815   4.646  16.475  1.2732 -0.5395 -0.0925
13933TIP3    H263215   2.745   4.626  16.608 -1.7107 -1.5358 -1.7069
13934TIP3   OH263216   5.413   1.159   2.323 -0.4832  0.6510 -0.2776
13934TIP3    H163217   5.492   1.125   2.364 -1.8610 -1.4244  0.8694
13934TIP3    H263218   5.399   1.245   2.363  0.7580  0.7116  0.0421
13935TIP3   OH263219   6.403   3.854   2.998 -0.7048  0.1707 -0.1950
13935TIP3    H163220   6.497   3.838   2.995 -0.7061  0.2641 -1.1940
13935TIP3    H263221   6.388   3.896   3.082 -0.1590 -1.6560  0.8708
13936TIP3   OH263222   4.596   3.209  14.585 -0.0540 -0.4916  0.3655
13936TIP3    H163223   4.642   3.280  14.541  0.1735 -1.4484 -1.0030
13936TIP3    H263224   4.619   3.219  14.677  1.0994  0.3743  0.0091
13937TIP3   OH263225   3.261   0.691  13.417 -0.0010 -0.8901 -0.3889
13937TIP3    H163226   3.243   0.653  13.503  0.8989  0.6902  0.5417
13937TIP3    H263227   3.191   0.755  13.404  0.0489 -0.8925 -0.6749
13938TIP3   OH263228   3.373   3.602  14.657 -0.8085  0.6280  0.1716
13938TIP3    H163229   3.328   3.522  14.684 -2.9801  0.6911 -2.7596
13938TIP3    H263230   3.311   3.672  14.678 -0.0373  1.2595  0.3532
13939TIP3   OH263231   3.403   1.995   5.431 -0.3829 -0.4721  0.3379
13939TIP3    H163232   3.397   1.950   5.515  1.9054  1.0524  1.4220
13939TIP3    H263233   3.391   1.925   5.366 -1.4336 -1.8187  1.9068
13940TIP3   OH263234   2.993   5.153   6.075 -0.4419  0.2805 -0.2561
13940TIP3    H163235   2.985   5.195   6.160 -1.6239 -2.1228  0.9096
13940TIP3    H263236   3.068   5.195   6.034  0.1390  1.5171  1.9613
13941TIP3   OH263237   4.727   3.371  11.924 -0.3071 -0.2980  0.2139
13941TIP3    H163238   4.794   3.388  11.858  0.2953 -0.3651  0.7967
13941TIP3    H263239   4.650   3.418  11.892  0.0935  0.0048 -0.3301
13942TIP3   OH263240   3.544   1.312   1.260  0.6025 -0.2607  0.2015
13942TIP3    H163241   3.566   1.373   1.331  0.6274  3.1524 -2.4806
13942TIP3    H263242   3.620   1.313   1.203 -0.7974  0.1758 -1.7682
13943TIP3   OH263243   5.378   5.584  10.804  0.7935  0.6635  0.2181
13943TIP3    H163244   5.392   5.490  10.812 -0.0710  0.5923  1.0333
13943TIP3    H263245   5.432   5.610  10.730  0.7835 -0.5280 -0.2214
13944TIP3   OH263246   6.613   5.267  14.529 -0.5436 -0.0999 -0.1018
13944TIP3    H163247   6.555   5.342  14.517 -0.1707  0.1079 -0.6394
13944TIP3    H263248   6.563   5.207  14.585 -0.0684  1.4086  2.0768
13945TIP3   OH263249   4.885   2.204   2.801 -0.3295 -0.4642 -0.0210
13945TIP3    H163250   4.931   2.127   2.768  1.2064  0.4924 -0.1671
13945TIP3    H263251   4.883   2.192   2.896  0.4404 -0.3935  0.0048
13946TIP3   OH263252   0.708   1.792  11.968  0.5834  0.0470  0.6622
13946TIP3    H163253   0.614   1.788  11.981  0.6134  0.5273  1.0956
13946TIP3    H263254   0.720   1.852  11.894  0.5947  1.3239  1.6452
13947TIP3   OH263255   2.932   2.852   5.825  0.1527  0.6771 -0.4403
13947TIP3    H163256   3.025   2.874   5.822  0.2143  0.2511 -2.5348
13947TIP3    H263257   2.899   2.871   5.738 -1.4961 -0.2416 -0.0671
13948TIP3   OH263258   3.039   4.144   0.762 -1.3656 -0.1658  0.1887
13948TIP3    H163259   3.135   4.138   0.760 -1.2292  1.0030  1.4443
13948TIP3    H263260   3.016   4.127   0.854 -2.2912  0.4005  0.0745
13949TIP3   OH263261   6.011   5.819   0.917 -0.1654 -0.4078  0.4343
13949TIP3    H163262   6.081   5.873   0.952  0.4562  0.4645 -1.9695
13949TIP3    H263263   6.038   5.729   0.933  1.3769 -0.0731 -0.1499
13950TIP3   OH263264   3.563   5.357   2.644 -0.1955 -0.1398 -0.0882
13950TIP3    H163265   3.518   5.408   2.576  0.8185  0.2737 -0.4666
13950TIP3    H263266   3.603   5.284   2.598 -1.2003 -1.0259  0.3817
13951TIP3   OH263267   1.049   2.865   1.382 -0.7686 -0.3248  0.3985
13951TIP3    H163268   0.986   2.808   1.337 -1.5319  0.7076  0.0912
13951TIP3    H263269   1.064   2.823   1.466 -1.0997 -1.1148  0.0764
13952TIP3   OH263270   1.338   2.159  11.030  0.2794  0.1920 -0.1609
13952TIP3    H163271   1.319   2.233  10.972 -1.1071 -0.6137 -0.7869
13952TIP3    H263272   1.388   2.099  10.974 -1.1105 -0.6126 -0.5645
13953TIP3   OH263273   3.023   1.954   4.325  0.0140  0.2649 -0.0620
13953TIP3    H163274   3.063   2.041   4.329  1.8094 -0.5605  1.6111
13953TIP3    H263275   2.975   1.954   4.242  0.9913  2.4114 -0.7075
13954TIP3   OH263276   5.314   3.188  14.083  0.5044 -0.4081 -0.0445
13954TIP3    H163277   5.249   3.190  14.153 -0.1812 -0.9331 -0.6596
13954TIP3    H263278   5.300   3.104  14.039  0.4057  0.2389 -1.2997
13955TIP3   OH263279   0.783   4.296  12.304 -0.6893  0.4665  0.2122
13955TIP3    H163280   0.786   4.381  12.349  2.0302  0.3824  0.3294
13955TIP3    H263281   0.794   4.317  12.212  1.0057  0.2249  0.3354
13956TIP3   OH263282   6.058   0.136   2.168 -0.3871 -0.0396 -0.2777
13956TIP3    H163283   6.144   0.178   2.162 -0.6059  0.5982  0.8319
13956TIP3    H263284   6.075   0.052   2.210 -0.5099  0.8417  1.6242
13957TIP3   OH263285   3.568   1.948   1.958  0.2212 -0.7874 -0.1533
13957TIP3    H163286   3.619   1.874   1.924 -0.4241 -1.1799 -0.2907
13957TIP3    H263287   3.530   1.916   2.039  1.2998 -0.0356  0.6747
13958TIP3   OH263288   0.416   5.313  16.462  0.0494 -0.0540  0.4714
13958TIP3    H163289   0.343   5.252  16.469 -0.3979  0.4289  0.1184
13958TIP3    H263290   0.488   5.270  16.508 -0.2064 -0.9121  0.0904
13959TIP3   OH263291   1.495   5.323  11.322  0.5966  0.0511  0.2904
13959TIP3    H163292   1.538   5.384  11.262 -0.3238 -1.4266 -2.0072
13959TIP3    H263293   1.459   5.379  11.390  1.2809  1.8899 -0.7624
13960TIP3   OH263294   1.456   2.891  15.979 -0.5776  0.2074 -0.1495
13960TIP3    H163295   1.362   2.896  15.959 -0.1088  1.1086 -2.4297
13960TIP3    H263296   1.487   2.981  15.967  0.7011 -0.2111 -0.1075
13961TIP3   OH263297   2.865   6.084   0.933  0.0958  0.4401 -0.6711
13961TIP3    H163298   2.889   6.120   0.848  0.3096  0.9489 -0.4030
13961TIP3    H263299   2.902   5.996   0.933  0.3981  0.5646 -0.9690
13962TIP3   OH263300   4.770   6.709  16.491 -0.6821 -0.1514  0.0618
13962TIP3    H163301   4.692   6.658  16.467 -0.7302  0.9221 -2.3755
13962TIP3    H263302   4.842   6.666  16.444 -0.6834  1.7554 -1.8396
13963TIP3   OH263303   2.187   1.681  15.213  0.0588 -0.3223 -0.4812
13963TIP3    H163304   2.126   1.696  15.142 -1.0550  0.3908  0.5892
13963TIP3    H263305   2.187   1.763  15.263  0.1030 -1.1035  0.8489
13964TIP3   OH263306   0.514   5.223   5.792 -0.0721  0.4533  0.0646
13964TIP3    H163307   0.461   5.166   5.848 -0.6169  0.6020 -0.2893
13964TIP3    H263308   0.593   5.173   5.774 -0.6931 -0.3430 -0.5176
13965TIP3   OH263309   0.863   0.643   0.830  0.3558  0.0004 -0.3616
13965TIP3    H163310   0.824   0.721   0.792  0.5289  0.0056 -0.5271
13965TIP3    H263311   0.866   0.580   0.759  2.8502  0.7704 -1.0282
13966TIP3   OH263312   4.335   0.161   4.687 -0.1916  0.3337 -0.0867
13966TIP3    H163313   4.359   0.156   4.595  0.2463  0.1152  0.0355
13966TIP3    H263314   4.359   0.249   4.714  1.4373 -0.1956  0.2871
13967TIP3   OH263315   4.166   3.277   0.444  1.0841  0.9083  0.2703
13967TIP3    H163316   4.168   3.364   0.405 -1.0550  1.6708  1.7012
13967TIP3    H263317   4.189   3.218   0.372  2.4373  2.6003 -0.7620
13968TIP3   OH263318   6.014   2.468   5.793 -0.0899  0.3974  0.0524
13968TIP3    H163319   5.983   2.555   5.817  0.0690  0.6893 -0.7992
13968TIP3    H263320   6.103   2.481   5.762  0.1413 -0.1529  0.4560
13969TIP3   OH263321   1.015   6.479   3.921 -0.7129 -0.4924 -0.8194
13969TIP3    H163322   0.949   6.487   3.852 -0.5719 -2.4098 -1.2089
13969TIP3    H263323   0.970   6.511   4.000 -0.8539  1.7657 -1.7378
13970TIP3   OH263324   6.532   4.307  11.308 -0.4785  0.2094 -0.0180
13970TIP3    H163325   6.533   4.337  11.399 -0.3864  0.5771 -0.1365
13970TIP3    H263326   6.456   4.248  11.303  0.8421 -1.6601  0.8512
13971TIP3   OH263327   5.349   3.347   3.731 -0.3369  0.2536  0.1050
13971TIP3    H163328   5.363   3.389   3.815 -0.8731 -0.5679  0.6180
13971TIP3    H263329   5.258   3.365   3.710  0.0844  1.4130 -0.8641
13972TIP3   OH263330   2.329   3.999   4.432  0.0969  0.1435 -0.6005
13972TIP3    H163331   2.296   4.089   4.428 -1.5549 -0.4607 -1.2456
13972TIP3    H263332   2.411   4.006   4.482 -0.1572  1.9466 -0.3711
13973TIP3   OH263333   5.757   4.685  13.797 -0.0803  0.2715 -0.5615
13973TIP3    H163334   5.738   4.634  13.876  1.2843 -0.1260 -0.4700
13973TIP3    H263335   5.711   4.638  13.727  1.2504 -1.2103 -0.4991
13974TIP3   OH263336   1.987   1.198  16.779  0.1688 -0.0540  0.1681
13974TIP3    H163337   1.971   1.117  16.827  0.3552 -0.1806  0.0176
13974TIP3    H263338   1.916   1.203  16.716  1.1123 -1.0190 -1.0348
13975TIP3   OH263339   0.241   0.784  11.036 -0.1981  0.0185 -0.3143
13975TIP3    H163340   0.208   0.694  11.034 -0.3978  0.0994 -1.6798
13975TIP3    H263341   0.213   0.821  10.952  1.5670  0.7571 -0.6069
13976TIP3   OH263342   2.256   6.261  16.950 -0.2299 -0.1230  0.1191
13976TIP3    H163343   2.291   6.349  16.967 -1.2406  0.3287 -0.0479
13976TIP3    H263344   2.241   6.259  16.856 -1.4337  0.0065  0.2957
13977TIP3   OH263345   4.778   3.208   5.932  0.1293 -0.2217 -0.1391
13977TIP3    H163346   4.762   3.252   6.016  0.0118 -0.8644  0.1905
13977TIP3    H263347   4.691   3.205   5.891  0.4638  1.5417 -1.0348
13978TIP3   OH263348   4.757   2.827  15.989  0.3112 -0.1390 -0.2128
13978TIP3    H163349   4.673   2.848  16.031  0.6082  0.8203 -0.0959
13978TIP3    H263350   4.734   2.760  15.924 -0.3743 -0.6499  0.5237
13979TIP3   OH263351   2.680   5.832   4.441  0.5359  0.4466 -0.8390
13979TIP3    H163352   2.640   5.758   4.394  0.9836 -0.1495 -0.3042
13979TIP3    H263353   2.632   5.909   4.410  0.8407  0.0745 -2.3023
13980TIP3   OH263354   6.369   4.031   3.205 -0.2060 -0.1875  0.6347
13980TIP3    H163355   6.295   4.035   3.264  0.7994  1.1362  1.8751
13980TIP3    H263356   6.444   4.059   3.258  0.9357 -0.0935 -0.9486
13981TIP3   OH263357   4.864   5.954   4.939 -0.4508 -0.2025 -0.1961
13981TIP3    H163358   4.943   6.006   4.960 -0.3766 -0.2458 -0.3708
13981TIP3    H263359   4.828   5.996   4.861 -0.8241  0.0600  0.1126
13982TIP3   OH263360   3.454   5.518  10.552 -0.3604  0.1055  0.3004
13982TIP3    H163361   3.384   5.453  10.551 -0.0518 -0.2242 -0.3653
13982TIP3    H263362   3.535   5.467  10.562  0.3084 -0.1023 -4.1660
13983TIP3   OH263363   3.704   0.428   2.603  0.6975 -0.1417  0.1646
13983TIP3    H163364   3.727   0.418   2.695 -1.3044  1.7435  0.9665
13983TIP3    H263365   3.759   0.499   2.571  1.4290 -0.8300 -0.1459
13984TIP3   OH263366   4.452   0.722  11.407 -0.0571  0.2056  0.4402
13984TIP3    H163367   4.399   0.682  11.476 -0.3213  0.2378  0.2563
13984TIP3    H263368   4.438   0.665  11.331  0.3759  0.0673  0.4625
13985TIP3   OH263369   5.823   3.732   3.980  0.0656  0.4426 -0.0143
13985TIP3    H163370   5.771   3.734   3.899 -0.9474  1.1843  0.6186
13985TIP3    H263371   5.776   3.791   4.039 -0.6723 -2.0059  1.9976
13986TIP3   OH263372   6.251   3.444   4.575 -0.1791 -0.1715 -0.4076
13986TIP3    H163373   6.341   3.415   4.560 -0.1985  0.0237 -0.9185
13986TIP3    H263374   6.200   3.396   4.510 -0.3253  0.3668 -0.6975
13987TIP3   OH263375   1.126   2.925  12.950  0.6931 -0.6322 -0.0658
13987TIP3    H163376   1.187   2.944  12.878 -0.3184 -0.6843 -0.9523
13987TIP3    H263377   1.043   2.963  12.921 -0.0864 -1.9202  0.4315
13988TIP3   OH263378   3.681   3.025  17.176 -0.8521 -0.4975 -0.5273
13988TIP3    H163379   3.739   3.061  17.244 -2.2308 -2.4698  1.8905
13988TIP3    H263380   3.619   3.095  17.157 -0.3351  0.1574  0.1331
13989TIP3   OH263381   1.273   1.599  14.658  0.2669 -0.1547 -0.3174
13989TIP3    H163382   1.205   1.665  14.646  1.1527  1.1726  1.6050
13989TIP3    H263383   1.313   1.590  14.571 -0.9301  0.6117 -0.9784
13990TIP3   OH263384   2.993   0.635   6.075 -0.0850 -0.4991 -0.1060
13990TIP3    H163385   2.909   0.597   6.051 -0.1804 -0.3787  0.0303
13990TIP3    H263386   2.975   0.682   6.157  0.4600 -1.7864  0.7854
13991TIP3   OH263387   3.272   0.434   1.103  0.2082  0.4607  0.0722
13991TIP3    H163388   3.229   0.366   1.156 -0.4331  0.6471 -0.2004
13991TIP3    H263389   3.213   0.446   1.029  0.3100  1.3339  0.1279
13992TIP3   OH263390   0.163   6.231  16.742 -0.1498  0.1457 -0.5587
13992TIP3    H163391   0.250   6.271  16.735  0.0739  0.1998  1.6001
13992TIP3    H263392   0.176   6.140  16.716  0.1091  0.5836 -2.0571
13993TIP3   OH263393   3.373   3.851   5.441  0.4427  0.1514 -0.2991
13993TIP3    H163394   3.301   3.846   5.379  0.0252  0.9466  0.1150
13993TIP3    H263395   3.447   3.883   5.389  0.3826 -0.2190 -0.6197
13994TIP3   OH263396   0.790   3.348  15.718  0.1635  0.1286 -0.1400
13994TIP3    H163397   0.749   3.262  15.727 -0.0831  0.2837  0.2393
13994TIP3    H263398   0.722   3.403  15.680  0.1534  0.2839  0.1019
13995TIP3   OH263399   1.160   6.486  12.918  0.6206 -0.1349 -0.3133
13995TIP3    H163400   1.245   6.442  12.910  0.3832 -0.8186  0.7474
13995TIP3    H263401   1.096   6.419  12.893  0.3559  0.1936 -0.5177
13996TIP3   OH263402   3.257   3.702  11.736  0.2118  0.1916  0.0724
13996TIP3    H163403   3.186   3.644  11.766 -1.3584  0.8574 -2.1212
13996TIP3    H263404   3.273   3.675  11.646  0.7254  1.9979 -0.4010
13997TIP3   OH263405   2.903   6.375   6.674 -0.2281 -0.2965 -0.0363
13997TIP3    H163406   2.808   6.371   6.669 -0.1537 -1.0279 -1.1551
13997TIP3    H263407   2.929   6.286   6.701  0.0650  0.4060  2.2522
13998TIP3   OH263408   6.447   6.045  16.939 -0.0829 -0.1382 -0.2749
13998TIP3    H163409   6.382   6.042  16.868 -0.4256  1.0952 -0.0370
13998TIP3    H263410   6.531   6.031  16.895 -0.4247 -0.9089 -0.7052
13999TIP3   OH263411   1.054   4.229  15.078 -0.5557  0.0508  0.3799
13999TIP3    H163412   1.010   4.282  15.011 -0.7738 -1.6731 -0.9059
13999TIP3    H263413   1.034   4.139  15.054 -0.3591 -0.6410  2.6183
14000TIP3   OH263414   0.951   4.007  16.071 -0.1863 -0.4881  0.6029
14000TIP3    H163415   1.005   4.070  16.120 -0.6387  0.4304 -0.0378
14000TIP3    H263416   1.006   3.981  15.997 -1.0703  1.6086 -0.9138
14001TIP3   OH263417   5.456   3.223   3.009  0.2655 -0.1327 -0.0174
14001TIP3    H163418   5.515   3.152   2.983 -0.0955 -0.8496  1.0425
14001TIP3    H263419   5.494   3.301   2.969  0.1023 -1.0477 -2.0857
14002TIP3   OH263420   4.003   2.717   2.424  0.5992 -0.2496 -0.0884
14002TIP3    H163421   3.933   2.664   2.463  0.0013  1.6850  1.6229
14002TIP3    H263422   4.049   2.656   2.366 -1.3551 -2.0638  0.1309
14003TIP3   OH263423   4.749   6.083  12.933  0.0857  0.7920 -0.0636
14003TIP3    H163424   4.795   6.155  12.977  0.1415 -1.2405  3.5788
14003TIP3    H263425   4.805   6.006  12.948 -2.5304 -1.0229  1.1932
14004TIP3   OH263426   2.092   4.629   4.217  0.4404  0.5256  0.0153
14004TIP3    H163427   2.070   4.549   4.170  0.4838  0.5889 -0.1125
14004TIP3    H263428   2.015   4.685   4.208  0.2040  0.2906  0.5522
14005TIP3   OH263429   5.025   4.530  14.835  0.0619 -0.2123 -0.1912
14005TIP3    H163430   4.947   4.520  14.890 -0.6152 -0.6770 -1.1934
14005TIP3    H263431   5.098   4.534  14.896 -0.8483  1.5746  0.8512
14006TIP3   OH263432   6.445   5.054  11.955  0.3617 -0.3319  0.4475
14006TIP3    H163433   6.357   5.026  11.980  0.7167 -1.5921  0.3754
14006TIP3    H263434   6.473   4.988  11.892  0.0348  1.9393 -2.2900
14007TIP3   OH263435   1.720   2.826   4.770 -0.7129  0.5238  0.2958
14007TIP3    H163436   1.770   2.859   4.845  0.4398  1.4534 -0.8369
14007TIP3    H263437   1.768   2.749   4.741 -0.6698  0.6593  0.0025
14008TIP3   OH263438   0.359   0.552  16.732 -0.2810  0.1492  0.5649
14008TIP3    H163439   0.347   0.592  16.818 -0.6844 -1.4536  1.2786
14008TIP3    H263440   0.379   0.460  16.750  1.5626  0.1853 -0.9919
14009TIP3   OH263441   3.544   0.241   1.253 -0.2896 -0.1185  0.5513
14009TIP3    H163442   3.569   0.219   1.163  1.3110 -0.6154  1.0812
14009TIP3    H263443   3.540   0.156   1.297 -0.1355  0.1892  1.1619
14010TIP3   OH263444   2.682   1.042  17.133  0.6307  0.4921  0.2331
14010TIP3    H163445   2.672   0.948  17.116  2.1751  0.3525 -0.0485
14010TIP3    H263446   2.766   1.049  17.178  0.0173  1.6415  1.2364
14011TIP3   OH263447   0.743   6.247  11.796 -0.3872  0.4814  0.1584
14011TIP3    H163448   0.801   6.171  11.785  0.2421  0.9503  0.2073
14011TIP3    H263449   0.776   6.291  11.875 -0.5684  0.9654 -0.0334
14012TIP3   OH263450   5.518   1.825   4.476 -0.0276 -0.2069 -0.5058
14012TIP3    H163451   5.451   1.767   4.513 -1.8936  0.8756 -1.9907
14012TIP3    H263452   5.521   1.801   4.383  0.5911  0.7500 -0.7361
14013TIP3   OH263453   4.269   3.401   0.740  0.0297  0.0993  0.1406
14013TIP3    H163454   4.297   3.380   0.651  1.6989 -0.2389  0.7079
14013TIP3    H263455   4.205   3.472   0.729  1.3035  1.1066 -1.2552
14014TIP3   OH263456   4.190   1.970   3.835  1.2424 -0.4306 -0.4498
14014TIP3    H163457   4.106   1.934   3.808  0.7758  0.7791 -0.7048
14014TIP3    H263458   4.250   1.947   3.764  0.5264  0.8191 -1.5166
14015TIP3   OH263459   5.368   0.746  11.465 -0.8710 -0.7318  0.5039
14015TIP3    H163460   5.347   0.653  11.453  0.3464 -0.9954  0.2880
14015TIP3    H263461   5.283   0.790  11.467 -1.4225 -1.7203 -0.4672
14016TIP3   OH263462   5.582   1.806   1.264  0.6003  0.0056 -0.0361
14016TIP3    H163463   5.506   1.814   1.321  0.4405 -2.2072  0.1469
14016TIP3    H263464   5.615   1.896   1.256  0.5721  0.4654  3.4185
14017TIP3   OH263465   0.866   0.855  17.177 -0.5556  0.6589 -0.4833
14017TIP3    H163466   0.793   0.799  17.203 -0.6038  0.7295 -0.4637
14017TIP3    H263467   0.826   0.923  17.122 -0.2685 -0.1803 -1.7563
14018TIP3   OH263468   3.534   2.527  12.517  0.2628  0.0128  0.4605
14018TIP3    H163469   3.543   2.447  12.465  2.3675  0.8849 -0.6419
14018TIP3    H263470   3.452   2.516  12.565 -1.0188 -1.4940 -1.9033
14019TIP3   OH263471   6.762   0.508  16.156 -0.2741 -0.5489 -0.1259
14019TIP3    H163472   6.748   0.435  16.216 -2.8171  0.9840  1.3413
14019TIP3    H263473   6.688   0.504  16.095 -0.3308  0.5917 -0.1724
14020TIP3   OH263474   5.722   2.328   2.701 -0.2960  0.1138  0.3404
14020TIP3    H163475   5.801   2.299   2.745 -0.1101  0.9528  0.5622
14020TIP3    H263476   5.652   2.311   2.764 -0.1151  0.6718  0.7024
14021TIP3   OH263477   4.600   1.774  12.394  0.5903 -0.3881  0.0016
14021TIP3    H163478   4.651   1.839  12.345 -0.0050  0.2740  0.2455
14021TIP3    H263479   4.661   1.702  12.409  1.0238 -0.2389 -0.9875
14022TIP3   OH263480   6.049   2.304  16.713 -0.3964 -0.9039 -0.4561
14022TIP3    H163481   6.069   2.261  16.796 -1.0661 -0.4336 -0.0429
14022TIP3    H263482   5.990   2.375  16.736  1.8689  1.2408 -0.9137
14023TIP3   OH263483   4.583   3.051   4.194 -0.1475  0.1687  0.2367
14023TIP3    H163484   4.498   3.067   4.154 -0.0703 -0.3652 -0.1475
14023TIP3    H263485   4.625   3.137   4.197 -0.9635  0.5595  1.0548
14024TIP3   OH263486   4.756   5.454  13.302  1.2629 -0.0741 -0.1110
14024TIP3    H163487   4.667   5.479  13.278  1.3404  0.1209 -0.2004
14024TIP3    H263488   4.806   5.462  13.220  1.2335 -0.7897 -0.2027
14025TIP3   OH263489   4.740   6.331   3.727  0.2044  0.0243 -0.0209
14025TIP3    H163490   4.782   6.369   3.804 -0.6439 -0.4829  0.7081
14025TIP3    H263491   4.741   6.237   3.743  1.3531 -0.2226 -1.3294
14026TIP3   OH263492   2.252   6.526  13.514  0.2556  0.2076  0.0840
14026TIP3    H163493   2.157   6.541  13.519  0.2909  0.0744  1.2431
14026TIP3    H263494   2.280   6.521  13.605  1.2865 -0.3936 -0.2639
14027TIP3   OH263495   5.913   4.926  16.784  0.6515 -0.8154  0.4149
14027TIP3    H163496   5.849   4.856  16.795  0.6170 -0.7928  0.3602
14027TIP3    H263497   5.869   5.005  16.818 -0.4974 -0.1788 -2.2583
14028TIP3   OH263498   4.308   3.260  11.511 -0.1909  0.2919 -0.1572
14028TIP3    H163499   4.271   3.260  11.423 -0.6584 -1.0415  0.0149
14028TIP3    H263500   4.402   3.272  11.498 -0.1294 -0.8634 -0.9212
14029TIP3   OH263501   0.012   1.429   3.967 -0.3475 -0.2361  0.2510
14029TIP3    H163502   0.048   1.365   4.028 -2.8729 -1.4737  0.5570
14029TIP3    H263503   0.089   1.470   3.928  1.5143 -4.1309 -0.7200
14030TIP3   OH263504   2.686   1.104  10.852 -0.4299 -0.1053  0.3794
14030TIP3    H163505   2.594   1.076  10.846  0.0053 -1.6908  0.6109
14030TIP3    H263506   2.735   1.031  10.815  0.9168 -0.6824  3.0468
14031TIP3   OH263507   0.192   4.062  12.460 -0.4898  0.0239 -0.4381
14031TIP3    H163508   0.114   4.073  12.406 -0.8080  0.4857  0.1123
14031TIP3    H263509   0.221   4.151  12.479  0.1726 -0.1424 -0.6329
14032TIP3   OH263510   5.650   3.762   0.501  0.4346  0.0637  0.4800
14032TIP3    H163511   5.591   3.806   0.561  2.1119  0.6730  1.7747
14032TIP3    H263512   5.736   3.767   0.544  1.6322  0.1356 -1.7587
14033TIP3   OH263513   6.506   2.517   5.621  0.3477 -0.1058 -0.3460
14033TIP3    H163514   6.574   2.528   5.555  1.1037  1.4137  0.6293
14033TIP3    H263515   6.553   2.512   5.704 -0.6826  2.0658  0.4687
14034TIP3   OH263516   6.630   0.949   1.588 -0.4619 -0.0246  0.3904
14034TIP3    H163517   6.540   0.980   1.576  0.2937  1.6663 -1.4424
14034TIP3    H263518   6.684   1.027   1.577  1.2805 -1.0460  1.2161
14035TIP3   OH263519   2.766   1.740   4.035  0.1542  0.0362  0.4798
14035TIP3    H163520   2.782   1.778   4.121 -0.6286 -0.1968  0.7356
14035TIP3    H263521   2.678   1.703   4.041  0.2868 -0.4174 -0.2653
14036TIP3   OH263522   1.151   1.750  13.877 -0.8015 -0.1197 -0.0265
14036TIP3    H163523   1.179   1.691  13.948 -2.2334 -1.5858 -0.6068
14036TIP3    H263524   1.137   1.692  13.802  0.7821  1.4215 -1.5883
14037TIP3   OH263525   0.890   3.319   0.860 -0.4546 -0.2080 -0.1667
14037TIP3    H163526   0.847   3.254   0.804  1.0182 -1.6790  0.3377
14037TIP3    H263527   0.902   3.276   0.944 -0.7547  1.2532  0.6675
14038TIP3   OH263528   0.831   5.586  16.071  0.1107  0.0575  0.3520
14038TIP3    H163529   0.860   5.645  16.002 -1.5318  0.4239 -0.0685
14038TIP3    H263530   0.911   5.563  16.118  1.2088  0.1668 -1.3673
14039TIP3   OH263531   2.120   1.534  12.274  0.2557 -0.1884 -0.2263
14039TIP3    H163532   2.210   1.518  12.244 -0.4350  0.5474 -2.9642
14039TIP3    H263533   2.115   1.629  12.285  0.1154 -0.3323  1.0978
14040TIP3   OH263534   5.958   2.315   0.633 -0.2608 -0.3795  0.0867
14040TIP3    H163535   6.044   2.274   0.628  0.5393  1.2062  0.3473
14040TIP3    H263536   5.953   2.371   0.555 -0.7750  0.0616  0.4254
14041TIP3   OH263537   0.694   2.621  11.921  0.3017  0.5185  0.1395
14041TIP3    H163538   0.628   2.565  11.962  0.4123  0.3681  0.1133
14041TIP3    H263539   0.654   2.707  11.918 -0.3129  0.2141 -0.8342
14042TIP3   OH263540   6.561   3.637   3.347 -0.4680 -0.3548  0.2681
14042TIP3    H163541   6.492   3.645   3.280 -0.0055 -1.1540 -0.3092
14042TIP3    H263542   6.597   3.726   3.354 -0.7471 -0.1893 -0.3048
14043TIP3   OH263543   4.178   5.305  12.239 -0.6427 -0.0503  0.6847
14043TIP3    H163544   4.176   5.368  12.311 -0.2863  1.5319 -0.6138
14043TIP3    H263545   4.266   5.313  12.201 -0.6514 -1.2086  0.3635
14044TIP3   OH263546   2.106   4.985   1.314 -0.2404  0.3730 -0.2062
14044TIP3    H163547   2.150   4.997   1.398 -1.3316 -1.6950  0.7158
14044TIP3    H263548   2.178   4.972   1.251  0.5460 -1.2118  0.9650
14045TIP3   OH263549   1.426   0.308  12.769 -0.3595  0.2715 -0.3443
14045TIP3    H163550   1.490   0.267  12.826 -0.7738  1.3730  0.9789
14045TIP3    H263551   1.358   0.242  12.758 -0.1799 -0.0302  0.2868
14046TIP3   OH263552   4.955   6.371   3.525 -0.0307  0.4730  0.0187
14046TIP3    H163553   5.036   6.403   3.563 -0.2595  2.3818 -0.9775
14046TIP3    H263554   4.887   6.394   3.588  0.1326 -0.9749  0.7735
14047TIP3   OH263555   1.474   1.081  16.607  0.4005 -0.1231  0.2335
14047TIP3    H163556   1.384   1.080  16.574 -0.3257  0.2231  2.0762
14047TIP3    H263557   1.518   1.145  16.552 -0.4042 -0.4908 -0.8755
14048TIP3   OH263558   2.126   4.159  17.034  0.0109  0.1857 -0.5713
14048TIP3    H163559   2.068   4.197  17.100  1.2376  0.6162  0.2903
14048TIP3    H263560   2.100   4.067  17.028  2.0973 -0.8531  3.1435
14049TIP3   OH263561   2.097   6.359  16.218 -0.2453  0.4504  0.7160
14049TIP3    H163562   2.057   6.443  16.240  0.9249  1.9835 -2.4623
14049TIP3    H263563   2.032   6.316  16.162  0.3738  0.6590 -0.1915
14050TIP3   OH263564   4.221   4.096   0.970  0.0249  0.4501 -0.0051
14050TIP3    H163565   4.156   4.162   0.994 -0.4083 -0.2438  0.7869
14050TIP3    H263566   4.298   4.147   0.943 -1.2712  1.2867 -2.2916
14051TIP3   OH263567   3.235   3.727   0.581  0.4536  0.4064 -0.4833
14051TIP3    H163568   3.275   3.801   0.626  1.6766 -0.3554 -0.2753
14051TIP3    H263569   3.142   3.733   0.602  1.0424 -0.4707  3.0155
14052TIP3   OH263570   0.463   3.597  16.931 -0.0594  0.2079 -0.0344
14052TIP3    H163571   0.417   3.514  16.939  0.5003 -0.3858 -2.2090
14052TIP3    H263572   0.434   3.633  16.847  1.9346  0.7390 -0.5624
14053TIP3   OH263573   6.073   0.672  16.228  0.1652  0.1964  0.2570
14053TIP3    H163574   6.125   0.596  16.201 -1.1309 -0.3268 -0.8823
14053TIP3    H263575   6.132   0.746  16.215  0.5620 -0.3485 -1.2809
14054TIP3   OH263576   5.103   1.107   4.343  0.3715 -0.5269 -1.1933
14054TIP3    H163577   5.190   1.111   4.303  1.6965 -0.8041  1.5032
14054TIP3    H263578   5.109   1.163   4.421 -2.0956 -0.0297 -1.2752
14055TIP3   OH263579   0.525   0.406  15.035  0.3618  0.2271  0.1343
14055TIP3    H163580   0.592   0.377  15.097 -0.4704  0.2955  1.0882
14055TIP3    H263581   0.443   0.372  15.071 -0.4140  2.0860  0.2404
14056TIP3   OH263582   6.559   5.894  13.447  0.2479  0.3539  0.2180
14056TIP3    H163583   6.542   5.986  13.468 -0.2492  0.1504  0.7293
14056TIP3    H263584   6.584   5.855  13.531 -1.9747 -0.5257  0.5437
14057TIP3   OH263585   0.072   4.257   3.722  0.0384  0.4830 -0.3747
14057TIP3    H163586   0.055   4.252   3.628  1.9096  3.2843 -0.9886
14057TIP3    H263587  -0.013   4.279   3.761 -0.8789 -1.2386 -1.2494
14058TIP3   OH263588   1.520   0.160   2.326 -0.0697  0.1108  0.6308
14058TIP3    H163589   1.558   0.098   2.388 -0.1772  0.0698  0.6564
14058TIP3    H263590   1.483   0.105   2.256 -0.7207  0.1132  0.9661
14059TIP3   OH263591   6.040   3.458  15.429  0.0640 -0.3719  0.6767
14059TIP3    H163592   6.045   3.366  15.455 -3.5242 -1.2805 -1.0856
14059TIP3    H263593   5.962   3.491  15.474  0.5145  1.4106  0.2273
14060TIP3   OH263594   5.506   1.963   5.910  0.3604  0.4435  0.0127
14060TIP3    H163595   5.575   1.909   5.872  0.2252  0.4238 -0.2068
14060TIP3    H263596   5.552   2.033   5.957  0.5312  0.9042 -0.8175
14061TIP3   OH263597   0.090   3.596   0.504  0.0038  0.0270  0.3429
14061TIP3    H163598   0.107   3.542   0.580 -0.5200 -0.2512  0.2670
14061TIP3    H263599  -0.006   3.597   0.496  0.0875 -1.2968 -1.2712
14062TIP3   OH263600   3.619   2.627   4.629 -0.2794  0.1507  0.1540
14062TIP3    H163601   3.707   2.663   4.628 -0.5211  0.9389  2.0031
14062TIP3    H263602   3.561   2.703   4.617 -0.7208 -0.4051 -1.4191
14063TIP3   OH263603   1.671   2.294   2.879 -0.4175  0.1952 -0.0687
14063TIP3    H163604   1.634   2.382   2.873 -0.7396 -0.0097 -1.5943
14063TIP3    H263605   1.595   2.238   2.895 -0.7079 -0.1165 -2.2300
14064TIP3   OH263606   6.162   1.491  14.348  1.0622 -0.3341 -0.6592
14064TIP3    H163607   6.157   1.426  14.278 -1.0321 -0.1367 -0.7451
14064TIP3    H263608   6.105   1.562  14.320  0.8364  0.1251  0.8687
14065TIP3   OH263609   0.019   5.141   2.071 -0.6754  0.3501  0.4609
14065TIP3    H163610   0.030   5.100   1.985 -0.5473 -0.7623  0.9911
14065TIP3    H263611  -0.074   5.131   2.091 -0.7885  0.9796  0.2824
14066TIP3   OH263612   4.533   3.705  11.085  0.3664 -0.4025  0.3470
14066TIP3    H163613   4.571   3.742  11.165 -0.5366 -0.5794  0.8746
14066TIP3    H263614   4.600   3.719  11.018  2.1846 -2.4056  1.6054
14067TIP3   OH263615   6.196   0.473  11.065 -0.1490  0.3303  0.5447
14067TIP3    H163616   6.208   0.529  10.988  0.5995  0.1961  0.5486
14067TIP3    H263617   6.104   0.448  11.063 -0.0225 -0.1115 -0.6198
14068TIP3   OH263618   2.551   2.691  13.941 -0.0918 -0.5191  0.5023
14068TIP3    H163619   2.567   2.786  13.938 -0.7889 -0.4119 -0.3401
14068TIP3    H263620   2.637   2.653  13.955  0.4208  0.1929 -0.5240
14069TIP3   OH263621   5.372   6.697   1.307  0.5372 -0.2736  0.0541
14069TIP3    H163622   5.363   6.767   1.372  0.2779 -0.5655  0.3351
14069TIP3    H263623   5.405   6.741   1.229  2.6737 -0.1889  0.9322
14070TIP3   OH263624   5.342   2.988   3.853 -0.1603 -0.4477 -0.8041
14070TIP3    H163625   5.327   2.999   3.759 -2.8209  2.4801 -0.1824
14070TIP3    H263626   5.338   2.893   3.866 -2.0179 -0.8399 -3.3545
14071TIP3   OH263627   3.088   4.052  11.072 -0.5484 -0.6086  0.2281
14071TIP3    H163628   3.149   3.981  11.093  1.1301  1.1064  1.4465
14071TIP3    H263629   3.112   4.078  10.983 -1.3429 -1.6892 -0.3234
14072TIP3   OH263630   5.276   4.514   1.761 -0.0316  0.0948  0.6965
14072TIP3    H163631   5.364   4.477   1.749  0.6846  1.6392  0.8859
14072TIP3    H263632   5.290   4.608   1.757 -1.8900  0.3684 -0.5963
14073TIP3   OH263633   6.705   4.799  13.681 -0.5021  0.2207 -0.3326
14073TIP3    H163634   6.653   4.870  13.719  1.2651  1.3771  0.0456
14073TIP3    H263635   6.749   4.758  13.755  0.1321  0.1117 -0.7578
14074TIP3   OH263636   3.423   1.497  13.547 -0.0951  0.3918  0.2862
14074TIP3    H163637   3.464   1.475  13.631 -2.2684 -2.7339  0.7214
14074TIP3    H263638   3.369   1.574  13.566  0.8757  0.8735  1.2252
14075TIP3   OH263639   3.136   4.112  15.753  0.3068 -0.2413 -0.8326
14075TIP3    H163640   3.044   4.084  15.748  0.2702 -0.5027  0.7711
14075TIP3    H263641   3.163   4.123  15.662 -0.6520 -2.3005 -1.4170
14076TIP3   OH263642   2.397   1.374  15.695  0.3880 -0.1302 -0.5928
14076TIP3    H163643   2.329   1.421  15.743 -0.7024 -1.2619 -0.9751
14076TIP3    H263644   2.443   1.441  15.644  0.4901  0.8480  0.7334
14077TIP3   OH263645   3.825   0.051   1.004  0.0980 -0.5831  0.1429
14077TIP3    H163646   3.886   0.119   0.973  0.4445 -1.4194 -1.0831
14077TIP3    H263647   3.872   0.008   1.076  1.0532 -1.3142 -0.8869
14078TIP3   OH263648   0.687   0.329   4.332  0.9082  0.2892  0.1524
14078TIP3    H163649   0.653   0.396   4.391  1.6384  1.5846 -0.8340
14078TIP3    H263650   0.741   0.273   4.387  1.5987  1.4843  0.7455
14079TIP3   OH263651   2.370   1.264  12.704 -0.4483  0.4414 -0.1182
14079TIP3    H163652   2.430   1.305  12.767 -1.1301  2.0879 -0.4923
14079TIP3    H263653   2.374   1.171  12.725  2.5561  0.3951 -0.3959
14080TIP3   OH263654   6.724   2.652  12.498 -0.0072  0.2534  0.1441
14080TIP3    H163655   6.804   2.644  12.446  1.0290 -1.5882  1.8901
14080TIP3    H263656   6.754   2.682  12.584 -1.2654  0.1153  0.6567
14081TIP3   OH263657   0.609   1.300  11.001 -0.4977 -0.1733 -0.1063
14081TIP3    H163658   0.628   1.360  10.929 -0.2131 -2.6704 -2.2387
14081TIP3    H263659   0.514   1.304  11.012 -0.5899 -0.0203 -0.8973
14082TIP3   OH263660   5.751   1.911  15.375  0.0603  0.2452 -0.0267
14082TIP3    H163661   5.712   1.827  15.352  0.4129  0.2319 -0.6038
14082TIP3    H263662   5.791   1.897  15.461 -0.4195  0.0035  0.1576
14083TIP3   OH263663   3.505   1.472   2.052  0.1572  0.4997 -0.2758
14083TIP3    H163664   3.410   1.470   2.054  0.0270  3.0008  1.6235
14083TIP3    H263665   3.527   1.503   1.964 -0.8063  0.4212 -0.5488
14084TIP3   OH263666   3.250   5.250  14.068  0.1369  0.3218 -0.0247
14084TIP3    H163667   3.210   5.173  14.108  0.1029  0.3237 -0.0544
14084TIP3    H263668   3.214   5.324  14.116  0.9844  0.2691  0.7179
14085TIP3   OH263669   4.948   3.693   3.698 -0.3376  0.3592  0.0177
14085TIP3    H163670   5.024   3.679   3.642  0.5761  1.8497  0.8172
14085TIP3    H263671   4.969   3.773   3.748 -1.7863 -0.0231  1.3227
14086TIP3   OH263672   6.353   5.246   4.380  0.2063 -0.1218 -0.5222
14086TIP3    H163673   6.379   5.205   4.462  0.6448 -0.0188 -0.6090
14086TIP3    H263674   6.348   5.173   4.318 -1.4932 -0.4159 -0.0933
14087TIP3   OH263675   0.031   5.446   1.361 -0.1531  0.2158 -0.4314
14087TIP3    H163676   0.009   5.400   1.280 -1.2502 -0.2668  0.1142
14087TIP3    H263677  -0.024   5.524   1.360 -1.0388 -0.3599  0.3468
14088TIP3   OH263678   4.749   2.290  16.680  0.3090 -0.2771 -0.3880
14088TIP3    H163679   4.657   2.292  16.652  0.4697 -0.7855 -0.9734
14088TIP3    H263680   4.790   2.225  16.623  1.1075  0.1746 -0.3376
14089TIP3   OH263681   4.869   0.539   5.330 -0.6709  0.5567  0.1571
14089TIP3    H163682   4.939   0.520   5.392 -0.6166 -1.5410 -0.4772
14089TIP3    H263683   4.900   0.504   5.246 -1.4872  1.7492 -0.6793
14090TIP3   OH263684   6.129   3.947   6.616 -0.4730 -0.1070  0.3001
14090TIP3    H163685   6.216   3.970   6.583 -0.4854  0.0252  0.3591
14090TIP3    H263686   6.076   3.931   6.537 -0.5473  0.3716  0.2518
14091TIP3   OH263687   4.019   2.379  10.460  0.2413 -0.3442 -0.5075
14091TIP3    H163688   4.080   2.445  10.428 -0.7702  0.8393 -0.0631
14091TIP3    H263689   4.069   2.297  10.458  1.2394  0.2616 -1.9046
14092TIP3   OH263690   0.554   5.945   3.548  0.1636  0.3043 -0.0508
14092TIP3    H163691   0.585   6.033   3.526 -1.8460  1.1498  0.3155
14092TIP3    H263692   0.617   5.913   3.613  2.8143  0.0916 -2.5461
14093TIP3   OH263693   5.246   6.082   2.857 -0.0572 -0.2407  0.1131
14093TIP3    H163694   5.263   6.159   2.804  0.8476  0.1730  0.9763
14093TIP3    H263695   5.291   6.011   2.812  0.5140  0.0653  0.1932
14094TIP3   OH263696   4.013   6.447  13.751 -0.1096 -0.1118 -0.0512
14094TIP3    H163697   3.982   6.436  13.841  0.2654  2.3261  0.4250
14094TIP3    H263698   3.957   6.514  13.714  1.1719  0.5294 -0.8947
14095TIP3   OH263699   2.158   3.257  16.243 -0.2881 -0.3947 -0.5188
14095TIP3    H163700   2.078   3.209  16.224 -0.1524 -0.9132  0.1741
14095TIP3    H263701   2.129   3.344  16.272 -0.7277 -1.1843  1.6066
14096TIP3   OH263702   4.485   5.292  17.125  0.0521  0.5114 -0.0336
14096TIP3    H163703   4.479   5.292  17.030  2.6086  3.3636 -0.3559
14096TIP3    H263704   4.504   5.201  17.149 -1.1527 -0.3510 -2.1309
14097TIP3   OH263705   1.007   1.466   2.153 -0.5789 -0.0336  0.4221
14097TIP3    H163706   0.960   1.447   2.072 -0.2556 -2.0789  0.6527
14097TIP3    H263707   1.099   1.461   2.129 -0.4808 -0.4954  0.8633
14098TIP3   OH263708   2.142   1.051   4.413  0.3440 -0.1479  0.2673
14098TIP3    H163709   2.132   1.095   4.497 -0.5461 -0.3759  0.2969
14098TIP3    H263710   2.226   1.006   4.419  0.3179 -0.1097  1.0194
14099TIP3   OH263711   1.242   0.999  15.260 -0.4621  0.5009  0.2849
14099TIP3    H163712   1.258   0.906  15.278  1.1834  0.5613 -0.7461
14099TIP3    H263713   1.295   1.045  15.324 -0.7715  0.7423  0.3702
14100TIP3   OH263714   1.554   6.493  11.280 -0.0065 -0.3580 -0.4364
14100TIP3    H163715   1.627   6.512  11.338 -1.9421  2.0734  1.4300
14100TIP3    H263716   1.480   6.479  11.338 -0.8107 -5.0359 -2.1094
14101TIP3   OH263717   5.893   3.072   0.849 -0.1906  0.0408 -0.0630
14101TIP3    H163718   5.815   3.074   0.905  0.4211  0.0282  0.8159
14101TIP3    H263719   5.921   2.981   0.851 -0.6074 -0.1167 -1.0395
14102TIP3   OH263720   2.918   3.522  12.956 -0.9704  0.2881  0.0532
14102TIP3    H163721   2.884   3.608  12.982 -0.8814 -0.3524  2.5713
14102TIP3    H263722   2.963   3.490  13.034  1.0015 -1.0923 -1.5517
14103TIP3   OH263723   6.466   2.934   5.563  0.0106  0.9804 -0.0189
14103TIP3    H163724   6.537   2.901   5.618 -0.2793  1.0231  0.3836
14103TIP3    H263725   6.489   2.906   5.474 -0.3951 -0.5772  0.3478
14104TIP3   OH263726   1.830   5.993   1.028  0.6546 -0.2388  0.2335
14104TIP3    H163727   1.791   5.910   1.000  1.3688 -0.0224 -1.5781
14104TIP3    H263728   1.786   6.059   0.974  3.2619  0.0279 -1.7317
14105TIP3   OH263729   1.328   0.820   5.799 -0.0254 -0.1993 -0.1406
14105TIP3    H163730   1.366   0.828   5.712  0.0003  0.7060 -0.0628
14105TIP3    H263731   1.247   0.871   5.794 -0.3635 -0.6959  0.1774
14106TIP3   OH263732   3.315   1.398  14.269  0.0398 -0.1770 -0.4604
14106TIP3    H163733   3.225   1.377  14.293 -0.1644 -1.4165 -2.1340
14106TIP3    H263734   3.311   1.489  14.239 -0.7239 -0.3174 -0.8079
14107TIP3   OH263735   5.261   5.156  17.154  0.0819  0.0110 -0.5636
14107TIP3    H163736   5.292   5.168  17.244  0.2806  0.4846 -0.6958
14107TIP3    H263737   5.338   5.170  17.099 -0.1845  0.4054 -0.8441
14108TIP3   OH263738   6.243   4.520  12.255 -0.2130  0.0284 -0.4213
14108TIP3    H163739   6.280   4.606  12.233  1.3060 -0.7883 -1.2581
14108TIP3    H263740   6.252   4.513  12.350  1.3129  0.1110 -0.5300
14109TIP3   OH263741   3.371   5.640   5.594 -0.0420  0.2266  0.1483
14109TIP3    H163742   3.346   5.709   5.656  0.1070 -0.1792  0.6671
14109TIP3    H263743   3.413   5.574   5.648 -1.3053 -0.8588 -0.1445
14110TIP3   OH263744   4.372   4.256   2.236  0.3295 -0.1663 -0.2171
14110TIP3    H163745   4.362   4.273   2.142  0.0537  1.1469  0.0250
14110TIP3    H263746   4.284   4.232   2.265 -0.0990  1.6020  0.0816
14111TIP3   OH263747   2.892   5.855  15.099 -0.3993  0.7159  0.7061
14111TIP3    H163748   2.918   5.769  15.132  0.7949  0.8994  0.3003
14111TIP3    H263749   2.926   5.858  15.009  1.6929  2.4542  1.4473
14112TIP3   OH263750   4.563   4.382   3.825 -0.0385  0.0017  0.2354
14112TIP3    H163751   4.570   4.290   3.849 -1.0311 -0.1997 -0.2223
14112TIP3    H263752   4.637   4.397   3.766  0.2409 -0.4491  0.4701
14113TIP3   OH263753   6.337   4.508  12.520  0.1764 -0.0498  0.0897
14113TIP3    H163754   6.419   4.461  12.501  0.4240 -0.0276  1.0210
14113TIP3    H263755   6.363   4.574  12.585 -0.7031 -0.4786  0.8920
14114TIP3   OH263756   3.918   2.669  16.085 -0.7510 -0.1293  0.0457
14114TIP3    H163757   3.978   2.607  16.126 -1.2494 -0.7210 -0.1090
14114TIP3    H263758   3.841   2.670  16.141 -1.1074 -0.3279 -0.4399
14115TIP3   OH263759   1.319   3.430   0.462 -0.0262  0.4778  0.1769
14115TIP3    H163760   1.243   3.405   0.514  1.4489  0.5782  2.5250
14115TIP3    H263761   1.317   3.526   0.461 -0.1036  0.4752 -0.0624
14116TIP3   OH263762   4.775   3.903   5.086 -0.8339 -0.1784  0.0004
14116TIP3    H163763   4.858   3.926   5.129  0.3936 -0.2988 -2.1684
14116TIP3    H263764   4.719   3.873   5.157  0.9816 -0.1204  1.5401
14117TIP3   OH263765   5.055   2.194   2.168 -0.0115 -1.0051  0.7885
14117TIP3    H163766   5.013   2.265   2.218  0.3746 -0.1567 -0.0639
14117TIP3    H263767   5.135   2.234   2.134 -1.0980 -0.9893 -1.9773
14118TIP3   OH263768   4.503   5.595  11.766 -0.3694 -0.3594 -0.3885
14118TIP3    H163769   4.497   5.673  11.821  0.0589 -0.8945  0.4375
14118TIP3    H263770   4.575   5.614  11.705  0.1709 -0.3513  0.2352
14119TIP3   OH263771   1.128   6.129   3.852 -0.3720 -0.0939  0.6775
14119TIP3    H163772   1.187   6.198   3.885  1.0560 -0.8263 -0.2726
14119TIP3    H263773   1.041   6.170   3.855  0.3845  1.6499  0.4490
14120TIP3   OH263774   0.387   1.539   0.457 -0.3144  0.6905 -0.0754
14120TIP3    H163775   0.433   1.521   0.539 -2.1794 -0.7009  0.7449
14120TIP3    H263776   0.443   1.500   0.389 -0.2396 -0.9516  0.8812
14121TIP3   OH263777   2.732   6.462  11.105  0.3922 -0.1648 -0.1418
14121TIP3    H163778   2.757   6.550  11.079 -0.6249 -0.2862 -1.6454
14121TIP3    H263779   2.792   6.405  11.056 -0.2700 -0.3538 -0.7357
14122TIP3   OH263780   4.470   2.805   1.266  0.4348  0.3883  0.5932
14122TIP3    H163781   4.476   2.889   1.220 -2.2429  0.2426 -0.1828
14122TIP3    H263782   4.486   2.826   1.358 -0.9915  1.9139  0.5194
14123TIP3   OH263783   0.666   1.410  14.684  0.0454  0.2081 -0.0481
14123TIP3    H163784   0.674   1.492  14.636  0.2722  0.3359  0.2020
14123TIP3    H263785   0.664   1.343  14.616 -1.6926  0.5080 -0.3270
14124TIP3   OH263786   2.895   5.344  14.352  0.3231 -0.5973  0.0959
14124TIP3    H163787   2.857   5.423  14.390  0.1988 -0.0269 -1.1762
14124TIP3    H263788   2.850   5.272  14.397 -1.9615  0.0559 -1.0197
14125TIP3   OH263789   6.728   4.489   3.941 -0.1914  0.4448 -0.1236
14125TIP3    H163790   6.789   4.433   3.990 -0.0512  0.2724 -0.4942
14125TIP3    H263791   6.729   4.572   3.989 -0.1038  0.2573  0.2055
14126TIP3   OH263792   5.975   2.956   3.591 -0.0034  0.7304  0.2435
14126TIP3    H163793   5.900   2.967   3.533 -1.1610  2.4770  1.9154
14126TIP3    H263794   5.937   2.923   3.673  1.1613  0.9535  0.8992
14127TIP3   OH263795   1.967   4.973  12.697 -0.3611  0.2233  0.0147
14127TIP3    H163796   1.985   4.991  12.604  0.7803 -0.2159  0.1347
14127TIP3    H263797   1.969   5.060  12.738  2.8460  0.1552  0.2135
14128TIP3   OH263798   1.928   2.545  11.455 -0.1575  0.3759 -0.4927
14128TIP3    H163799   1.948   2.512  11.367 -1.0374  1.4439 -1.1181
14128TIP3    H263800   1.947   2.471  11.512 -1.4193 -1.0435 -1.7780
14129TIP3   OH263801   4.216   2.220   0.659  0.4526 -0.0313  0.0908
14129TIP3    H163802   4.203   2.315   0.666 -0.9537 -0.2536  0.7927
14129TIP3    H263803   4.133   2.187   0.628 -0.0130 -1.3098  2.4895
14130TIP3   OH263804   1.185   1.164   3.773  0.1036  0.0226 -0.3164
14130TIP3    H163805   1.143   1.116   3.701  1.7244 -0.5315 -0.9616
14130TIP3    H263806   1.127   1.151   3.848 -0.0123 -2.1881 -0.7098
14131TIP3   OH263807   2.498   1.419  14.537 -0.0662 -0.4082  0.2864
14131TIP3    H163808   2.476   1.344  14.593  1.4422 -1.5951 -0.6169
14131TIP3    H263809   2.589   1.405  14.514 -0.0145  1.2589 -0.6556
14132TIP3   OH263810   5.241   5.897  12.649  0.3957 -0.0560 -0.0633
14132TIP3    H163811   5.330   5.913  12.681  1.2116 -1.3578 -1.5877
14132TIP3    H263812   5.222   5.973  12.594  0.7461  0.0021 -0.1108
14133TIP3   OH263813   5.217   2.259   4.218 -0.2842 -0.0776 -0.4911
14133TIP3    H163814   5.168   2.233   4.296  1.1019  1.1172  0.8416
14133TIP3    H263815   5.151   2.268   4.150 -1.7107  0.0282  0.8571
14134TIP3   OH263816   1.694   0.178   4.412 -0.1292  0.0734 -0.3083
14134TIP3    H163817   1.784   0.208   4.427 -0.5415  0.0070  3.2453
14134TIP3    H263818   1.701   0.084   4.399  0.4045  0.3030 -1.8590
14135TIP3   OH263819   2.716   2.244  13.723 -0.0569  0.2013  0.6341
14135TIP3    H163820   2.796   2.273  13.767  0.5283  2.3460 -1.6169
14135TIP3    H263821   2.727   2.150  13.712  0.5255 -0.1192  3.4131
14136TIP3   OH263822   5.208   1.929  16.711  0.3150 -0.3680 -0.7005
14136TIP3    H163823   5.183   1.886  16.793 -0.0273 -0.0276 -0.6245
14136TIP3    H263824   5.214   2.022  16.734 -1.1932 -0.0735 -1.3904
14137TIP3   OH263825   2.230   4.052  14.597  0.1717 -0.3617 -0.7046
14137TIP3    H163826   2.189   4.097  14.524 -0.9579  1.5853  1.0176
14137TIP3    H263827   2.212   3.959  14.581 -1.0133  0.0968 -2.3099
14138TIP3   OH263828   2.775   3.420   2.778 -0.2446  0.0002 -0.0971
14138TIP3    H163829   2.790   3.512   2.800 -1.9697 -0.1816  2.1793
14138TIP3    H263830   2.753   3.379   2.861 -0.2429 -2.3359 -1.1881
14139TIP3   OH263831   2.331   3.889   2.484 -0.0665 -0.4240  0.5236
14139TIP3    H163832   2.346   3.978   2.451  3.1839 -0.4937  1.4428
14139TIP3    H263833   2.316   3.837   2.406  2.5770  0.2331 -0.5406
14140TIP3   OH263834   4.779   4.903  14.591  0.6352  0.2547  0.4660
14140TIP3    H163835   4.822   4.818  14.599  1.8605  0.8726  0.8164
14140TIP3    H263836   4.852   4.965  14.584 -0.2414  1.1746 -0.8922
14141TIP3   OH263837   0.700   3.142  15.532 -0.9031  0.0800  0.3309
14141TIP3    H163838   0.694   3.051  15.501  0.0121  0.6820 -1.7542
14141TIP3    H263839   0.649   3.193  15.469 -1.7319  1.0114  1.6980
14142TIP3   OH263840   1.725   3.158  11.146  0.4560 -0.0209 -0.6218
14142TIP3    H163841   1.787   3.154  11.074  1.3474  0.7563  0.0719
14142TIP3    H263842   1.766   3.108  11.216 -0.1815 -0.3704 -0.4861
14143TIP3   OH263843   5.908   3.580   1.880 -0.1066 -0.2779  0.4493
14143TIP3    H163844   5.825   3.628   1.880  0.0006 -0.0578  1.7202
14143TIP3    H263845   5.945   3.596   1.793 -1.0539  0.2150  0.1256
14144TIP3   OH263846   1.341   1.395   0.410  0.2659  0.2957 -0.4058
14144TIP3    H163847   1.418   1.429   0.455 -0.2682  0.9907 -0.0018
14144TIP3    H263848   1.351   1.424   0.320 -0.0978  1.3763 -0.1019
14145TIP3   OH263849   6.632   1.638   3.079  0.0535  0.0034 -0.4518
14145TIP3    H163850   6.592   1.625   3.165 -1.4062  0.1663 -1.0702
14145TIP3    H263851   6.615   1.557   3.032  2.3769 -0.7776 -0.0582
14146TIP3   OH263852   5.641   1.275  14.100  0.3538 -0.0718  0.0528
14146TIP3    H163853   5.611   1.338  14.035 -0.9088 -0.0981  0.5926
14146TIP3    H263854   5.702   1.324  14.155  1.1450  0.0487 -0.8940
14147TIP3   OH263855   4.665   0.725   2.655 -0.3433 -0.4620  0.6694
14147TIP3    H163856   4.627   0.644   2.623 -0.2673 -0.0433 -0.5374
14147TIP3    H263857   4.591   0.786   2.662 -0.2264 -0.2935  0.4467
14148TIP3   OH263858   5.185   2.951   6.407 -0.4501  0.1563 -0.2762
14148TIP3    H163859   5.250   3.005   6.452 -0.9100 -0.1716  0.8242
14148TIP3    H263860   5.108   2.954   6.465 -1.0173 -0.3785 -0.9921
14149TIP3   OH263861   1.374   5.445   3.866  0.0468 -0.4049  0.2352
14149TIP3    H163862   1.372   5.465   3.960 -1.6295  0.5312  0.0514
14149TIP3    H263863   1.466   5.449   3.842  0.4764 -0.4211  1.7936
14150TIP3   OH263864   3.316   6.778  14.487  0.7584  0.0610 -0.1319
14150TIP3    H163865   3.301   6.830  14.566  0.4038 -0.6546  0.2786
14150TIP3    H263866   3.229   6.767  14.448  0.6947 -1.0676  0.3241
14151TIP3   OH263867   5.794   4.604   3.969  0.3566  0.3258 -0.1752
14151TIP3    H163868   5.740   4.541   4.017 -0.5053  2.8469  2.4364
14151TIP3    H263869   5.769   4.590   3.877 -2.1883 -0.9704  0.5908
14152TIP3   OH263870   5.910   5.380   3.474  0.6594  0.3694  0.8711
14152TIP3    H163871   5.918   5.285   3.463 -2.3860 -0.0390  1.2322
14152TIP3    H263872   5.877   5.412   3.390  0.8087  0.9572  1.0318
14153TIP3   OH263873   5.079   6.758   3.582 -0.2406  0.4239  0.2660
14153TIP3    H163874   5.131   6.817   3.527 -0.4382  1.3376  1.0298
14153TIP3    H263875   5.091   6.671   3.543 -1.2181  1.1645 -1.8675
14154TIP3   OH263876   5.181   4.694   6.548  0.0191 -0.3642 -0.0010
14154TIP3    H163877   5.093   4.681   6.584 -0.0098  0.9133  0.4515
14154TIP3    H263878   5.174   4.776   6.499  1.2638  0.4336  1.1009
14155TIP3   OH263879   6.306   4.536   2.425  0.0033  0.4186  0.2058
14155TIP3    H163880   6.353   4.605   2.472 -1.7252  1.1266  0.9755
14155TIP3    H263881   6.318   4.559   2.333  1.0932  0.6006  0.3723
14156TIP3   OH263882   0.711   2.804   3.676 -0.0413 -1.1070 -0.2533
14156TIP3    H163883   0.766   2.875   3.643 -1.3284  0.6392  1.0809
14156TIP3    H263884   0.622   2.838   3.667 -0.6022 -1.7886  2.0792
14157TIP3   OH263885   4.158   5.813  11.383 -0.4733  0.6344 -0.0403
14157TIP3    H163886   4.079   5.759  11.383  0.3830 -0.6596 -0.7850
14157TIP3    H263887   4.125   5.903  11.382 -1.9532  0.1193 -0.8087
14158TIP3   OH263888   4.246   6.656  16.082  0.3652 -0.0293 -0.1914
14158TIP3    H163889   4.247   6.590  16.150  0.3092  0.5925  0.4225
14158TIP3    H263890   4.233   6.607  16.001  0.4090 -0.7695  0.2444
14159TIP3   OH263891   4.213   0.166  15.947 -0.2579 -0.1522 -0.1507
14159TIP3    H163892   4.168   0.141  15.866 -2.5751  0.3955  0.9004
14159TIP3    H263893   4.205   0.089  16.003  0.9309 -0.3571 -0.2343
14160TIP3   OH263894   4.642   1.579   5.656 -0.0572  0.3682  0.7634
14160TIP3    H163895   4.659   1.587   5.562 -3.0095  2.2064  0.2404
14160TIP3    H263896   4.679   1.658   5.694 -2.4798  1.7867  0.3913
14161TIP3   OH263897   3.155   0.623  14.198  1.0184 -0.1681  0.8042
14161TIP3    H163898   3.185   0.625  14.290 -0.4157 -0.0883  1.2873
14161TIP3    H263899   3.167   0.532  14.171  1.4779 -0.1871  1.0540
14162TIP3   OH263900   4.973   5.441  15.939  0.5747 -0.1656 -0.3493
14162TIP3    H163901   4.895   5.494  15.924  0.9576  0.4593 -0.1479
14162TIP3    H263902   4.939   5.357  15.968 -0.0071  0.3737  0.5640
14163TIP3   OH263903   2.217   0.745  16.144  0.3208 -0.0529  0.4523
14163TIP3    H163904   2.289   0.805  16.125 -0.7914  1.0719 -0.3684
14163TIP3    H263905   2.219   0.681  16.072  0.1488  0.3315  0.1008
14164TIP3   OH263906   2.921   1.032   0.027 -0.1381 -0.1251  0.0986
14164TIP3    H163907   2.981   1.079  -0.032  1.1342 -2.0906 -0.2683
14164TIP3    H263908   2.937   0.940   0.008 -0.1494 -0.8318  3.0933
14165TIP3   OH263909   4.688   2.577   0.971 -0.6558  0.4903 -0.2151
14165TIP3    H163910   4.657   2.643   1.033  0.0697 -0.6396  1.4153
14165TIP3    H263911   4.758   2.622   0.923  2.1117  0.1064  3.0828
14166TIP3   OH263912   0.956   0.766   1.751  0.1145 -0.0434  0.1245
14166TIP3    H163913   0.957   0.758   1.847 -0.4576  1.5183  0.2897
14166TIP3    H263914   1.007   0.691   1.721  0.6510 -0.3497  1.6724
14167TIP3   OH263915   0.328   3.737  13.004 -0.5593 -0.8410 -0.0181
14167TIP3    H163916   0.322   3.676  12.930 -2.3241 -0.3030 -0.3622
14167TIP3    H263917   0.338   3.823  12.964 -1.6776 -0.5274  0.3496
14168TIP3   OH263918   4.577   5.479  16.265  0.2864  0.0390 -0.3092
14168TIP3    H163919   4.552   5.493  16.356  0.9305 -1.1823  0.0813
14168TIP3    H263920   4.668   5.508  16.261  0.5881 -0.8915 -0.2945
14169TIP3   OH263921   5.074   4.740  16.096 -0.2882  0.5309  0.3337
14169TIP3    H163922   5.138   4.670  16.087  0.5628  1.5122 -2.7183
14169TIP3    H263923   5.126   4.817  16.118 -1.0847  0.4983  2.5878
14170TIP3   OH263924   5.752   2.673  12.575 -0.1878  0.3153  0.0633
14170TIP3    H163925   5.783   2.626  12.652  1.6657  0.6080 -0.4478
14170TIP3    H263926   5.790   2.625  12.501 -0.3397  1.1429 -0.5624
14171TIP3   OH263927   4.405   1.471  12.208  0.2627 -0.0207 -0.1488
14171TIP3    H163928   4.391   1.562  12.233  0.0333 -0.2495  0.5590
14171TIP3    H263929   4.320   1.440  12.178  0.7152  0.5122 -2.1248
14172TIP3   OH263930   1.682   6.601   6.397  0.5008  0.5653 -0.7661
14172TIP3    H163931   1.620   6.651   6.344  0.1002  1.0162  0.1083
14172TIP3    H263932   1.635   6.581   6.478  1.6645  1.4591  0.1854
14173TIP3   OH263933   0.468   0.625   4.018  0.4227  0.1684 -0.6573
14173TIP3    H163934   0.482   0.705   3.968  0.0666 -0.1613 -1.3032
14173TIP3    H263935   0.391   0.643   4.072  0.4685  0.3273 -0.6444
14174TIP3   OH263936   2.264   0.149  12.545 -0.0634 -0.5325 -0.6324
14174TIP3    H163937   2.347   0.136  12.591 -0.0925 -0.8598 -0.6739
14174TIP3    H263938   2.249   0.067  12.499 -0.6975 -0.6797 -0.1693
14175TIP3   OH263939   0.998   6.529   5.919  0.3657  0.5884  0.1973
14175TIP3    H163940   0.985   6.436   5.901  0.5290  0.6839 -0.4216
14175TIP3    H263941   1.046   6.530   6.002 -1.6899  0.1933  1.4583
14176TIP3   OH263942   1.221   1.107  16.256 -0.0132  0.0233  0.7143
14176TIP3    H163943   1.261   1.025  16.228 -0.0890  1.2743 -3.8910
14176TIP3    H263944   1.127   1.089  16.254 -0.0407  0.2214 -0.5416
14177TIP3   OH263945   1.054   2.768   3.904  0.4742  0.1526  0.1736
14177TIP3    H163946   1.092   2.692   3.948  0.4270  0.1359  0.1860
14177TIP3    H263947   0.968   2.778   3.944 -0.7526 -1.5727 -1.7718
14178TIP3   OH263948   2.021   2.001   1.847 -0.1506  0.2080  0.3409
14178TIP3    H163949   2.098   1.946   1.833  1.2267  2.0669  0.1468
14178TIP3    H263950   2.008   2.000   1.942  1.1170  1.0657  0.5592
14179TIP3   OH263951   2.846   6.555  12.126  0.4290  0.0422 -0.2750
14179TIP3    H163952   2.912   6.486  12.128  1.2131  0.7823  0.3233
14179TIP3    H263953   2.885   6.627  12.176 -1.7103 -0.3113  2.1717
14180TIP3   OH263954   0.540   4.584  13.216  0.1189 -0.5539  0.3198
14180TIP3    H163955   0.624   4.623  13.191  0.1075  1.2500  2.6331
14180TIP3    H263956   0.539   4.499  13.174  1.8259  0.5049 -2.0913
14181TIP3   OH263957   2.167   3.816  16.926  0.0786  0.1654  0.1976
14181TIP3    H163958   2.209   3.875  16.864  0.2692 -0.5939 -0.4061
14181TIP3    H263959   2.161   3.733  16.880 -1.5230  0.0877  0.5147
14182TIP3   OH263960   5.603   4.650   1.997 -0.2457 -0.2854  0.0601
14182TIP3    H163961   5.681   4.703   1.979 -0.6207 -0.2722 -1.6512
14182TIP3    H263962   5.603   4.583   1.929 -3.0219  1.1709 -1.5672
14183TIP3   OH263963   5.439   1.222  13.515  0.1534 -0.0003  0.1602
14183TIP3    H163964   5.414   1.216  13.423 -1.4177  2.0822  0.3670
14183TIP3    H263965   5.529   1.254  13.514  0.6955 -1.4977 -0.6293
14184TIP3   OH263966   3.490   3.072   2.459 -0.1544 -0.1158 -0.4878
14184TIP3    H163967   3.469   2.988   2.499 -2.0288 -0.5391 -2.1974
14184TIP3    H263968   3.584   3.083   2.474  0.1487 -2.5014 -0.2492
14185TIP3   OH263969   5.607   2.384   4.575 -0.0835  0.2642  0.2897
14185TIP3    H163970   5.520   2.353   4.553 -0.1410  0.8350 -0.3096
14185TIP3    H263971   5.606   2.393   4.670 -0.1136 -1.3935  0.4667
14186TIP3   OH263972   5.738   3.948  16.019 -0.2351 -0.0348 -0.3802
14186TIP3    H163973   5.763   3.966  16.110  0.8455 -1.6930 -0.3002
14186TIP3    H263974   5.818   3.914  15.978 -1.3957 -2.0327 -1.1517
14187TIP3   OH263975   0.943   4.253   5.653  0.0704  0.0410 -0.1561
14187TIP3    H163976   0.875   4.320   5.645 -0.6212 -0.8339 -2.4208
14187TIP3    H263977   0.959   4.246   5.747 -0.9664  2.2221  0.2510
14188TIP3   OH263978   2.852   3.465  15.996 -0.1231 -0.2293 -0.2940
14188TIP3    H163979   2.844   3.453  15.901  2.1493  0.1451 -0.5923
14188TIP3    H263980   2.845   3.559  16.009 -0.8868 -0.3198 -0.0229
14189TIP3   OH263981   1.433   2.542   5.670 -0.3574  0.5001  0.1955
14189TIP3    H163982   1.393   2.510   5.590 -0.8014  1.7844 -0.1203
14189TIP3    H263983   1.366   2.529   5.737  0.6660 -2.2839  0.7938
14190TIP3   OH263984   1.027   1.988  12.172 -0.4397  0.0830 -0.0601
14190TIP3    H163985   0.991   2.025  12.092 -0.6308 -0.8479 -0.4127
14190TIP3    H263986   0.956   1.936  12.209 -0.0009 -0.3957  0.1253
14191TIP3   OH263987   6.496   6.187   5.529  0.0395 -0.0170 -0.4852
14191TIP3    H163988   6.528   6.178   5.619  0.3409  0.9108 -0.4877
14191TIP3    H263989   6.424   6.251   5.536  0.2117  0.2290 -0.9310
14192TIP3   OH263990   3.800   3.883   3.307 -0.1244  0.1802 -0.5480
14192TIP3    H163991   3.739   3.859   3.377  2.1433 -1.7314  0.9167
14192TIP3    H263992   3.828   3.973   3.329  0.2747 -0.2615  0.8456
14193TIP3   OH263993   2.912   5.342  16.026  0.5579  0.3010 -0.2137
14193TIP3    H163994   2.895   5.375  15.938  0.8633  1.2510  0.0730
14193TIP3    H263995   2.907   5.247  16.018 -1.2943  0.4123 -0.8720
14194TIP3   OH263996   3.693   1.024   0.277  0.4521 -0.3990  0.6185
14194TIP3    H163997   3.739   1.073   0.345 -0.6673 -1.3436  2.1116
14194TIP3    H263998   3.641   1.090   0.231  3.1539  0.6806 -1.0746
14195TIP3   OH263999   4.179   3.613   3.653  0.2856  0.2495  0.0215
14195TIP3    H164000   4.168   3.708   3.664 -0.4242  0.2795 -0.8958
14195TIP3    H264001   4.273   3.599   3.667  0.5739  1.2315 -0.8065
14196TIP3   OH264002   1.138   1.836  15.736 -0.1194  0.2438  0.0491
14196TIP3    H164003   1.065   1.896  15.723 -0.5958 -0.3970 -0.2692
14196TIP3    H264004   1.200   1.857  15.667 -0.2319  0.4463  0.0112
14197TIP3   OH264005   4.056   4.715   0.626  0.6173  0.3315  0.1197
14197TIP3    H164006   3.988   4.752   0.683  0.8473  2.5622 -0.9205
14197TIP3    H264007   4.007   4.661   0.563 -0.0082  0.4944  0.4542
14198TIP3   OH264008   5.658   1.677   6.124  0.0107 -0.6354 -0.5120
14198TIP3    H164009   5.614   1.744   6.176  1.5164 -0.3823  0.5232
14198TIP3    H264010   5.730   1.724   6.081  0.7343 -1.4587 -0.2355
14199TIP3   OH264011   6.492   4.638   5.957  0.3778 -0.1521  0.7468
14199TIP3    H164012   6.398   4.629   5.965  0.3705 -0.0824  0.7377
14199TIP3    H264013   6.528   4.583   6.027  0.3550 -1.0264  0.0850
14200TIP3   OH264014   2.709   5.081   6.284 -0.4000 -0.1377  0.0357
14200TIP3    H164015   2.743   5.167   6.309  0.9378 -0.4199 -0.6869
14200TIP3    H264016   2.788   5.027   6.275 -1.1655 -1.2145 -0.3241
14201TIP3   OH264017   5.130   2.030  13.099  0.0283  0.8491 -0.3228
14201TIP3    H164018   5.078   2.040  13.019 -1.0826  0.3153  0.3155
14201TIP3    H264019   5.066   2.026  13.169  0.9599  0.6695  0.5412
14202TIP3   OH264020   5.426   6.641   0.940  0.1474 -0.1064 -0.4464
14202TIP3    H164021   5.420   6.560   0.990 -0.6766 -0.0511 -0.4363
14202TIP3    H264022   5.510   6.635   0.894  1.1863  0.0799  1.3218
14203TIP3   OH264023   2.841   3.447  14.488 -0.9508 -0.1203 -0.0503
14203TIP3    H164024   2.774   3.478  14.549 -1.7170 -0.4475 -0.7150
14203TIP3    H264025   2.801   3.373  14.444  0.2671 -1.0427  0.3372
14204TIP3   OH264026   0.371   6.163   3.630 -0.4500 -0.7887 -0.4009
14204TIP3    H164027   0.390   6.070   3.628 -0.5720 -0.8290 -2.8518
14204TIP3    H264028   0.418   6.196   3.707  0.4518 -2.6651 -0.0891
14205TIP3   OH264029   5.022   2.225   4.427 -1.2983 -0.4334  0.5910
14205TIP3    H164030   4.999   2.147   4.376 -1.5906 -0.2706  0.4686
14205TIP3    H264031   4.951   2.287   4.408 -1.3054 -0.3034  1.0424
14206TIP3   OH264032   1.625   3.648   0.597  0.4276  0.0587  0.2293
14206TIP3    H164033   1.586   3.562   0.588  1.4297 -0.2333 -1.7046
14206TIP3    H264034   1.702   3.633   0.653  1.1756 -0.5138 -0.9285
14207TIP3   OH264035   3.078   3.324  13.591  0.0255  0.0259 -0.3609
14207TIP3    H164036   3.031   3.346  13.672 -2.0533 -1.4777 -1.0870
14207TIP3    H264037   3.080   3.407  13.542  2.5144  1.3303  1.6668
14208TIP3   OH264038   4.776   3.055   0.282  0.2383  0.1910 -0.1629
14208TIP3    H164039   4.737   3.141   0.300 -0.0645  0.3112 -1.2927
14208TIP3    H264040   4.848   3.048   0.344  0.4249  1.3754 -0.2096
14209TIP3   OH264041   4.647   3.580  15.099 -0.0185 -0.1419  0.2704
14209TIP3    H164042   4.594   3.659  15.109 -0.7695 -0.2338 -2.1772
14209TIP3    H264043   4.737   3.610  15.109 -0.1806  1.4142 -1.9995
14210TIP3   OH264044   1.976   5.048  11.772 -0.1621 -0.0509 -0.1765
14210TIP3    H164045   1.942   5.124  11.820 -0.5372  0.5682 -1.3688
14210TIP3    H264046   1.904   5.024  11.712 -0.6067 -2.2403  1.1244
14211TIP3   OH264047   3.452   2.456   4.775  0.4137 -0.3672 -0.8534
14211TIP3    H164048   3.531   2.403   4.776  0.2028 -0.6975 -1.3365
14211TIP3    H264049   3.482   2.544   4.755  1.3245  0.6873  3.9838
14212TIP3   OH264050   5.509   6.170   3.268  0.1032  0.8575  0.7676
14212TIP3    H164051   5.419   6.190   3.243  0.1589  1.8870  1.3187
14212TIP3    H264052   5.542   6.114   3.198 -1.8080 -1.8863  1.8557
14213TIP3   OH264053   1.888   3.209   2.073  0.2153 -0.2597  0.2297
14213TIP3    H164054   1.877   3.158   1.992 -1.9423 -0.3802  0.5420
14213TIP3    H264055   1.908   3.143   2.139  1.1708 -0.2504 -0.0344
14214TIP3   OH264056   3.020   5.074  16.075  0.0029 -0.2578  0.2237
14214TIP3    H164057   3.114   5.077  16.062 -0.0126 -1.7857 -0.5295
14214TIP3    H264058   2.997   4.982  16.062 -1.7228  0.2323 -0.5232
14215TIP3   OH264059   0.118   0.889   5.810  0.4111  0.0452 -0.3121
14215TIP3    H164060   0.031   0.929   5.815  0.5487  0.4172 -0.8679
14215TIP3    H264061   0.177   0.963   5.795  1.0554  0.0594  1.8981
14216TIP3   OH264062   5.589   0.448  11.470 -0.5324  0.0775 -0.5087
14216TIP3    H164063   5.583   0.508  11.396 -1.0392 -1.3655 -1.6702
14216TIP3    H264064   5.500   0.443  11.505  0.1287  2.8360  2.0011
14217TIP3   OH264065   6.308   5.377  11.114 -0.0764 -0.0842  0.6207
14217TIP3    H164066   6.392   5.367  11.157  0.0325 -0.7366  0.2771
14217TIP3    H264067   6.260   5.440  11.168  0.4747 -0.0275  1.0493
14218TIP3   OH264068   3.167   4.245  16.573 -0.0698 -0.0242 -0.3209
14218TIP3    H164069   3.207   4.249  16.660  1.9667 -0.6538 -1.1511
14218TIP3    H264070   3.118   4.163  16.572  0.0613 -0.1130  0.1674
14219TIP3   OH264071   0.622   1.339  11.955  0.1767  0.8936 -0.0085
14219TIP3    H164072   0.652   1.425  11.925  1.0900  0.5895 -0.0118
14219TIP3    H264073   0.602   1.351  12.048  1.3301  0.8847  0.2687
14220TIP3   OH264074   3.432   2.109  12.223 -0.4177  0.6248 -0.3091
14220TIP3    H164075   3.462   2.025  12.190  1.5156  0.6487  1.2432
14220TIP3    H264076   3.352   2.127  12.173 -0.8835 -2.0917 -0.6756
14221TIP3   OH264077   4.117   5.457   1.917  0.2278 -0.0579  0.9285
14221TIP3    H164078   4.024   5.433   1.917  0.3150 -0.4299  1.4632
14221TIP3    H264079   4.130   5.500   2.002  0.5659 -0.0911  0.8936
14222TIP3   OH264080   5.654   5.512   4.955 -0.2165 -0.2795  0.4147
14222TIP3    H164081   5.586   5.552   4.901  0.4491  0.8097  0.3664
14222TIP3    H264082   5.714   5.583   4.975  1.3339 -1.3798 -0.1734
14223TIP3   OH264083   2.998   2.744   3.436 -0.4716 -0.6747  0.0320
14223TIP3    H164084   2.906   2.749   3.410 -0.5030 -0.6807  0.1425
14223TIP3    H264085   2.995   2.725   3.530 -0.3771  1.1236  0.4354
14224TIP3   OH264086   1.843   0.638  10.872 -0.3183  0.4559 -0.5842
14224TIP3    H164087   1.875   0.550  10.890  0.6140  0.8723 -0.1457
14224TIP3    H264088   1.780   0.627  10.800  0.2086 -0.4894 -0.9078
14225TIP3   OH264089   6.156   0.760  14.436  0.2120 -0.2326 -0.0051
14225TIP3    H164090   6.167   0.855  14.424  2.1352 -0.3358  0.5925
14225TIP3    H264091   6.064   0.744  14.415  0.1265  1.5773 -1.2919
14226TIP3   OH264092   2.822   1.070  16.715  0.1102 -0.6054  0.1154
14226TIP3    H164093   2.748   1.040  16.662 -0.3277  0.0497  0.3390
14226TIP3    H264094   2.792   1.152  16.754  1.6256  0.6520 -1.2492
14227TIP3   OH264095   4.783   1.064  13.979 -0.1419  0.0195  0.3140
14227TIP3    H164096   4.815   1.057  13.889 -1.4060 -0.2048 -0.1363
14227TIP3    H264097   4.851   1.113  14.025  1.0087 -0.7539 -0.5082
14228TIP3   OH264098   3.359   5.980   4.952 -0.4179  0.1869  0.5789
14228TIP3    H164099   3.381   5.989   5.045  0.6008  1.1353  0.2695
14228TIP3    H264100   3.401   5.899   4.925  2.1141  1.5279  0.2072
14229TIP3   OH264101   0.612   1.279  13.809 -0.3811  0.3086  0.2912
14229TIP3    H164102   0.683   1.334  13.774 -0.5767 -0.2560 -1.0707
14229TIP3    H264103   0.532   1.321  13.777 -0.6716  0.7536  1.5386
14230TIP3   OH264104   3.734   5.176  12.951  0.1314 -0.2550  0.1886
14230TIP3    H164105   3.680   5.126  12.890 -0.2370  0.1523  0.1729
14230TIP3    H264106   3.717   5.136  13.036  0.6716 -0.8457  0.0310
14231TIP3   OH264107   6.488   1.477   5.789 -0.3052 -0.2708  0.1842
14231TIP3    H164108   6.452   1.505   5.873  0.2696 -1.4761  0.8576
14231TIP3    H264109   6.444   1.394   5.771 -1.8049  0.8599 -1.6432
14232TIP3   OH264110   5.310   6.436   1.364  0.7360 -0.3851  0.3547
14232TIP3    H164111   5.334   6.524   1.337 -0.5928 -0.4318 -1.0780
14232TIP3    H264112   5.237   6.448   1.424 -0.4004 -0.5340 -0.9529
14233TIP3   OH264113   0.588   0.078   5.522  0.0039  0.4694 -0.5778
14233TIP3    H164114   0.621  -0.006   5.489 -1.6189  0.0729 -1.2853
14233TIP3    H264115   0.495   0.076   5.502  0.0340  2.7175 -1.1769
14234TIP3   OH264116   2.694   5.134   5.319  0.8758  0.1443  0.4155
14234TIP3    H164117   2.698   5.162   5.410 -0.4537  1.5157  0.0922
14234TIP3    H264118   2.731   5.207   5.270 -1.3155  0.8154 -0.3457
14235TIP3   OH264119   1.428   2.807   5.915  0.0159  0.4305  0.3711
14235TIP3    H164120   1.489   2.856   5.860  0.6196  0.4526  1.0422
14235TIP3    H264121   1.407   2.729   5.863  1.0231  0.1660  0.3375
14236TIP3   OH264122   0.456   6.257   5.175  0.4739  0.2588 -0.1371
14236TIP3    H164123   0.508   6.338   5.174  1.1853 -0.1876  0.4364
14236TIP3    H264124   0.514   6.192   5.214 -0.2241 -0.4495 -0.2770
14237TIP3   OH264125   4.684   5.903  12.532 -0.2284  0.4200  0.3464
14237TIP3    H164126   4.765   5.888  12.483  0.9245 -0.7068  2.4431
14237TIP3    H264127   4.617   5.914  12.465  1.6558  1.4967 -1.4761
14238TIP3   OH264128   4.402   5.268  10.977 -0.0741  0.0847  0.2477
14238TIP3    H164129   4.386   5.195  11.036  0.4442 -0.4388 -0.2414
14238TIP3    H264130   4.443   5.335  11.032  3.7769 -1.7144 -0.1091
14239TIP3   OH264131   5.949   2.782  15.890  0.2968 -0.1563  0.0317
14239TIP3    H164132   5.912   2.734  15.816 -0.5946  0.5326  0.0134
14239TIP3    H264133   5.940   2.722  15.964  0.0877 -0.3948 -0.1850
14240TIP3   OH264134   5.680   4.872  15.852  0.2141  0.3730  0.1795
14240TIP3    H164135   5.774   4.852  15.847  0.0485 -0.8986  1.5529
14240TIP3    H264136   5.643   4.801  15.905 -1.5915  0.6748 -0.6087
14241TIP3   OH264137   5.012   0.109   2.121 -0.0531 -0.1657 -0.6174
14241TIP3    H164138   4.925   0.070   2.121 -0.5916  0.9498  0.5810
14241TIP3    H264139   5.065   0.052   2.178 -1.2237  1.5070  2.3867
14242TIP3   OH264140   3.258   5.296   6.662 -0.0121 -0.0594  0.6541
14242TIP3    H164141   3.165   5.272   6.660  0.0922 -0.4282 -0.6321
14242TIP3    H264142   3.303   5.216   6.635  0.7600 -0.1577  2.1368
14243TIP3   OH264143   4.235   2.066   4.976  0.3040 -0.3074  0.2300
14243TIP3    H164144   4.204   2.022   5.056  1.4910  0.7526  1.3052
14243TIP3    H264145   4.218   2.002   4.907 -1.3137 -1.0222  1.2093
14244TIP3   OH264146   2.554   4.861   6.146  0.0731 -0.2978  0.4778
14244TIP3    H164147   2.592   4.940   6.183 -1.1709  0.9842 -0.8210
14244TIP3    H264148   2.628   4.813   6.108  0.7674  0.5842  0.6910
14245TIP3   OH264149   4.272   5.317  10.749  0.2244  0.4213  0.1310
14245TIP3    H164150   4.185   5.344  10.778 -0.7373 -0.5297 -1.7245
14245TIP3    H264151   4.318   5.292  10.830 -1.8838 -0.9720  0.9600
14246TIP3   OH264152   4.123   0.510  11.053  0.3721 -0.3121 -0.2398
14246TIP3    H164153   4.094   0.571  10.986  2.2358 -0.5632 -1.3714
14246TIP3    H264154   4.066   0.434  11.043  0.8490 -0.4992 -1.8511
14247TIP3   OH264155   3.689   3.709   5.592 -0.0529  0.1788  0.5647
14247TIP3    H164156   3.683   3.667   5.507  0.2381 -1.4717  1.3261
14247TIP3    H264157   3.686   3.803   5.573  1.1565 -0.1278 -1.3470
14248TIP3   OH264158   2.496   4.688   1.387  0.0174  0.4476  0.1761
14248TIP3    H164159   2.587   4.680   1.360  0.2018  1.2024  0.5460
14248TIP3    H264160   2.496   4.667   1.480 -0.6917 -2.6195 -0.4317
14249TIP3   OH264161   5.955   2.298  15.922 -0.1594  0.3826 -0.2842
14249TIP3    H164162   5.947   2.341  15.838  1.9047 -1.6306 -1.6519
14249TIP3    H264163   5.945   2.205  15.902 -1.1580 -0.0674  1.9838
14250TIP3   OH264164   6.506   4.691   3.875 -0.0678 -0.7492 -0.1678
14250TIP3    H164165   6.596   4.660   3.885  0.6785  1.0292 -0.9074
14250TIP3    H264166   6.468   4.684   3.963  1.4095  0.2189  0.5918
14251TIP3   OH264167   1.871   2.602   4.695 -0.4181  0.3145  0.5811
14251TIP3    H164168   1.964   2.623   4.684 -0.1601 -0.7332  0.6734
14251TIP3    H264169   1.857   2.525   4.640 -1.7322  1.6278 -1.0552
14252TIP3   OH264170   5.990   4.064  13.683 -0.3338 -0.0007  0.8155
14252TIP3    H164171   6.022   4.116  13.757 -2.0612  2.2166  0.1211
14252TIP3    H264172   5.949   3.988  13.724  0.2059  0.3304  2.0350
14253TIP3   OH264173   2.619   0.615   2.037  0.3822 -0.0045  0.1143
14253TIP3    H164174   2.696   0.565   2.065  0.3996 -0.3919 -0.6039
14253TIP3    H264175   2.606   0.590   1.946 -0.6383  0.0047  0.2464
14254TIP3   OH264176   5.688   0.870  14.755 -0.4135  0.3328 -0.2334
14254TIP3    H164177   5.599   0.848  14.781 -0.4005  1.4391  0.8603
14254TIP3    H264178   5.681   0.893  14.662 -2.0483  3.9578  0.6121
14255TIP3   OH264179   4.685   0.917  16.897 -0.7537  0.8241  0.5238
14255TIP3    H164180   4.607   0.951  16.853 -0.2780  0.5653 -0.5364
14255TIP3    H264181   4.756   0.933  16.836  0.0096  0.8982  1.4070
14256TIP3   OH264182   1.118   5.689  11.705 -0.0482  0.6850  0.8421
14256TIP3    H164183   1.090   5.657  11.790  0.2385  0.4176  0.8383
14256TIP3    H264184   1.041   5.733  11.669 -0.7716 -0.8366  0.4249
14257TIP3   OH264185   2.701   5.229  13.004  0.0711 -0.0193  0.1174
14257TIP3    H164186   2.618   5.199  12.967  0.6871 -2.0382  0.2562
14257TIP3    H264187   2.741   5.281  12.934 -1.1403  0.7219 -0.0556
14258TIP3   OH264188   1.445   5.484  13.352 -0.0987  0.9828 -0.0821
14258TIP3    H164189   1.430   5.541  13.277  1.5445  1.7864  0.1550
14258TIP3    H264190   1.503   5.534  13.409  1.1049 -0.7836  0.3191
14259TIP3   OH264191   1.042   2.607   1.038 -0.4391  0.2777 -0.1422
14259TIP3    H164192   1.080   2.692   1.058 -0.1516 -0.0077  0.5471
14259TIP3    H264193   1.066   2.551   1.112  0.1261 -0.6416 -0.9872
14260TIP3   OH264194   3.507   1.610  12.842  0.6138 -0.3954 -0.2419
14260TIP3    H164195   3.543   1.690  12.804 -0.0793  0.2783  0.4984
14260TIP3    H264196   3.581   1.572  12.889  0.4599  0.8768  1.0945
14261TIP3   OH264197   2.202   3.318  11.015 -0.5847 -0.8484  0.7098
14261TIP3    H164198   2.283   3.317  10.964  0.8130  0.3395  2.7477
14261TIP3    H264199   2.132   3.308  10.950  1.1558 -1.6610 -1.1470
14262TIP3   OH264200   1.446   2.520   6.584 -0.8084 -0.5714 -0.4724
14262TIP3    H164201   1.514   2.557   6.528 -1.5299 -2.8443 -3.0752
14262TIP3    H264202   1.364   2.556   6.550 -1.3308 -2.6337 -1.6291
14263TIP3   OH264203   5.425   0.132  10.577  0.2752 -0.4112  0.2574
14263TIP3    H164204   5.341   0.164  10.543 -0.1662 -0.3077  1.3939
14263TIP3    H264205   5.478   0.211  10.586  0.9064 -0.5962 -1.4830
14264TIP3   OH264206   5.622   3.492   2.402  0.3334 -0.0576  0.0708
14264TIP3    H164207   5.582   3.576   2.426  0.8026  0.1368  0.1873
14264TIP3    H264208   5.618   3.440   2.482 -0.8649 -0.5161 -0.2714
14265TIP3   OH264209   6.343   5.006  12.501  0.5038  0.0440  0.2973
14265TIP3    H164210   6.418   5.033  12.448  1.0665 -0.6461  0.7211
14265TIP3    H264211   6.321   4.919  12.468 -1.0503  0.8009 -0.8019
14266TIP3   OH264212   0.495   0.411   5.272  0.0243 -0.2482 -0.8456
14266TIP3    H164213   0.402   0.430   5.284  0.0163 -0.5453 -0.3870
14266TIP3    H264214   0.526   0.479   5.213 -0.5555 -0.3430 -1.2675
14267TIP3   OH264215   4.160   4.721   5.719  0.0955  0.0163 -0.1319
14267TIP3    H164216   4.070   4.724   5.685  0.2464  0.7682 -0.4916
14267TIP3    H264217   4.200   4.647   5.673 -0.6848 -1.1104  0.9511
14268TIP3   OH264218   0.296   6.652  15.343 -0.1543 -0.2976  0.1185
14268TIP3    H164219   0.326   6.595  15.272 -1.5281  0.2719 -0.9652
14268TIP3    H264220   0.205   6.624  15.359  0.0697 -0.2905  1.5357
14269TIP3   OH264221   5.956   0.391  13.053 -0.2486  0.8157  0.3110
14269TIP3    H164222   5.864   0.405  13.031 -0.7896 -0.0061  1.8754
14269TIP3    H264223   5.969   0.297  13.039  0.2955  0.8963  0.2693
14270TIP3   OH264224   0.311   1.573  14.311  0.4787  0.0687 -0.2614
14270TIP3    H164225   0.387   1.518  14.327  1.3706  1.6475  1.2331
14270TIP3    H264226   0.317   1.597  14.219  0.8259 -1.1866 -0.5784
14271TIP3   OH264227   2.382   4.795  12.052  0.4329  0.5211  0.2094
14271TIP3    H164228   2.298   4.795  12.007  0.3465 -0.6329  0.3274
14271TIP3    H264229   2.444   4.828  11.987  0.2313 -0.6927 -0.6340
14272TIP3   OH264230   2.658   6.789   2.757 -0.3304 -0.2064  0.1732
14272TIP3    H164231   2.713   6.737   2.699  0.3769 -1.4630  1.8708
14272TIP3    H264232   2.602   6.724   2.800 -0.9982  0.7125  0.7076
14273TIP3   OH264233   4.622   1.455  14.564 -0.5163  0.1759  0.6445
14273TIP3    H164234   4.672   1.375  14.550 -1.1448 -0.1501  0.2029
14273TIP3    H264235   4.645   1.483  14.653 -0.6866 -0.7867  0.9976
14274TIP3   OH264236   5.593   3.321   4.659 -0.1907 -0.2248 -0.1645
14274TIP3    H164237   5.521   3.382   4.676 -0.4326 -0.7031  0.5749
14274TIP3    H264238   5.575   3.246   4.717  0.6477 -0.5522 -0.3188
14275TIP3   OH264239   5.531   5.429   3.248 -0.2407  0.2745 -0.5151
14275TIP3    H164240   5.443   5.415   3.283 -0.3941 -2.5918 -1.7910
14275TIP3    H264241   5.523   5.409   3.155  1.7426 -0.0361 -0.6473
14276TIP3   OH264242   2.623   1.812  15.849  0.3207  0.4268 -0.2083
14276TIP3    H164243   2.677   1.758  15.791  1.0552  1.0831 -0.1527
14276TIP3    H264244   2.543   1.828  15.800  0.5708  0.2416 -0.6823
14277TIP3   OH264245   3.946   6.373  12.920 -0.1236 -0.2618  0.3209
14277TIP3    H164246   3.852   6.374  12.938 -0.1532  0.6226  0.1303
14277TIP3    H264247   3.982   6.444  12.972  0.1744  0.5922 -1.0093
14278TIP3   OH264248   6.555   0.189  15.358 -0.0213 -0.4397  0.4758
14278TIP3    H164249   6.483   0.184  15.295  0.5075  1.3445 -0.3524
14278TIP3    H264250   6.568   0.283  15.372  2.7480 -0.6311 -0.1505
14279TIP3   OH264251   0.718   1.312   1.599  0.3228  0.1423 -0.6551
14279TIP3    H164252   0.672   1.361   1.666  0.8441  0.5631 -0.6004
14279TIP3    H264253   0.675   1.226   1.598 -1.0749  0.8176 -1.2608
14280TIP3   OH264254   5.501   5.440  14.775  0.4670 -0.0917 -0.3239
14280TIP3    H164255   5.539   5.385  14.707 -1.1861 -0.8708 -0.6772
14280TIP3    H264256   5.406   5.435  14.760  0.2023  2.0564  0.2668
14281TIP3   OH264257   4.480   6.140  12.948 -0.1647 -0.6223 -0.2380
14281TIP3    H164258   4.569   6.112  12.927  1.5340  2.4482  2.1087
14281TIP3    H264259   4.449   6.183  12.868  0.3659 -1.7490 -1.0855
14282TIP3   OH264260   5.031   0.373   6.261  0.6693 -0.2989 -0.1309
14282TIP3    H164261   4.945   0.333   6.250  0.6819 -0.1549 -0.7649
14282TIP3    H264262   5.041   0.431   6.186 -0.0137  2.1177  1.5174
14283TIP3   OH264263   1.797   3.893   5.149  0.3569  0.0952  0.2189
14283TIP3    H164264   1.712   3.889   5.107  0.2864  0.0799  0.3600
14283TIP3    H264265   1.860   3.873   5.080  0.3553  1.5084 -0.2114
14284TIP3   OH264266   2.256   6.253   2.378 -0.7867  0.3132  0.0562
14284TIP3    H164267   2.312   6.199   2.323  1.1454  2.6038 -0.3995
14284TIP3    H264268   2.172   6.256   2.333 -0.9180 -2.0623  0.0246
14285TIP3   OH264269   0.325   3.020   5.422  0.2927  0.2491  0.1699
14285TIP3    H164270   0.287   3.091   5.473  0.4015  0.7920 -0.4946
14285TIP3    H264271   0.330   2.946   5.483 -2.0398  0.0769  0.2465
14286TIP3   OH264272   4.420   5.360   4.424 -0.2259  0.3966  0.2815
14286TIP3    H164273   4.501   5.353   4.374 -0.7648  1.2301 -0.7476
14286TIP3    H264274   4.351   5.335   4.363 -0.8111  0.4286  0.9152
14287TIP3   OH264275   4.959   6.448   2.246 -0.0418  0.7822  0.1251
14287TIP3    H164276   5.048   6.463   2.276  0.5268  1.1690 -1.6580
14287TIP3    H264277   4.966   6.375   2.184 -1.3780 -0.8527  1.7829
14288TIP3   OH264278   0.500   6.265  12.562 -0.2308  0.0255 -0.0799
14288TIP3    H164279   0.507   6.198  12.494  1.8539  0.2109 -0.1134
14288TIP3    H264280   0.515   6.348  12.516 -3.6792  0.7085 -0.2050
14289TIP3   OH264281   3.528   4.954   1.003  0.3201  0.2111 -0.1177
14289TIP3    H164282   3.457   4.986   0.947  0.5383  0.6146 -0.1654
14289TIP3    H264283   3.556   4.872   0.960  0.1037  0.2176 -0.2779
14290TIP3   OH264284   3.129   3.389   5.864 -0.1413  0.5321  0.8261
14290TIP3    H164285   3.120   3.416   5.956 -0.6044  2.8356  0.1809
14290TIP3    H264286   3.221   3.404   5.844 -0.2645  1.1072  0.6481
14291TIP3   OH264287   2.064   1.500   3.655 -0.0929  0.0517  0.4076
14291TIP3    H164288   2.087   1.540   3.739 -0.4094  1.1085  0.0132
14291TIP3    H264289   2.138   1.444   3.634  0.1383  0.0348  1.2376
14292TIP3   OH264290   2.288   5.480   1.928 -0.3072  0.0514  0.6870
14292TIP3    H164291   2.209   5.435   1.897 -0.7953  1.3795 -0.0670
14292TIP3    H264292   2.328   5.515   1.848  0.7850 -0.1924  1.1211
14293TIP3   OH264293   5.452   4.098  13.360  0.2877 -0.0486 -0.5915
14293TIP3    H164294   5.410   4.029  13.412  2.0171 -0.5204  0.2517
14293TIP3    H264295   5.479   4.053  13.279  0.7208 -0.1851 -0.3751
14294TIP3   OH264296   5.868   1.805   5.522  0.3322 -0.0098 -0.1500
14294TIP3    H164297   5.891   1.765   5.438 -1.2863 -3.4584  0.8724
14294TIP3    H264298   5.835   1.892   5.499 -0.7901 -1.1096 -3.1792
14295TIP3   OH264299   1.179   3.386  12.624  0.5688  0.2852 -0.2140
14295TIP3    H164300   1.203   3.383  12.717 -1.0669 -3.9733  0.2980
14295TIP3    H264301   1.085   3.403  12.625  0.6028  0.5527 -1.1230
14296TIP3   OH264302   0.118   4.135   5.577 -0.1525 -0.5097  0.2549
14296TIP3    H164303   0.198   4.178   5.607  0.0493 -1.3075  0.8942
14296TIP3    H264304   0.047   4.185   5.618 -0.0184  0.4607 -0.6509
14297TIP3   OH264305   3.034   5.965   1.204 -0.3137  0.2495  0.2562
14297TIP3    H164306   3.116   5.994   1.164  0.3242  0.2006  1.4985
14297TIP3    H264307   3.036   5.869   1.197 -0.2755  0.2480  0.2912
14298TIP3   OH264308   1.001   1.534   0.276  0.2818 -0.4477 -0.6172
14298TIP3    H164309   0.991   1.449   0.319 -0.0301 -0.6969 -1.1752
14298TIP3    H264310   1.034   1.592   0.345  0.8612 -1.1057 -0.3319
14299TIP3   OH264311   4.080   4.350  14.066 -0.4313  0.1396 -0.6426
14299TIP3    H164312   4.070   4.340  13.971  2.5456  0.5456 -1.1031
14299TIP3    H264313   4.069   4.444  14.081  0.8410  0.3581 -0.9180
14300TIP3   OH264314   6.213   0.260  14.961 -0.9153  0.0967  0.0718
14300TIP3    H164315   6.232   0.342  14.916 -3.0854  1.5901  1.6615
14300TIP3    H264316   6.298   0.227  14.989  0.1645  0.7947 -2.1736
14301TIP3   OH264317   5.956   6.538  14.192 -0.5438  0.3353  0.1548
14301TIP3    H164318   5.866   6.548  14.161 -0.4096 -0.4060 -0.5008
14301TIP3    H264319   5.995   6.625  14.181 -0.3402  0.0159 -2.3813
14302TIP3   OH264320   2.032   1.979  12.198  0.0168 -0.2610 -0.6226
14302TIP3    H164321   2.057   2.058  12.245  0.0192 -0.4745 -0.2594
14302TIP3    H264322   2.111   1.923  12.202  0.3375  0.0940 -1.6914
14303TIP3   OH264323   1.192   3.661  16.648 -0.2189  0.0687  0.2545
14303TIP3    H164324   1.148   3.741  16.678 -1.1822 -0.5304  0.4777
14303TIP3    H264325   1.157   3.592  16.704  0.8266 -0.4723  0.2615
14304TIP3   OH264326   1.031   4.010  14.093  0.2156 -0.1669 -0.4185
14304TIP3    H164327   1.096   3.948  14.127 -0.1062  0.0528  0.6252
14304TIP3    H264328   1.064   4.096  14.119  0.8379  0.1582 -2.1566
14305TIP3   OH264329   2.790   2.888   5.602 -0.8809 -0.2820  0.2587
14305TIP3    H164330   2.736   2.958   5.563 -2.1787 -1.9256 -1.0796
14305TIP3    H264331   2.876   2.898   5.561 -0.7706  1.0636  0.7784
14306TIP3   OH264332   0.592   4.846  16.180 -0.1691  0.0013 -0.4444
14306TIP3    H164333   0.507   4.851  16.138  0.3548 -0.7996 -1.6244
14306TIP3    H264334   0.649   4.901  16.127  0.0883  0.4582  0.2820
14307TIP3   OH264335   4.050   0.670  11.896  0.1455  0.1992  0.3535
14307TIP3    H164336   3.970   0.619  11.886  0.1726  0.5231 -1.7841
14307TIP3    H264337   4.121   0.608  11.878  0.2051  0.7753 -1.5185
14308TIP3   OH264338   2.217   1.094   6.091  0.3845  0.7549  0.2632
14308TIP3    H164339   2.186   1.183   6.106  1.2435  1.2330 -0.6912
14308TIP3    H264340   2.312   1.101   6.095  0.4513 -0.2943  1.0365
14309TIP3   OH264341   0.295   2.309  14.875 -0.0390  0.2106  0.6234
14309TIP3    H164342   0.366   2.327  14.936 -0.1202  0.5288  0.6221
14309TIP3    H264343   0.277   2.393  14.833  0.2308 -0.0672 -0.0689
14310TIP3   OH264344   6.215   5.067   4.688 -0.3270 -0.2542 -0.3495
14310TIP3    H164345   6.271   5.143   4.701  0.4518 -0.6919 -1.0239
14310TIP3    H264346   6.136   5.086   4.739 -0.1771  1.0198 -0.5649
14311TIP3   OH264347   5.125   0.860   0.971  0.2716 -0.0850  0.4878
14311TIP3    H164348   5.045   0.837   1.018  0.7997 -0.9082  0.9938
14311TIP3    H264349   5.095   0.877   0.882 -0.4805 -0.2965  0.6872
14312TIP3   OH264350   1.178   5.135  13.401  0.8952  0.4257  0.1176
14312TIP3    H164351   1.146   5.180  13.479  1.1559  0.6634  0.0944
14312TIP3    H264352   1.121   5.059  13.390 -1.2764  2.1295 -1.3399
14313TIP3   OH264353   6.501   0.101   5.745 -0.1974  0.0192 -0.3147
14313TIP3    H164354   6.530   0.123   5.656 -0.2819 -2.4663 -1.0397
14313TIP3    H264355   6.458   0.181   5.777  0.5203  1.2231 -2.2019
14314TIP3   OH264356   6.456   6.257   3.106  0.1350  0.0131 -0.4580
14314TIP3    H164357   6.427   6.307   3.029 -1.1388  2.0129  1.2026
14314TIP3    H264358   6.450   6.166   3.078 -1.6045  0.6065 -2.3420
14315TIP3   OH264359   5.979   6.081  14.839 -0.7736  0.0779  0.0353
14315TIP3    H164360   6.058   6.117  14.880  0.4333 -1.1237 -1.1276
14315TIP3    H264361   5.978   5.989  14.867 -1.5123 -0.0360 -0.3525
14316TIP3   OH264362   0.886   4.412  15.613  0.4707  0.1118 -0.2845
14316TIP3    H164363   0.813   4.437  15.669  1.3715  0.1743  0.9223
14316TIP3    H264364   0.928   4.495  15.591  1.4369 -0.0504  0.8497
14317TIP3   OH264365   0.061   3.954   0.230  0.3072 -0.0107  0.4676
14317TIP3    H164366   0.008   4.008   0.288 -1.2630 -1.1728  0.2035
14317TIP3    H264367   0.128   4.013   0.195 -2.1192  2.1466 -0.8669
14318TIP3   OH264368   3.675   3.721  12.594 -0.2595  0.8347  0.3752
14318TIP3    H164369   3.744   3.655  12.592 -0.6624  0.4171 -1.7926
14318TIP3    H264370   3.710   3.791  12.649  2.2081  0.9583 -1.2194
14319TIP3   OH264371   1.369   5.186  16.815 -0.4536 -0.5867 -0.2075
14319TIP3    H164372   1.441   5.243  16.841 -0.8813 -1.0732  2.3533
14319TIP3    H264373   1.294   5.245  16.803  0.5139  0.0786 -4.1077
14320TIP3   OH264374   4.979   3.968   3.483  0.5630 -0.3715  0.2975
14320TIP3    H164375   4.981   3.916   3.403 -0.1927  2.5796 -1.7815
14320TIP3    H264376   5.030   4.046   3.463  0.1748  0.5602  2.6311
14321TIP3   OH264377   6.345   2.411   6.095 -0.5637 -0.2120  0.0443
14321TIP3    H164378   6.392   2.490   6.066 -2.0441  1.0811  1.0086
14321TIP3    H264379   6.369   2.344   6.030  0.1369  1.2246 -1.2565
14322TIP3   OH264380   4.556   0.743   3.168  0.3511 -0.3932 -0.8745
14322TIP3    H164381   4.548   0.820   3.112  1.4247 -1.1229 -2.0967
14322TIP3    H264382   4.505   0.676   3.123 -0.5524 -0.4245  0.1649
14323TIP3   OH264383   2.246   0.830  15.712  0.0789  0.5820 -0.6976
14323TIP3    H164384   2.296   0.909  15.691  1.0671  0.8767  2.1956
14323TIP3    H264385   2.166   0.863  15.752 -0.9637  0.0755 -2.2840
14324TIP3   OH264386   1.960   2.622  16.118 -0.2474  0.1060  0.8460
14324TIP3    H164387   2.055   2.624  16.105 -0.3839 -2.2383 -1.4474
14324TIP3    H264388   1.949   2.594  16.209  1.3082 -0.8494  0.7880
14325TIP3   OH264389   2.278   0.145   0.240 -0.0927 -0.9522  0.2594
14325TIP3    H164390   2.324   0.160   0.322 -0.7198 -1.7021  0.7670
14325TIP3    H264391   2.200   0.095   0.265 -0.7409 -0.4452 -0.6829
14326TIP3   OH264392   3.115   4.701  13.415 -0.2539 -0.3928 -0.2696
14326TIP3    H164393   3.094   4.607  13.420 -0.5965 -0.2881  0.4105
14326TIP3    H264394   3.163   4.710  13.333 -0.2805 -1.1534 -0.3820
14327TIP3   OH264395   0.945   4.316   5.937  0.0271 -0.4474 -0.2347
14327TIP3    H164396   1.028   4.361   5.923 -0.2516  0.1834  0.0924
14327TIP3    H264397   0.917   4.343   6.024 -0.8291 -0.1365 -0.5866
14328TIP3   OH264398   5.710   0.325   1.405 -0.3085 -0.1153  0.0026
14328TIP3    H164399   5.632   0.362   1.446 -0.1910  1.0885 -0.8248
14328TIP3    H264400   5.743   0.262   1.469 -1.2386  0.2940  0.9068
14329TIP3   OH264401   2.888   1.290   1.526  0.0769  0.1739  0.5458
14329TIP3    H164402   2.942   1.292   1.605  1.7217  0.1306 -0.5089
14329TIP3    H264403   2.892   1.198   1.497  1.4198  0.6084 -0.7853
14330TIP3   OH264404   1.561   5.946   2.562  0.2247  0.5320 -0.0943
14330TIP3    H164405   1.522   6.021   2.608  0.3887 -0.8737  2.5271
14330TIP3    H264406   1.614   5.903   2.629 -0.4035 -2.3248 -1.3057
14331TIP3   OH264407   4.903   0.664  11.873 -0.0875  0.6361 -0.3603
14331TIP3    H164408   4.829   0.648  11.932  0.3115  3.4972  1.1288
14331TIP3    H264409   4.863   0.674  11.786 -1.1913  0.1487  0.0768
14332TIP3   OH264410   0.095   5.318  17.073 -0.6084  0.5116  0.4621
14332TIP3    H164411   0.018   5.261  17.070  0.9550 -1.7632  1.4143
14332TIP3    H264412   0.138   5.304  16.989 -1.3447  2.0427 -0.2103
14333TIP3   OH264413   4.724   4.230   1.961  0.4173 -0.8809 -0.3645
14333TIP3    H164414   4.666   4.306   1.959  0.8120 -0.5383  0.4906
14333TIP3    H264415   4.810   4.267   1.980  0.4758 -1.6108  0.8583
14334TIP3   OH264416   2.383   0.697   0.120 -0.2430  0.2501  0.0923
14334TIP3    H164417   2.341   0.719   0.037  0.0408 -1.0333 -0.4238
14334TIP3    H264418   2.328   0.628   0.156 -0.2874  0.7120  0.9174
14335TIP3   OH264419   2.328   6.770   4.780  0.7484  0.2740 -0.2667
14335TIP3    H164420   2.261   6.839   4.777  0.2826 -0.0352  1.5889
14335TIP3    H264421   2.313   6.719   4.701 -0.9012  0.5193 -0.1475
14336TIP3   OH264422   0.949   2.081   5.277  0.2214  0.0084  0.3825
14336TIP3    H164423   1.042   2.069   5.256  0.4227  0.2828  1.0795
14336TIP3    H264424   0.949   2.109   5.369 -0.5516  0.0181  0.3835
14337TIP3   OH264425   2.377   0.635  13.873  0.2278 -0.1729  0.1178
14337TIP3    H164426   2.371   0.577  13.949 -0.1299  0.8092  0.8420
14337TIP3    H264427   2.304   0.695  13.882  0.9719  0.8135 -0.2788
14338TIP3   OH264428   5.395   5.506  17.045  0.1208  0.2998 -0.1552
14338TIP3    H164429   5.378   5.455  17.124  1.1633 -0.6397 -0.5050
14338TIP3    H264430   5.458   5.573  17.073  0.2588  0.1560 -0.1208
14339TIP3   OH264431   1.679   5.207   1.611  0.9757  0.1944  0.4791
14339TIP3    H164432   1.744   5.276   1.615  0.2908  1.1181 -2.2437
14339TIP3    H264433   1.648   5.208   1.520 -2.0587 -0.8841  1.3670
14340TIP3   OH264434   0.644   5.101  11.996  0.1364 -0.2475  0.2224
14340TIP3    H164435   0.686   5.182  11.967 -1.4922  1.1536  1.5425
14340TIP3    H264436   0.588   5.128  12.068 -0.3846 -2.6069  0.7852
14341TIP3   OH264437   1.863   6.137  15.419  0.0179 -0.7281 -0.1136
14341TIP3    H164438   1.814   6.190  15.356  2.3769 -0.7166 -2.1041
14341TIP3    H264439   1.901   6.066  15.366  0.5343 -1.8578  1.6829
14342TIP3   OH264440   0.010   4.790  14.717  0.2780  0.2330  0.0671
14342TIP3    H164441  -0.025   4.701  14.707 -2.0249  1.0286  0.4483
14342TIP3    H264442   0.019   4.801  14.812  2.8831 -0.3657 -0.0374
14343TIP3   OH264443   4.038   2.025  17.015  0.1792 -0.1056  0.2095
14343TIP3    H164444   3.946   2.019  17.037 -0.1641  0.7259 -0.8940
14343TIP3    H264445   4.074   1.939  17.036 -0.4329  0.1174  2.3570
14344TIP3   OH264446   1.485   1.763   0.596  0.1075  0.4369 -0.2876
14344TIP3    H164447   1.463   1.802   0.680  0.4310  0.7563 -0.3507
14344TIP3    H264448   1.481   1.835   0.533  1.5903  0.5895 -0.2569
14345TIP3   OH264449   6.420   1.190  14.457 -0.4677  0.0500  0.2922
14345TIP3    H164450   6.512   1.203  14.435 -0.2630 -1.2312  0.3361
14345TIP3    H264451   6.398   1.105  14.419 -1.1356 -0.4960  1.8364
14346TIP3   OH264452   4.200   6.496   5.431 -0.0358  0.1245 -0.0183
14346TIP3    H164453   4.271   6.442   5.467 -0.1809  1.2291  2.0664
14346TIP3    H264454   4.240   6.582   5.417 -0.1144 -0.1349 -2.2003
14347TIP3   OH264455   1.356   6.331   4.375 -0.4201  0.3770 -0.3041
14347TIP3    H164456   1.273   6.361   4.338 -0.8101  0.4597  0.6244
14347TIP3    H264457   1.415   6.406   4.367 -0.5528  0.4531 -0.5805
14348TIP3   OH264458   4.586   5.633   2.598  0.5603  0.6437  0.0053
14348TIP3    H164459   4.650   5.579   2.645 -1.4554 -0.8645  1.1781
14348TIP3    H264460   4.568   5.584   2.518  2.2872  2.0796 -1.3437
14349TIP3   OH264461   4.439   5.079   5.720  0.1332  0.4696  0.0284
14349TIP3    H164462   4.525   5.105   5.688  1.0316 -1.0644  1.0899
14349TIP3    H264463   4.378   5.141   5.678  1.8977  2.8737  0.7932
14350TIP3   OH264464   4.809   1.455   4.188  0.3310 -0.2974 -0.8190
14350TIP3    H164465   4.752   1.400   4.241  1.8736  0.7162  2.1147
14350TIP3    H264466   4.855   1.395   4.131 -0.1676 -1.6960  0.2053
14351TIP3   OH264467   4.027   6.037  15.359  0.4667 -0.3259 -0.1708
14351TIP3    H164468   4.033   5.942  15.369 -1.8500 -0.4238  0.9622
14351TIP3    H264469   3.980   6.049  15.277  0.3032 -0.1788 -0.0553
14352TIP3   OH264470   0.723   0.434  11.898 -0.1698  0.3368  0.0372
14352TIP3    H164471   0.777   0.355  11.905  0.1879  0.6426  0.9367
14352TIP3    H264472   0.784   0.502  11.871 -0.8478 -0.0540 -2.8865
14353TIP3   OH264473   4.198   0.909  15.211 -0.3490  0.4734 -0.1179
14353TIP3    H164474   4.204   1.003  15.195  0.0777  0.6000  0.7153
14353TIP3    H264475   4.173   0.901  15.303 -0.9608 -0.2293 -0.3339
14354TIP3   OH264476   2.325   2.966  13.764 -0.0559  0.1541  0.0181
14354TIP3    H164477   2.280   2.912  13.829 -1.5444  1.3476  0.0251
14354TIP3    H264478   2.281   2.947  13.681  0.4318  0.1985 -0.2539
14355TIP3   OH264479   0.099   4.148   2.512 -0.2372  0.6225  0.4803
14355TIP3    H164480   0.109   4.204   2.435  1.3587  0.3466  0.4584
14355TIP3    H264481   0.058   4.069   2.479 -0.8318  1.0441  0.1823
14356TIP3   OH264482   5.212   5.823   4.881 -0.0345  0.2577 -0.1815
14356TIP3    H164483   5.174   5.777   4.806 -1.8340  1.6842 -0.2179
14356TIP3    H264484   5.211   5.759   4.952  1.2770 -0.9729 -1.2117
14357TIP3   OH264485   4.672   2.671  15.366  0.1266 -0.3827 -0.2677
14357TIP3    H164486   4.616   2.597  15.341 -2.3842  1.2115  0.3641
14357TIP3    H264487   4.704   2.705  15.282  0.7978 -1.7534 -0.5994
14358TIP3   OH264488   2.278   4.541  14.782  0.6260  0.3765  0.3457
14358TIP3    H164489   2.300   4.563  14.873  0.8364  0.2177  0.3322
14358TIP3    H264490   2.251   4.625  14.744 -2.4972 -0.0021  1.4033
14359TIP3   OH264491   3.606   5.380  11.804  0.1653  0.3336 -0.4446
14359TIP3    H164492   3.534   5.398  11.743  1.0060  1.3209 -1.1781
14359TIP3    H264493   3.588   5.437  11.879 -1.5482 -1.7762  0.8662
14360TIP3   OH264494   2.226   5.211  15.204  0.3516  0.1423 -0.2966
14360TIP3    H164495   2.215   5.117  15.194  1.1647 -0.2733  2.0128
14360TIP3    H264496   2.315   5.221  15.240 -0.7937  1.4777  2.4425
14361TIP3   OH264497   6.597   3.682  16.546  0.3751  0.2780  0.0239
14361TIP3    H164498   6.523   3.708  16.492  0.6631  0.6995 -0.1795
14361TIP3    H264499   6.572   3.598  16.585  0.2516 -0.1375 -0.9363
14362TIP3   OH264500   2.510   5.885   1.759 -0.0191  0.1435  0.2913
14362TIP3    H164501   2.575   5.936   1.711  0.5605 -1.7668 -1.0846
14362TIP3    H264502   2.428   5.898   1.711  0.2491 -0.6171 -0.3974
14363TIP3   OH264503   5.441   5.909   0.878 -0.3529 -0.0023 -0.0467
14363TIP3    H164504   5.457   5.984   0.936  0.4342 -0.2059  0.0121
14363TIP3    H264505   5.418   5.949   0.794 -0.7512  0.2953  0.1943
14364TIP3   OH264506   0.597   5.184   0.848  0.0830  0.8007  0.6887
14364TIP3    H164507   0.598   5.131   0.768  1.2941 -0.4118  1.4548
14364TIP3    H264508   0.506   5.186   0.875 -0.2807  0.8811 -0.4952
14365TIP3   OH264509   4.222   1.385   2.946  0.1817 -0.1368 -0.2038
14365TIP3    H164510   4.264   1.308   2.986  0.0626 -0.2083 -0.2150
14365TIP3    H264511   4.230   1.370   2.852 -0.5823 -0.5482 -0.2105
14366TIP3   OH264512   1.224   4.982   2.801  0.4690 -0.3833  0.0762
14366TIP3    H164513   1.256   5.034   2.727  0.9711 -1.3065 -0.3723
14366TIP3    H264514   1.234   5.040   2.877  0.3593  0.4201 -0.5085
14367TIP3   OH264515   2.730   4.035   5.696 -0.1276  0.0014 -0.0497
14367TIP3    H164516   2.739   4.112   5.640  0.0714 -0.2831 -0.4217
14367TIP3    H264517   2.768   3.964   5.644 -0.8797 -0.4642  0.0304
14368TIP3   OH264518   3.157   6.112  13.964  0.7941  0.0716 -0.2331
14368TIP3    H164519   3.195   6.098  14.051  1.7143 -0.0087 -0.6279
14368TIP3    H264520   3.063   6.109  13.977  0.9289 -0.1383  0.7285
14369TIP3   OH264521   4.269   4.611   2.155 -0.9990  0.4408 -0.4292
14369TIP3    H164522   4.268   4.558   2.076 -0.0483  1.4370 -1.1439
14369TIP3    H264523   4.298   4.698   2.126  2.0351  0.1887  1.3871
14370TIP3   OH264524   5.900   3.810   4.384  0.1121  0.0878  0.5704
14370TIP3    H164525   5.865   3.836   4.469  0.8391  0.4074  0.7775
14370TIP3    H264526   5.964   3.742   4.404  0.4702  0.3421  0.3048
14371TIP3   OH264527   3.388   0.560  13.195  0.6023 -0.3372 -0.3144
14371TIP3    H164528   3.417   0.640  13.152 -1.5822 -0.2104 -1.6730
14371TIP3    H264529   3.329   0.590  13.264 -2.2874 -0.7377 -2.4530
14372TIP3   OH264530   1.109   4.961   1.534 -0.1997  0.1758  0.3168
14372TIP3    H164531   1.098   4.866   1.538 -1.0930  0.2279 -0.3890
14372TIP3    H264532   1.028   4.993   1.495 -0.2375  1.3148  1.2628
14373TIP3   OH264533   5.721   5.650  16.754 -0.6536  0.1440  0.0056
14373TIP3    H164534   5.787   5.680  16.691 -1.1831  0.6315 -0.3233
14373TIP3    H264535   5.757   5.675  16.839  1.6339 -3.3534  0.2727
14374TIP3   OH264536   2.660   2.598  14.598 -0.4296 -0.5257 -0.3102
14374TIP3    H164537   2.754   2.606  14.585 -0.2713 -0.3416  0.8212
14374TIP3    H264538   2.624   2.683  14.572  0.0048  0.2345  1.4122
14375TIP3   OH264539   2.815   2.154   0.960  0.6026 -0.0032  0.6454
14375TIP3    H164540   2.845   2.127   0.873  0.9162 -1.1957  1.1036
14375TIP3    H264541   2.885   2.126   1.019  0.8986  1.7860  1.1767
14376TIP3   OH264542   5.487   1.200   3.792 -0.3382 -0.0072  0.2185
14376TIP3    H164543   5.568   1.197   3.741  0.0010 -0.4563  0.7718
14376TIP3    H264544   5.435   1.269   3.750  1.1069  1.6469  0.9758
14377TIP3   OH264545   6.369   6.328   3.785  0.4738 -0.5276  0.5084
14377TIP3    H164546   6.314   6.273   3.840  0.9089 -1.1378  0.3394
14377TIP3    H264547   6.362   6.290   3.697  1.0137 -0.4957  0.4473
14378TIP3   OH264548   1.053   4.903  17.183  0.1681  0.2081 -0.5662
14378TIP3    H164549   1.015   4.899  17.095  0.5449 -1.0713 -0.6967
14378TIP3    H264550   1.142   4.935  17.168  0.6883 -1.2669 -0.8491
14379TIP3   OH264551   1.656   3.642   1.157  0.6360  0.0910 -0.4148
14379TIP3    H164552   1.586   3.698   1.192 -1.2012 -2.0355 -0.5105
14379TIP3    H264553   1.686   3.688   1.078 -0.3468  1.2277 -0.1563
14380TIP3   OH264554   6.027   0.132  13.191  0.4556  0.2819  0.2559
14380TIP3    H164555   5.933   0.114  13.192  0.5140 -0.1541  2.0771
14380TIP3    H264556   6.067   0.050  13.164  0.3326  0.3771 -0.2214
14381TIP3   OH264557   0.387   4.436   3.069  0.1001  0.3073 -0.2822
14381TIP3    H164558   0.401   4.485   3.150 -1.3053 -0.4383  0.4419
14381TIP3    H264559   0.340   4.358   3.095 -0.9102  0.3190 -1.8888
14382TIP3   OH264560   3.848   5.901   2.263  0.4382  0.8195  0.5133
14382TIP3    H164561   3.918   5.836   2.263  0.6808  0.9654  3.0060
14382TIP3    H264562   3.890   5.982   2.237  0.4996  0.3414 -0.9503
14383TIP3   OH264563   0.721   4.666  11.174 -0.1663 -0.1538  0.0289
14383TIP3    H164564   0.776   4.665  11.095  0.6917  0.8429  0.5791
14383TIP3    H264565   0.662   4.592  11.163  0.9255 -0.9331 -0.8533
14384TIP3   OH264566   0.492   5.679  12.596  0.0030  0.4664 -0.0783
14384TIP3    H164567   0.549   5.652  12.523 -0.6444 -0.4968 -0.2380
14384TIP3    H264568   0.502   5.610  12.661 -1.9054 -0.3939 -0.6190
14385TIP3   OH264569   4.085   1.362   3.321  0.0482 -0.2932  0.2825
14385TIP3    H164570   4.052   1.322   3.401  0.4052 -1.0214  0.0715
14385TIP3    H264571   4.012   1.414   3.289 -0.1428 -0.0962  1.0089
14386TIP3   OH264572   5.687   6.285   4.427  0.1360  0.4530 -0.1747
14386TIP3    H164573   5.650   6.213   4.477  0.2078 -0.3597 -1.2580
14386TIP3    H264574   5.623   6.356   4.436  1.1932  1.1879  2.9144
14387TIP3   OH264575   4.943   1.424  11.738  0.2013 -0.0640 -0.0882
14387TIP3    H164576   4.881   1.482  11.694  1.9524  2.5337  0.6726
14387TIP3    H264577   4.896   1.392  11.814 -0.6216  0.8687 -0.1889
14388TIP3   OH264578   3.524   4.478   5.597  0.0758 -0.1558  0.0823
14388TIP3    H164579   3.544   4.571   5.594  0.0151 -0.0905  1.3288
14388TIP3    H264580   3.570   4.441   5.522 -0.5860  0.9887 -0.9132
14389TIP3   OH264581   2.605   1.990   1.062  0.0963 -0.0155 -0.2223
14389TIP3    H164582   2.520   2.030   1.045  0.1381 -0.4962 -1.6674
14389TIP3    H264583   2.668   2.059   1.040  0.1593 -0.7175 -2.4478
14390TIP3   OH264584   3.112   2.221  13.755 -0.1766 -0.5353 -0.1117
14390TIP3    H164585   3.127   2.264  13.671  1.6985 -0.6531  0.1113
14390TIP3    H264586   3.172   2.146  13.754  0.3359 -0.1759  1.5787
14391TIP3   OH264587   5.775   6.270  14.143 -0.5426  0.6039 -0.5059
14391TIP3    H164588   5.858   6.300  14.179 -0.3545  0.2284 -0.6187
14391TIP3    H264589   5.771   6.177  14.166 -0.6951  0.5024 -0.9353
14392TIP3   OH264590   2.043   2.242  11.620  0.6635 -0.0188 -0.1426
14392TIP3    H164591   2.093   2.163  11.597  0.5055  0.1703 -1.1760
14392TIP3    H264592   2.104   2.296  11.670  0.8317 -0.7122  0.4158
14393TIP3   OH264593   0.359   5.680   4.998 -1.0084 -0.1539  0.2902
14393TIP3    H164594   0.329   5.677   5.089  0.9814 -0.1584  0.9983
14393TIP3    H264595   0.437   5.624   4.997 -0.6074  0.3924 -1.2679
14394TIP3   OH264596   3.499   3.410   2.317 -0.0214 -0.1022 -0.0745
14394TIP3    H164597   3.458   3.477   2.372 -0.0608 -0.2117  0.0307
14394TIP3    H264598   3.436   3.338   2.315  0.8548 -0.9895  1.5123
14395TIP3   OH264599   5.620   3.042   3.814 -0.1200 -0.1991  0.0848
14395TIP3    H164600   5.537   3.027   3.858  0.5439 -2.2842  0.7168
14395TIP3    H264601   5.661   3.113   3.863 -1.1224  0.2295  0.3180
14396TIP3   OH264602   1.939   5.061   0.490  0.0527 -0.1423  0.2944
14396TIP3    H164603   1.889   4.992   0.446  0.3519 -0.5192  0.5428
14396TIP3    H264604   2.021   5.019   0.516  0.1906  0.2786  0.5519
14397TIP3   OH264605   1.950   2.491   3.815 -0.1395 -0.1058 -0.3801
14397TIP3    H164606   2.019   2.445   3.767 -1.2819 -0.2378 -1.9853
14397TIP3    H264607   1.925   2.431   3.884  0.8758 -0.3422 -0.1930
14398TIP3   OH264608   3.592   0.684   1.391 -0.8592 -0.0900  0.3093
14398TIP3    H164609   3.567   0.620   1.324  1.8894 -0.3912 -0.5445
14398TIP3    H264610   3.545   0.764   1.366 -0.9847 -0.5933 -1.1489
14399TIP3   OH264611   2.679   4.727   2.541  0.3308  0.5519  0.9714
14399TIP3    H164612   2.597   4.773   2.562  0.1916  0.2135  1.1771
14399TIP3    H264613   2.664   4.691   2.453  1.0375  2.2519  0.1039
14400TIP3   OH264614   3.615   0.888   2.193 -0.1973  0.3729 -0.0248
14400TIP3    H164615   3.688   0.938   2.231 -0.4872  0.1343  0.8719
14400TIP3    H264616   3.646   0.798   2.192 -0.3746  0.3103  0.0983
14401TIP3   OH264617   0.744   0.514  13.246 -0.0235 -0.3062  0.0178
14401TIP3    H164618   0.771   0.585  13.189 -0.4899 -0.1471 -0.0067
14401TIP3    H264619   0.708   0.448  13.186  1.4342 -1.0615 -0.0789
14402TIP3   OH264620   2.992   4.252  14.787  0.3144 -0.4034  0.0229
14402TIP3    H164621   2.967   4.339  14.756  0.8626 -0.3747 -0.3643
14402TIP3    H264622   3.009   4.202  14.707  3.1085  0.0807  0.1935
14403TIP3   OH264623   0.681   0.417  12.552  0.2866 -0.5479  0.0266
14403TIP3    H164624   0.744   0.460  12.610 -0.3930 -0.3960  0.6783
14403TIP3    H264625   0.622   0.487  12.525 -0.1844 -0.8621  0.2251
14404TIP3   OH264626   2.013   2.745   0.475  0.1901 -0.4936  0.0497
14404TIP3    H164627   1.925   2.774   0.500  0.3769 -0.0949  0.2527
14404TIP3    H264628   2.007   2.650   0.469 -0.4976 -0.4101 -0.8497
14405TIP3   OH264629   1.098   2.240   5.860 -0.1800 -0.1949 -0.1999
14405TIP3    H164630   1.036   2.308   5.833 -1.3729 -1.0995  0.1833
14405TIP3    H264631   1.111   2.256   5.954 -0.0829 -0.2077 -0.2113
14406TIP3   OH264632   0.916   0.151  11.625 -0.4856 -0.3703  0.7061
14406TIP3    H164633   0.885   0.078  11.572 -0.0252  1.4083 -2.2608
14406TIP3    H264634   0.845   0.214  11.624  0.7309  1.0695 -0.7201
14407TIP3   OH264635   4.448   4.467  15.134 -0.1714  0.1241  0.6712
14407TIP3    H164636   4.521   4.411  15.159 -0.7135 -0.8977  0.0578
14407TIP3    H264637   4.370   4.414  15.150 -0.6964  0.6420 -0.0598
14408TIP3   OH264638   0.813   1.788   0.188 -0.3069  0.1494  0.3775
14408TIP3    H164639   0.870   1.854   0.228 -1.5482  2.0960 -0.8604
14408TIP3    H264640   0.807   1.719   0.253  1.8783  0.7505  1.3365
14409TIP3   OH264641   1.102   3.733  16.936 -0.2399  0.0007  0.3105
14409TIP3    H164642   1.088   3.755  17.028 -1.3604 -1.0325  0.4081
14409TIP3    H264643   1.116   3.638  16.936 -0.8213 -0.0962 -0.6390
14410TIP3   OH264644   5.505   1.215   3.318 -0.5326  0.2540 -0.2052
14410TIP3    H164645   5.559   1.161   3.261 -0.7363  0.9392 -1.0731
14410TIP3    H264646   5.566   1.250   3.383 -0.1269  0.1959 -0.5499
14411TIP3   OH264647   2.684   3.831  14.097 -0.2394 -0.1802 -0.4151
14411TIP3    H164648   2.614   3.894  14.113 -1.5868 -1.6144 -0.4857
14411TIP3    H264649   2.709   3.801  14.185 -2.3687 -2.4323 -0.4967
14412TIP3   OH264650   3.858   0.622  12.795  0.1827  0.1357 -0.0712
14412TIP3    H164651   3.932   0.596  12.849 -0.2060 -0.0484  0.3802
14412TIP3    H264652   3.816   0.692  12.844  0.5795  0.8705 -0.7573
14413TIP3   OH264653   3.655   4.091  13.695 -0.7169 -0.7191 -0.0209
14413TIP3    H164654   3.686   4.072  13.783  3.0149  2.0930 -0.4863
14413TIP3    H264655   3.658   4.007  13.649  2.9801 -1.3604  1.0825
14414TIP3   OH264656   5.408   3.457   3.974  0.1867  0.1991 -0.1032
14414TIP3    H164657   5.491   3.499   3.993 -0.1802  0.5853  0.7144
14414TIP3    H264658   5.387   3.409   4.054 -0.2825 -0.0375 -0.3666
14415TIP3   OH264659   5.792   2.823  11.258  0.3865  0.0610  0.7022
14415TIP3    H164660   5.802   2.789  11.169 -0.4199  0.1682  0.5663
14415TIP3    H264661   5.713   2.781  11.292  1.6694 -1.4015  2.0451
14416TIP3   OH264662   3.725   4.013  12.426  0.3935 -0.2484 -0.3221
14416TIP3    H164663   3.778   3.962  12.487 -0.1543 -0.5362 -0.0760
14416TIP3    H264664   3.731   3.966  12.343  2.4090  0.9758 -0.9451
14417TIP3   OH264665   0.844   1.407   1.880  0.0917 -0.2705 -0.5775
14417TIP3    H164666   0.824   1.364   1.797 -0.9453 -1.6510  0.3444
14417TIP3    H264667   0.762   1.450   1.905  0.6578  0.8991 -0.6944
14418TIP3   OH264668   5.102   3.948   6.021  0.5784 -0.2685  0.2127
14418TIP3    H164669   5.138   4.035   6.032 -0.1599 -0.0746  1.2996
14418TIP3    H264670   5.123   3.903   6.103 -1.6023 -0.1239  0.9228
14419TIP3   OH264671   5.223   3.363  16.075 -0.5396  0.1049  0.4151
14419TIP3    H164672   5.157   3.397  16.136 -1.9675 -0.9740 -0.4547
14419TIP3    H264673   5.307   3.388  16.114 -1.2860 -1.9330  3.7803
14420TIP3   OH264674   1.748   5.816  11.644  0.8362 -1.3351 -0.1773
14420TIP3    H164675   1.832   5.788  11.608  1.2161  0.1288 -0.4626
14420TIP3    H264676   1.771   5.866  11.722  0.3275  0.2116 -0.9818
14421TIP3   OH264677   4.652   4.286   0.266  0.5631 -0.0524  0.0148
14421TIP3    H164678   4.570   4.281   0.218 -0.1115 -0.6910  1.1738
14421TIP3    H264679   4.708   4.220   0.225  0.8704  1.0412 -1.3986
14422TIP3   OH264680   3.062   2.330  15.800 -0.1497 -0.3932  0.1316
14422TIP3    H164681   3.119   2.332  15.723 -1.8159  1.9258 -1.1487
14422TIP3    H264682   3.043   2.237  15.813  0.7973 -0.8945 -1.7797
14423TIP3   OH264683   3.662   1.924  16.781  0.0580 -0.2081  0.2828
14423TIP3    H164684   3.637   1.990  16.845 -0.9627 -1.4139  1.1817
14423TIP3    H264685   3.664   1.971  16.697 -1.2310  0.8407  0.8000
14424TIP3   OH264686   4.243   0.611  14.740  0.8136  0.1105 -0.2783
14424TIP3    H164687   4.210   0.641  14.655 -0.8638  0.3476  0.4112
14424TIP3    H264688   4.260   0.518  14.728  1.6888  0.3693 -1.1745
14425TIP3   OH264689   5.860   4.147  13.016  0.5500 -0.1692  0.4496
14425TIP3    H164690   5.892   4.225  12.972 -0.3776 -0.3074 -0.5174
14425TIP3    H264691   5.905   4.074  12.973 -1.6011 -0.4345 -1.5522
14426TIP3   OH264692   6.109   2.575   6.201  0.1382 -0.0933  0.3876
14426TIP3    H164693   6.040   2.540   6.144  1.2880  1.4552 -2.1273
14426TIP3    H264694   6.190   2.550   6.157  1.0540  1.9020  0.8720
14427TIP3   OH264695   2.583   2.422  14.303  0.7534 -0.4804  0.1852
14427TIP3    H164696   2.597   2.470  14.385  3.5232 -1.6180  0.4792
14427TIP3    H264697   2.537   2.485  14.247  0.8224  1.1355  1.8354
14428TIP3   OH264698   3.283   4.217   2.602 -0.4298 -0.3122  0.0192
14428TIP3    H164699   3.289   4.127   2.635  0.4869 -0.5096 -0.6187
14428TIP3    H264700   3.230   4.210   2.523 -1.2611 -0.1103  0.5569
14429TIP3   OH264701   5.587   3.645  11.795  0.7487  0.3486 -0.2316
14429TIP3    H164702   5.523   3.589  11.839  1.3511  0.8803  1.3586
14429TIP3    H264703   5.666   3.592  11.790  0.5587  0.1293 -1.1123
14430TIP3   OH264704   0.908   2.325  16.908  0.4994  0.0203 -0.0716
14430TIP3    H164705   0.838   2.385  16.881 -0.5834 -1.6473 -1.1795
14430TIP3    H264706   0.863   2.241  16.920  1.8550 -0.4823  1.9807
14431TIP3   OH264707   0.665   6.535  12.748  0.1531  0.0635  0.4103
14431TIP3    H164708   0.615   6.491  12.680  1.3929 -0.5039 -0.1821
14431TIP3    H264709   0.721   6.597  12.700  0.2058  0.4978  1.0170
14432TIP3   OH264710   4.241   5.269   1.739  0.2327  0.2791  0.2744
14432TIP3    H164711   4.169   5.245   1.680  0.3056 -1.0609  0.7112
14432TIP3    H264712   4.201   5.328   1.803  0.1803  1.8686 -1.1538
14433TIP3   OH264713   5.092   4.844   2.683  0.0085 -0.0450  0.3798
14433TIP3    H164714   5.100   4.751   2.702 -1.9512 -0.0329  1.5655
14433TIP3    H264715   5.052   4.881   2.762 -1.0192  1.4634 -0.7974
14434TIP3   OH264716   2.952   4.114  12.994  0.2299 -0.2083  0.4819
14434TIP3    H164717   2.986   4.101  13.083  1.1433 -0.6654  0.0759
14434TIP3    H264718   2.920   4.028  12.968 -2.4451  0.4371  1.3036
14435TIP3   OH264719   1.935   4.945  14.918  0.1847 -0.5478 -0.2918
14435TIP3    H164720   1.890   4.861  14.921 -0.4719 -0.1768  1.4151
14435TIP3    H264721   1.865   5.009  14.907  0.4571 -0.0817  0.6316
14436TIP3   OH264722   2.121   3.616  15.607 -0.1851  0.3895 -0.2866
14436TIP3    H164723   2.075   3.693  15.641 -0.7936 -0.2211  0.2901
14436TIP3    H264724   2.158   3.574  15.685 -0.1538 -0.0890 -0.5562
14437TIP3   OH264725   6.728   6.597   0.601  0.0912  0.1243 -0.1145
14437TIP3    H164726   6.718   6.628   0.511 -2.3431 -1.0903 -0.3627
14437TIP3    H264727   6.709   6.673   0.656  0.5837  0.6207 -0.6244
14438TIP3   OH264728   3.075   1.394   3.356 -0.1506  0.3633 -0.1927
14438TIP3    H164729   3.104   1.389   3.447 -1.4189  1.6547  0.3309
14438TIP3    H264730   3.010   1.465   3.356  0.3122  0.8509 -2.2436
14439TIP3   OH264731   5.023   5.430   5.387  0.1746  0.0047 -0.4991
14439TIP3    H164732   5.105   5.394   5.354  0.9551  0.5087  0.8261
14439TIP3    H264733   4.996   5.369   5.456  0.2539  0.6740  0.1280
14440TIP3   OH264734   5.773   2.613  16.997  0.2849 -0.8427  0.1949
14440TIP3    H164735   5.694   2.661  17.023  0.1181 -1.1550  0.2624
14440TIP3    H264736   5.798   2.564  17.075 -0.9753 -2.8362 -0.6041
14441TIP3   OH264737   6.459   3.526  11.581 -0.1438 -0.8329 -0.2774
14441TIP3    H164738   6.401   3.450  11.573 -1.0779 -0.6212  2.9688
14441TIP3    H264739   6.434   3.566  11.664  2.1902  1.4643 -0.5664
14442TIP3   OH264740   6.669   4.508   1.369  0.3767  0.2738 -0.2466
14442TIP3    H164741   6.715   4.533   1.449 -0.8203 -2.0939  1.3009
14442TIP3    H264742   6.733   4.460   1.317  0.9247  1.1102 -0.3676
14443TIP3   OH264743   0.979   1.327  16.480 -0.0871 -0.2990 -0.4331
14443TIP3    H164744   0.974   1.301  16.572  1.6625 -0.5056 -0.3571
14443TIP3    H264745   0.925   1.263  16.434 -0.3364 -0.6735  0.3666
14444TIP3   OH264746   4.718   4.937   3.063 -0.1504 -0.1214 -0.0165
14444TIP3    H164747   4.640   4.888   3.037 -0.2518  0.0610 -0.0573
14444TIP3    H264748   4.772   4.942   2.984 -0.5816  0.6690 -0.2775
14445TIP3   OH264749   4.535   2.515  13.402  0.0813 -0.0379  0.0240
14445TIP3    H164750   4.450   2.504  13.360 -1.0148  1.7187  1.6177
14445TIP3    H264751   4.558   2.428  13.434 -2.0474 -0.2173  1.2021
14446TIP3   OH264752   6.165   2.385   2.302  0.8759  0.4251 -0.0088
14446TIP3    H164753   6.132   2.469   2.334  0.7195 -0.0912  1.2120
14446TIP3    H264754   6.243   2.368   2.355  0.5730 -0.4850  0.1588
14447TIP3   OH264755   1.744   3.296  13.657 -0.0476 -0.0220  0.6402
14447TIP3    H164756   1.829   3.332  13.632  0.3793 -0.6357  1.1955
14447TIP3    H264757   1.684   3.328  13.589  0.6901  0.1063  0.0364
14448TIP3   OH264758   1.745   0.896  17.107 -0.4717 -0.5699 -0.3121
14448TIP3    H164759   1.757   0.805  17.136 -1.6304 -0.4707  0.5605
14448TIP3    H264760   1.673   0.929  17.162  1.0115  1.4074  0.5448
14449TIP3   OH264761   5.044   2.078   1.198 -0.4425  0.2947  0.0278
14449TIP3    H164762   4.964   2.102   1.151 -0.4712  0.7654  0.3049
14449TIP3    H264763   5.044   2.135   1.275 -0.3962 -0.4583  0.5941
14450TIP3   OH264764   6.202   6.330  15.844  0.6145 -0.0621  0.2486
14450TIP3    H164765   6.279   6.287  15.882 -0.2175 -0.1045  1.9752
14450TIP3    H264766   6.171   6.388  15.913  0.2539  1.4850 -1.1529
14451TIP3   OH264767   2.482   0.831  16.053 -0.1200  0.1938 -0.1118
14451TIP3    H164768   2.525   0.840  15.967  0.6319  0.6792  0.3037
14451TIP3    H264769   2.550   0.798  16.111 -0.4702  0.4122  0.4305
14452TIP3   OH264770   0.850   0.452   2.700 -0.2102  0.0764 -0.9558
14452TIP3    H164771   0.800   0.423   2.623  0.1905  1.3186 -1.7110
14452TIP3    H264772   0.832   0.546   2.706 -0.2633 -0.0099  0.5098
14453TIP3   OH264773   6.742   5.589  12.336  0.3311 -0.3347  0.2870
14453TIP3    H164774   6.676   5.558  12.398  1.3112  1.8709  2.6239
14453TIP3    H264775   6.727   5.684  12.331  1.1157 -0.2769 -1.9100
14454TIP3   OH264776   6.364   3.171  15.553 -0.2093 -0.1505  0.3573
14454TIP3    H164777   6.418   3.096  15.528 -0.4458  0.1643 -1.1906
14454TIP3    H264778   6.274   3.138  15.547 -0.3978  0.6420 -1.8662
14455TIP3   OH264779   4.666   4.135  11.700 -0.1601  0.0700  0.4697
14455TIP3    H164780   4.736   4.177  11.750 -1.8682  4.9448 -0.7276
14455TIP3    H264781   4.698   4.132  11.610  0.2178 -2.1597  0.6254
14456TIP3   OH264782   5.526   4.409   1.820 -0.2468  0.2377 -0.1926
14456TIP3    H164783   5.504   4.352   1.893  1.0152  0.4731  0.3995
14456TIP3    H264784   5.557   4.350   1.751 -0.9842  0.0551 -0.3763
14457TIP3   OH264785   2.905   6.162   4.955 -0.8532 -0.5749 -0.4954
14457TIP3    H164786   2.969   6.091   4.951  2.0286  1.8273 -0.1671
14457TIP3    H264787   2.840   6.139   4.888  0.7258 -2.7838 -1.3940
14458TIP3   OH264788   5.335   6.483   2.063 -0.0430  0.8276 -0.4126
14458TIP3    H164789   5.293   6.562   2.029  1.9263  1.8370 -0.6696
14458TIP3    H264790   5.414   6.473   2.010 -0.2947 -1.3976 -0.4395
14459TIP3   OH264791   0.355   0.475  12.270 -0.2305 -0.1441 -0.5111
14459TIP3    H164792   0.396   0.551  12.227 -1.6286  0.4095 -0.9115
14459TIP3    H264793   0.278   0.457  12.217 -2.5965  1.1392  2.2247
14460TIP3   OH264794   1.460   5.378   0.945  0.1144 -0.4063 -0.2207
14460TIP3    H164795   1.367   5.383   0.922 -1.0056 -0.1178  3.6709
14460TIP3    H264796   1.473   5.286   0.968  0.0364  0.0220  1.6686
14461TIP3   OH264797   4.347   4.876   5.961 -0.2353  0.5332  0.7029
14461TIP3    H164798   4.282   4.874   6.031 -1.3591 -1.1749 -0.3194
14461TIP3    H264799   4.400   4.797   5.976 -0.2249  0.3773 -0.1390
14462TIP3   OH264800   5.143   6.214   5.525  0.5775 -0.4720  0.4667
14462TIP3    H164801   5.154   6.288   5.465  0.5203  0.1627  1.2138
14462TIP3    H264802   5.139   6.137   5.469  1.9688 -0.0501 -0.2444
14463TIP3   OH264803   5.102   5.016  14.114  0.7478  0.6584  0.1146
14463TIP3    H164804   5.077   4.927  14.088  0.9624  0.7441 -0.4085
14463TIP3    H264805   5.022   5.056  14.147  1.2537 -0.7955  3.5738
14464TIP3   OH264806   1.819   4.520   6.278  0.1945 -0.5387  0.5805
14464TIP3    H164807   1.825   4.471   6.196 -0.1909  0.5422 -0.1138
14464TIP3    H264808   1.794   4.454   6.343 -2.9386 -0.8975 -0.7973
14465TIP3   OH264809   1.192   6.463   0.917 -0.1525 -0.0255  0.0467
14465TIP3    H164810   1.156   6.548   0.891  2.6985  1.0142 -0.8111
14465TIP3    H264811   1.165   6.453   1.009  1.9800  3.3856  1.2580
14466TIP3   OH264812   4.234   1.424  15.681 -0.3851  0.5302  0.0683
14466TIP3    H164813   4.239   1.354  15.615  1.3205 -0.2460  0.9751
14466TIP3    H264814   4.203   1.500  15.632  1.0142  0.0301 -1.7068
14467TIP3   OH264815   0.315   5.456  16.241  0.3618 -0.1081 -0.0211
14467TIP3    H164816   0.390   5.420  16.194 -0.7183 -0.8291 -1.2280
14467TIP3    H264817   0.325   5.422  16.330  0.9158 -1.0536 -0.4243
14468TIP3   OH264818   2.547   1.163   1.226  0.1716 -0.1633  0.0429
14468TIP3    H164819   2.586   1.249   1.239  0.0826 -0.2521  1.0228
14468TIP3    H264820   2.558   1.145   1.133 -1.7340  1.8197 -0.6400
14469TIP3   OH264821   0.682   3.474  16.594 -0.3685  0.3281  0.6450
14469TIP3    H164822   0.698   3.494  16.687 -0.2062 -0.7740  0.8678
14469TIP3    H264823   0.598   3.428  16.594  0.0781 -0.5172  0.3758
14470TIP3   OH264824   4.681   5.165  15.784 -0.3766  0.0434  0.5616
14470TIP3    H164825   4.684   5.193  15.875  0.8443  1.1150  0.2185
14470TIP3    H264826   4.773   5.156  15.758 -0.6510 -3.0492  0.2262
14471TIP3   OH264827   0.596   0.659   5.138 -0.7395 -0.5081  0.5666
14471TIP3    H164828   0.688   0.672   5.115 -1.2634 -1.8317 -2.8749
14471TIP3    H264829   0.589   0.691   5.228  2.7838  0.7719  0.5391
14472TIP3   OH264830   4.587   0.026  16.205 -0.3036 -0.0330  0.5123
14472TIP3    H164831   4.584   0.048  16.112  0.2759 -1.7626  0.0443
14472TIP3    H264832   4.661   0.076  16.239  1.2833 -1.5062 -0.6141
14473TIP3   OH264833   0.140   5.250  15.127  0.0699 -0.1532  0.0853
14473TIP3    H164834   0.229   5.214  15.132  0.4870  0.8881  0.4652
14473TIP3    H264835   0.103   5.210  15.049  1.7150  1.1488 -1.4585
14474TIP3   OH264836   0.259   5.406  12.621  0.0469  0.2197  0.5045
14474TIP3    H164837   0.244   5.418  12.527 -1.2324  1.4911  0.8334
14474TIP3    H264838   0.251   5.311  12.635 -1.4346  0.1798 -0.4208
14475TIP3   OH264839   0.917   3.980   4.011 -0.1666  0.4709 -0.7320
14475TIP3    H164840   0.894   3.901   4.059  1.6093  0.1071 -0.4083
14475TIP3    H264841   0.845   4.041   4.029 -1.1272 -0.7512 -0.2744
14476TIP3   OH264842   0.237   4.855   0.761 -0.5991  0.0469  0.4589
14476TIP3    H164843   0.166   4.912   0.791  0.0187  1.4386 -0.6201
14476TIP3    H264844   0.222   4.846   0.667 -1.1004 -2.2196  0.7116
14477TIP3   OH264845   3.131   5.948  17.184  0.3373  0.2242  0.5106
14477TIP3    H164846   3.093   5.950  17.096  0.0234  0.0479  0.6402
14477TIP3    H264847   3.150   5.855  17.199  1.4073  0.3732  0.2030
14478TIP3   OH264848   4.045   0.791   2.685  0.0228  0.1877  0.3984
14478TIP3    H164849   4.102   0.866   2.700  1.4923 -0.9005  0.4948
14478TIP3    H264850   4.092   0.738   2.621 -1.9349  0.3073 -1.2506
14479TIP3   OH264851   0.193   0.213  15.434 -0.0788  0.3913 -0.2128
14479TIP3    H164852   0.130   0.279  15.464  0.6824  1.4339 -0.8052
14479TIP3    H264853   0.246   0.260  15.369  0.2916 -0.9101 -0.8762
14480TIP3   OH264854   0.079   2.846   0.085  0.0914  0.6368 -0.1987
14480TIP3    H164855   0.036   2.824   0.168 -1.2490  2.8611 -0.2135
14480TIP3    H264856   0.069   2.941   0.078  3.8021  1.0932 -0.9767
14481TIP3   OH264857   3.729   1.982  13.935 -0.2592  0.3987  0.0100
14481TIP3    H164858   3.643   1.983  13.979 -0.5185 -2.9732 -0.1916
14481TIP3    H264859   3.710   1.956  13.845  0.9841 -1.4434  0.2192
14482TIP3   OH264860   2.434   0.454   0.675 -0.0026  0.1028  0.2267
14482TIP3    H164861   2.495   0.526   0.690  0.1839  0.0255 -0.1648
14482TIP3    H264862   2.377   0.455   0.752  1.4554 -0.7976  1.3865
14483TIP3   OH264863   4.923   1.953   2.627  0.2291 -0.1671 -0.0426
14483TIP3    H164864   4.965   1.986   2.548 -0.6879  1.3669  0.0796
14483TIP3    H264865   4.840   1.917   2.597  0.1891 -0.2299  0.1402
14484TIP3   OH264866   4.766   5.394  11.767 -0.2344 -0.1268 -0.5660
14484TIP3    H164867   4.829   5.345  11.714  0.6346 -0.2825  0.5807
14484TIP3    H264868   4.799   5.483  11.768  0.1127 -0.2604  0.2433
14485TIP3   OH264869   6.262   3.788   2.762  0.5349  0.3122  0.1138
14485TIP3    H164870   6.262   3.863   2.702  1.2840 -0.7212 -1.2140
14485TIP3    H264871   6.317   3.816   2.835  2.1145  0.5229 -1.0966
14486TIP3   OH264872   4.906   6.534  13.373  0.2691  0.1607  0.0227
14486TIP3    H164873   4.833   6.535  13.311  0.6213  1.0006 -0.3821
14486TIP3    H264874   4.876   6.476  13.443  0.1423 -1.3993 -1.2503
14487TIP3   OH264875   1.008   6.386  13.746 -0.1847 -0.4400 -0.0339
14487TIP3    H164876   1.016   6.426  13.833 -0.8003 -0.7876  0.1928
14487TIP3    H264877   1.088   6.335  13.736 -1.2417 -2.5948  1.5014
14488TIP3   OH264878   2.682   3.192   2.437  0.5558  0.1348 -0.4400
14488TIP3    H164879   2.764   3.231   2.468  0.7977  1.4912 -2.5264
14488TIP3    H264880   2.616   3.223   2.499  1.4047  0.2776  0.4146
14489TIP3   OH264881   5.927   0.599  16.865  0.2458  0.5999 -0.4011
14489TIP3    H164882   5.993   0.602  16.935  0.2564  1.3775 -0.4345
14489TIP3    H264883   5.955   0.527  16.809 -2.1118 -3.1223  2.6875
14490TIP3   OH264884   5.702   5.835  13.038 -0.5552 -0.2057  0.7999
14490TIP3    H164885   5.696   5.785  12.957  0.3952  0.4619  0.3146
14490TIP3    H264886   5.780   5.802  13.082  0.8577  1.7097 -0.1430
14491TIP3   OH264887   2.261   5.696   0.722 -0.9482 -0.2702  0.2802
14491TIP3    H164888   2.199   5.706   0.650 -1.0588  0.1817  0.4351
14491TIP3    H264889   2.224   5.748   0.793  0.6435  1.7905 -0.2798
14492TIP3   OH264890   2.106   2.148  16.103 -0.2357 -0.3751 -0.3042
14492TIP3    H164891   2.021   2.190  16.121 -0.1864 -0.0319 -0.8474
14492TIP3    H264892   2.121   2.163  16.009  0.2174 -0.8218 -0.3090
14493TIP3   OH264893   3.110   5.312  11.100  0.4757 -0.2454 -0.2007
14493TIP3    H164894   3.043   5.269  11.153  1.2287 -0.6386  0.4571
14493TIP3    H264895   3.077   5.401  11.087 -1.3049 -1.0782 -1.9121
14494TIP3   OH264896   6.752   3.752   3.644 -0.7036  0.3649  0.1303
14494TIP3    H164897   6.765   3.783   3.555  0.0874 -0.1749  0.0485
14494TIP3    H264898   6.657   3.741   3.652 -0.7545  0.0971 -0.7471
14495TIP3   OH264899   2.407   1.289   5.489  0.0197  0.1010  0.4411
14495TIP3    H164900   2.450   1.216   5.534  0.5244  0.0151 -0.1569
14495TIP3    H264901   2.474   1.357   5.484  0.7082 -0.6425 -1.9944
14496TIP3   OH264902   2.009   1.384  12.555 -0.1400 -0.2439 -0.1779
14496TIP3    H164903   2.093   1.385  12.508 -0.2787  0.2098 -0.4261
14496TIP3    H264904   1.945   1.358  12.489 -0.1462 -0.9591  0.1060
14497TIP3   OH264905   4.458   1.705   4.751  0.0669  0.0961  0.0614
14497TIP3    H164906   4.459   1.621   4.705 -1.3809 -0.7045  1.4008
14497TIP3    H264907   4.549   1.721   4.775  0.6661 -0.0839 -1.9170
14498TIP3   OH264908   6.130   4.536  16.994 -0.4353  0.2376 -0.6710
14498TIP3    H164909   6.189   4.594  16.947  0.9132 -0.6314 -0.0979
14498TIP3    H264910   6.098   4.475  16.927 -0.3394  0.4289 -0.8922
14499TIP3   OH264911   6.633   2.487  14.361 -0.2994 -0.0312  0.5708
14499TIP3    H164912   6.703   2.540  14.322 -0.3746  1.0330  1.8296
14499TIP3    H264913   6.552   2.528  14.330 -0.3596  0.8647  1.8553
14500TIP3   OH264914   1.675   5.716  14.280 -0.7416  0.0120  0.2234
14500TIP3    H164915   1.584   5.746  14.291 -0.0664  1.6821  1.5773
14500TIP3    H264916   1.702   5.689  14.367 -0.1645 -1.2712 -0.3296
14501TIP3   OH264917   6.719   1.324  11.831  0.3047 -0.0534 -0.2546
14501TIP3    H164918   6.736   1.233  11.807  1.4164  0.2218 -0.5690
14501TIP3    H264919   6.631   1.323  11.869  0.5352 -1.3617  0.2988
14502TIP3   OH264920   5.306   2.408  15.806 -0.6768 -0.0716  0.0080
14502TIP3    H164921   5.257   2.491  15.805 -0.8477 -0.1539 -1.6959
14502TIP3    H264922   5.380   2.425  15.864  0.1495  1.8236 -1.4747
14503TIP3   OH264923   0.559   1.799   0.878 -0.2977 -0.4901 -0.5648
14503TIP3    H164924   0.622   1.784   0.949 -0.0939  0.7559 -0.4502
14503TIP3    H264925   0.506   1.873   0.908  0.3067  0.5939 -2.0175
14504TIP3   OH264926   1.261   1.503   3.583  0.2534 -0.5944  0.0238
14504TIP3    H164927   1.325   1.444   3.621 -0.6524 -2.0843 -0.6585
14504TIP3    H264928   1.201   1.524   3.655 -0.8368 -2.5450 -0.2309
14505TIP3   OH264929   3.012   6.787   3.834  0.0133 -0.4696  0.3353
14505TIP3    H164930   2.967   6.848   3.893 -3.1225 -1.6223 -0.6411
14505TIP3    H264931   3.047   6.719   3.892  0.6194  0.5159  1.1535
14506TIP3   OH264932   1.108   4.685   1.510  0.2379  0.4869 -0.4878
14506TIP3    H164933   1.181   4.671   1.570  1.5589  2.8413 -1.4141
14506TIP3    H264934   1.143   4.664   1.423 -0.2826  1.1890 -0.8880
14507TIP3   OH264935   0.763   5.038   2.996  0.1509  0.0710  0.6527
14507TIP3    H164936   0.768   4.963   3.055 -1.8045 -0.1388  0.6157
14507TIP3    H264937   0.684   5.023   2.945  0.3328  1.6202 -0.1401
14508TIP3   OH264938   3.550   3.962   4.796  0.2313  0.1455 -0.3839
14508TIP3    H164939   3.590   3.892   4.745 -0.0912  0.9253 -1.7644
14508TIP3    H264940   3.472   3.922   4.835  1.5111 -0.9817  1.1465
14509TIP3   OH264941   0.323   6.338  12.785 -0.3818  0.4750  0.3339
14509TIP3    H164942   0.365   6.271  12.731 -1.6012 -1.0321  1.1725
14509TIP3    H264943   0.291   6.403  12.722 -1.2194 -0.9132 -0.7413
14510TIP3   OH264944   6.656   1.192   4.987  0.7568  1.3629  0.2050
14510TIP3    H164945   6.578   1.136   4.975 -0.3435  3.1777 -1.8282
14510TIP3    H264946   6.722   1.152   4.931  1.1778  0.0871  1.5628
14511TIP3   OH264947   1.727   0.329  17.123 -0.0014 -0.1737 -0.1244
14511TIP3    H164948   1.806   0.300  17.168  1.1271  0.3369 -1.7075
14511TIP3    H264949   1.678   0.248  17.107  0.1579 -0.4849  0.9026
14512TIP3   OH264950   5.690   3.240   3.985 -0.6916  0.0559  0.3650
14512TIP3    H164951   5.648   3.321   4.010  1.2684  1.3885 -0.3977
14512TIP3    H264952   5.754   3.224   4.055  0.2447  0.2264 -0.4331
14513TIP3   OH264953   4.526   0.379  12.419 -0.3093  0.6846  0.2500
14513TIP3    H164954   4.549   0.415  12.504  2.3261 -0.1602 -0.0131
14513TIP3    H264955   4.576   0.431  12.356  0.8848 -1.1826 -0.4155
14514TIP3   OH264956   1.542   2.425   0.168  0.1703 -0.3012 -0.0145
14514TIP3    H164957   1.469   2.484   0.153  0.2504  0.1422  1.2628
14514TIP3    H264958   1.588   2.462   0.243  1.1021 -1.1506 -0.1486
14515TIP3   OH264959   1.757   1.471  11.148 -0.5136  0.8067 -0.7306
14515TIP3    H164960   1.682   1.433  11.193 -0.8659 -0.2581 -2.1344
14515TIP3    H264961   1.822   1.484  11.216 -0.3291 -2.4437 -0.1282
14516TIP3   OH264962   0.770   0.136   3.856  1.0992  0.3667 -0.2601
14516TIP3    H164963   0.790   0.133   3.763  1.9583  0.0564 -0.0709
14516TIP3    H264964   0.757   0.229   3.874  0.0775  0.3544 -0.8541
14517TIP3   OH264965   4.499   2.051   2.507 -0.2612 -0.1859 -0.7537
14517TIP3    H164966   4.544   2.093   2.581 -1.3759 -0.6224  0.2082
14517TIP3    H264967   4.446   1.982   2.547  1.3606 -2.4549 -2.2665
14518TIP3   OH264968   3.755   1.757   0.657  0.3562  0.7401  0.4826
14518TIP3    H164969   3.799   1.816   0.717  0.5334  1.1820 -0.0693
14518TIP3    H264970   3.823   1.731   0.594  0.0039  0.8763  0.0383
14519TIP3   OH264971   6.146   5.601  14.009 -0.5070 -0.3543  0.3924
14519TIP3    H164972   6.057   5.628  14.030  0.4005  2.5271  1.0802
14519TIP3    H264973   6.168   5.654  13.932  0.9007 -0.3071  0.8089
14520TIP3   OH264974   2.104   3.394   1.057 -0.0568  0.1182  0.3445
14520TIP3    H164975   2.022   3.410   1.011 -1.6380 -2.2547  2.0785
14520TIP3    H264976   2.147   3.324   1.008  0.6979  0.9860 -0.2557
14521TIP3   OH264977   6.621   6.607  10.383  0.2040 -0.4976 -0.5016
14521TIP3    H164978   6.536   6.564  10.374  0.3024 -1.0206  0.8821
14521TIP3    H264979   6.601   6.701  10.378 -0.7098 -0.5463  1.4951
14522TIP3   OH264980   4.772   5.933   6.466 -0.2685 -0.1737 -0.8253
14522TIP3    H164981   4.842   5.996   6.448 -0.1330  0.1097  0.5710
14522TIP3    H264982   4.806   5.850   6.435  0.4870  0.0499 -0.6183
14523TIP3   OH264983   2.132   5.359  14.828 -0.2563 -0.3061  0.1904
14523TIP3    H164984   2.098   5.344  14.739  1.0338 -0.5905 -0.2753
14523TIP3    H264985   2.224   5.380  14.815 -0.0846 -0.2126  1.4681
14524TIP3   OH264986   5.297   1.639   4.498  0.1984 -0.5846 -0.1474
14524TIP3    H164987   5.350   1.565   4.468 -0.4404 -1.2134  0.2322
14524TIP3    H264988   5.232   1.651   4.429 -0.3525 -1.0732  0.2734
14525TIP3   OH264989   4.795   4.260  11.134  0.2702 -0.6690  0.1030
14525TIP3    H164990   4.762   4.340  11.093  0.5610 -0.3814  0.4244
14525TIP3    H264991   4.812   4.200  11.061 -2.0518 -1.2580 -0.0335
14526TIP3   OH264992   6.129   4.124   3.006  0.3253 -0.0409 -0.3315
14526TIP3    H164993   6.182   4.073   3.067  1.8378 -1.7766 -2.9082
14526TIP3    H264994   6.066   4.061   2.970 -0.1349  0.7730 -0.9868
14527TIP3   OH264995   4.566   5.810  17.101  0.2205 -0.3741 -0.2137
14527TIP3    H164996   4.536   5.767  17.021  1.6347 -0.3789 -0.7815
14527TIP3    H264997   4.605   5.893  17.070  0.6572 -0.3132  0.4727
14528TIP3   OH264998   5.280   5.228  16.111  0.8025  0.3605  0.1709
14528TIP3    H164999   5.189   5.223  16.138  0.3548  0.8206 -1.1568
14528TIP3    H265000   5.279   5.283  16.033  1.9608 -1.0980 -0.9433
14529TIP3   OH265001   3.489   0.426  14.104  0.5592  0.3436 -0.8702
14529TIP3    H165002   3.580   0.401  14.087  0.9245 -0.1123  1.3744
14529TIP3    H265003   3.476   0.406  14.197 -2.1092 -0.3582 -1.3227
14530TIP3   OH265004   3.822   4.670   1.051 -0.0143 -0.0389 -0.2178
14530TIP3    H165005   3.781   4.589   1.082  0.0037 -0.0358 -0.1858
14530TIP3    H265006   3.916   4.655   1.062 -0.0740  1.0726  2.5626
14531TIP3   OH265007   0.788   2.307  13.723  0.4080  0.3773 -0.6089
14531TIP3    H165008   0.848   2.304  13.797 -1.5897 -0.0286  1.1081
14531TIP3    H265009   0.785   2.217  13.690  0.0690  0.1895 -0.0860
14532TIP3   OH265010   1.967   2.035  16.858 -0.3007 -0.0766 -0.2288
14532TIP3    H165011   2.011   1.999  16.935 -1.5673 -0.8145  0.1673
14532TIP3    H265012   2.020   2.004  16.784  0.0071 -0.7129  0.2493
14533TIP3   OH265013   0.760   6.078  13.495 -0.0677 -0.0359  0.0763
14533TIP3    H165014   0.763   6.158  13.548  0.6657 -0.6262  0.9633
14533TIP3    H265015   0.721   6.013  13.553  0.7099 -0.6827 -0.1191
14534TIP3   OH265016   3.307   4.915   4.963  0.4729  0.5451  0.4376
14534TIP3    H165017   3.312   4.919   5.058  1.2376  0.6465  0.4062
14534TIP3    H265018   3.235   4.973   4.939 -2.0383 -2.0666  1.1344
14535TIP3   OH265019   6.524   5.719  16.700  0.1251 -0.6265 -0.0359
14535TIP3    H165020   6.490   5.803  16.670  1.8096 -0.0320 -0.3793
14535TIP3    H265021   6.489   5.710  16.789 -0.0788  0.4338  0.0091
14536TIP3   OH265022   3.349   3.054   3.805  0.4668 -0.8241 -0.5838
14536TIP3    H165023   3.284   3.107   3.851  0.6650 -0.1747 -1.0294
14536TIP3    H265024   3.433   3.091   3.831  0.7188 -2.1978  0.6454
14537TIP3   OH265025   6.308   2.764   3.332  0.1258  0.3397  0.0019
14537TIP3    H165026   6.350   2.845   3.303  0.5990 -0.0677 -0.4627
14537TIP3    H265027   6.348   2.746   3.418  1.8436 -0.6985 -0.9675
14538TIP3   OH265028   1.032   5.121  14.339 -0.3544 -0.6307 -0.6995
14538TIP3    H165029   1.008   5.065  14.413  0.8174 -0.7972 -0.4233
14538TIP3    H265030   0.998   5.075  14.263  2.1345 -2.7711 -0.6819
14539TIP3   OH265031   1.748   0.302  13.356 -0.8618 -0.7533  0.1146
14539TIP3    H165032   1.841   0.286  13.337 -0.4392  1.8770 -0.4056
14539TIP3    H265033   1.744   0.310  13.451 -0.5153 -0.7117  0.1285
14540TIP3   OH265034   5.622   4.460   5.464 -0.3421  0.5312  0.0076
14540TIP3    H165035   5.569   4.540   5.470  0.3093  0.9223  0.8223
14540TIP3    H265036   5.708   4.486   5.498  0.8295  0.2738 -2.5154
14541TIP3   OH265037   6.604   2.674   6.502 -0.1854  0.2062  0.5049
14541TIP3    H165038   6.517   2.713   6.499 -0.2321  0.0370 -1.6017
14541TIP3    H265039   6.664   2.747   6.490 -0.2186 -0.0508 -1.7276
14542TIP3   OH265040   0.200   5.798  15.139  0.0118  0.0395 -0.0182
14542TIP3    H165041   0.289   5.820  15.111  0.0921  1.5574  1.3509
14542TIP3    H265042   0.192   5.835  15.227 -1.7021 -0.8000  0.2116
14543TIP3   OH265043   4.659   6.238   3.972 -0.0596 -0.2844  0.0042
14543TIP3    H165044   4.584   6.230   4.032 -0.7095  0.4286 -0.6909
14543TIP3    H265045   4.657   6.158   3.920 -0.8484  0.1069 -0.5764
14544TIP3   OH265046   1.634   5.328  14.748 -0.5764 -0.0119  0.2247
14544TIP3    H165047   1.559   5.281  14.786 -1.1653  0.2467 -0.5898
14544TIP3    H265048   1.594   5.396  14.694  0.2570  0.2131 -0.1124
14545TIP3   OH265049   2.246   5.089  17.157  0.8631  1.0013 -0.1159
14545TIP3    H165050   2.277   5.113  17.244 -1.7267 -1.9017  1.8141
14545TIP3    H265051   2.305   5.020  17.128  0.9391  1.0480 -0.0717
14546TIP3   OH265052   3.767   4.033  15.444  0.0247  0.0284 -0.7121
14546TIP3    H165053   3.855   4.054  15.415  0.5315  1.0088  1.3624
14546TIP3    H265054   3.766   3.937  15.451  0.6637 -0.0426 -1.5002
14547TIP3   OH265055   5.415   3.283  12.042 -0.4549  0.6742 -0.2704
14547TIP3    H165056   5.509   3.268  12.045 -0.9063 -3.2830 -0.2130
14547TIP3    H265057   5.389   3.289  12.134 -0.2827  1.9476 -0.2901
14548TIP3   OH265058   5.404   4.508   3.901 -0.5376 -0.3539  0.5937
14548TIP3    H165059   5.311   4.495   3.920 -1.1443  1.0248 -1.1010
14548TIP3    H265060   5.407   4.595   3.861  1.5894 -0.1223  1.1681
14549TIP3   OH265061   5.864   6.449  11.005  0.0142 -0.3897  0.4559
14549TIP3    H165062   5.775   6.484  10.998 -0.0886 -0.7899 -0.3634
14549TIP3    H265063   5.913   6.516  11.053 -0.1993  0.8447 -0.9911
14550TIP3   OH265064   4.703   6.406  12.416  0.5715  0.5850  0.1596
14550TIP3    H165065   4.762   6.407  12.341 -0.6471  2.0174 -0.8144
14550TIP3    H265066   4.678   6.497  12.429 -2.1430 -0.0499 -0.0464
14551TIP3   OH265067   4.486   0.295  13.861  0.1371  0.3612 -0.1119
14551TIP3    H165068   4.547   0.237  13.906 -0.0232 -0.1047 -0.4952
14551TIP3    H265069   4.402   0.251  13.867  0.4356 -0.7214 -2.6046
14552TIP3   OH265070   6.546   5.355   4.051 -0.1995 -0.1686  0.0634
14552TIP3    H165071   6.614   5.385   3.990 -1.2501 -0.7509 -1.4719
14552TIP3    H265072   6.582   5.276   4.091 -0.5873 -1.4755 -2.0340
14553TIP3   OH265073   3.399   3.473  13.831 -0.3320  0.3062 -0.1611
14553TIP3    H165074   3.476   3.500  13.881 -2.3864  1.2012  2.7913
14553TIP3    H265075   3.327   3.480  13.893 -2.7106 -1.2938 -2.5413
14554TIP3   OH265076   0.269   2.851   0.385 -0.2284 -0.3066 -0.2065
14554TIP3    H165077   0.286   2.914   0.315 -0.0648  0.3910  0.4509
14554TIP3    H265078   0.339   2.866   0.449 -0.1197 -1.2319 -0.0845
14555TIP3   OH265079   6.424   5.747  16.942 -0.0624 -0.1305 -0.3047
14555TIP3    H165080   6.452   5.783  17.026  0.4313  0.6070 -0.7749
14555TIP3    H265081   6.361   5.678  16.965 -1.5410  1.4538  0.6006
14556TIP3   OH265082   6.241   5.431  11.613 -0.2695  0.1261 -0.0201
14556TIP3    H165083   6.188   5.506  11.587 -1.5032 -1.3764 -2.1532
14556TIP3    H265084   6.191   5.355  11.584  1.4859 -1.5036  0.9955
14557TIP3   OH265085   0.499   5.093   2.108  0.0409 -0.1973  0.0446
14557TIP3    H165086   0.481   5.141   2.189  0.0003 -0.0817 -0.0332
14557TIP3    H265087   0.423   5.111   2.052 -0.3775 -1.0241  0.3277
14558TIP3   OH265088   0.899   0.705   0.478  0.1776 -0.4904  0.1593
14558TIP3    H165089   0.846   0.723   0.400  0.2284 -0.7201  0.0705
14558TIP3    H265090   0.919   0.791   0.514  0.0485 -0.3880 -0.0126
14559TIP3   OH265091   3.405   5.393   1.208  0.0045 -0.3965 -0.7491
14559TIP3    H165092   3.436   5.303   1.220  0.2967 -0.3698 -1.3106
14559TIP3    H265093   3.444   5.422   1.126  1.4851  0.9232  0.3609
14560TIP3   OH265094   0.642   6.446  16.258  0.1662 -0.0274  0.1256
14560TIP3    H165095   0.604   6.400  16.183  0.8714 -1.0600  0.3827
14560TIP3    H265096   0.591   6.527  16.265 -0.4820 -0.3287 -0.9194
14561TIP3   OH265097   3.201   4.145   4.589  0.1951  0.1707  0.8129
14561TIP3    H165098   3.265   4.085   4.551  0.8525  1.3897 -0.0964
14561TIP3    H265099   3.200   4.125   4.682 -1.2620 -2.7497  0.2851
14562TIP3   OH265100   6.082   6.450   5.353  0.8860  0.1633 -0.7723
14562TIP3    H165101   6.170   6.444   5.391  0.8622 -0.4253 -0.7939
14562TIP3    H265102   6.041   6.367   5.377  0.2804  0.5051 -0.6278
14563TIP3   OH265103   1.864   3.722  10.905  0.1003 -0.4629  0.0704
14563TIP3    H165104   1.785   3.758  10.866  0.2991 -0.9187 -0.7752
14563TIP3    H265105   1.917   3.693  10.831  1.1338 -0.0159  0.6127
14564TIP3   OH265106   0.022   6.318   2.010 -0.3323  0.7032  0.1649
14564TIP3    H165107  -0.000   6.227   2.031  1.5479  0.0480 -0.4379
14564TIP3    H265108   0.085   6.343   2.078  0.4804  0.9386 -0.6576
14565TIP3   OH265109   5.284   1.968  12.158 -0.5419 -0.5384 -0.1086
14565TIP3    H165110   5.218   1.907  12.192 -0.0297 -1.3511 -0.5356
14565TIP3    H265111   5.303   1.935  12.070  0.2231 -0.1441 -0.0960
14566TIP3   OH265112   4.949   2.512   3.763  0.0375  0.2160  0.4568
14566TIP3    H165113   4.856   2.528   3.747 -0.1352 -0.0337  1.1815
14566TIP3    H265114   4.994   2.574   3.706 -0.5554 -0.3824 -0.6922
14567TIP3   OH265115   2.983   6.308   5.988 -0.0694 -0.2080 -0.0815
14567TIP3    H165116   2.963   6.219   5.958  1.7432 -0.5940 -0.2748
14567TIP3    H265117   2.918   6.363   5.945 -0.6961 -1.3381 -0.6433
14568TIP3   OH265118   2.472   0.157   2.122  0.0373 -0.0494  0.3299
14568TIP3    H165119   2.528   0.121   2.053 -0.9289 -2.7108  0.8058
14568TIP3    H265120   2.527   0.154   2.200  1.4114  3.7226 -0.3134
14569TIP3   OH265121   0.498   3.449  14.778  0.0419 -0.2434  0.3360
14569TIP3    H165122   0.435   3.517  14.803 -1.1832 -0.7725 -1.1821
14569TIP3    H265123   0.517   3.467  14.686  0.5257 -1.3292  0.2123
14570TIP3   OH265124   5.734   2.700  16.569 -0.4083  0.3565  0.5763
14570TIP3    H165125   5.761   2.782  16.611  0.6467  0.3366 -0.0194
14570TIP3    H265126   5.813   2.647  16.567 -0.6242  0.0360 -0.6777
14571TIP3   OH265127   0.081   2.276  12.837  0.3124 -0.3815  0.8745
14571TIP3    H165128   0.045   2.187  12.842 -0.6702 -0.0874 -0.3381
14571TIP3    H265129   0.032   2.325  12.903 -2.0918  0.1428 -1.1093
14572TIP3   OH265130   1.845   5.428   1.599  0.0533 -0.2991 -0.2838
14572TIP3    H165131   1.845   5.434   1.504 -2.8996  0.2621 -0.3255
14572TIP3    H265132   1.871   5.515   1.629 -0.4259 -0.0402 -0.6069
14573TIP3   OH265133   0.191   5.021   4.212 -0.1655 -0.8984 -0.3617
14573TIP3    H165134   0.215   5.087   4.277  0.6409 -0.2363 -1.3063
14573TIP3    H265135   0.102   5.043   4.186 -0.1169 -0.5541 -0.2306
14574TIP3   OH265136   5.925   2.064  15.787 -0.0203 -0.3484  0.0168
14574TIP3    H165137   5.881   1.994  15.740  0.6340 -0.4112 -0.5268
14574TIP3    H265138   6.015   2.032  15.798  0.3820  0.5253 -0.5459
14575TIP3   OH265139   4.966   6.670   0.835 -0.1922 -0.5025  0.3606
14575TIP3    H165140   4.907   6.595   0.821 -1.1225  0.1530  0.6399
14575TIP3    H265141   5.048   6.645   0.793 -1.0251 -0.9934 -1.0112
14576TIP3   OH265142   2.651   3.043  16.386  0.0889 -0.1019  0.4730
14576TIP3    H165143   2.572   3.021  16.335 -0.3088  0.3201  0.8924
14576TIP3    H265144   2.661   3.137  16.373  1.7330 -0.4556 -1.2598
14577TIP3   OH265145   2.533   1.092   3.089 -0.0674 -0.1205  0.0735
14577TIP3    H165146   2.603   1.136   3.138  1.8686 -2.1546 -0.6679
14577TIP3    H265147   2.579   1.048   3.016 -2.3916  0.0143 -1.5791
14578TIP3   OH265148   3.967   1.176  15.958 -0.5739  0.2223 -0.2455
14578TIP3    H165149   3.903   1.156  16.027 -0.5822  0.9716 -0.0258
14578TIP3    H265150   4.009   1.092  15.940 -0.0801  0.1306  1.1749
14579TIP3   OH265151   6.030   1.802   0.583 -0.0421  0.9365 -0.1929
14579TIP3    H165152   6.080   1.733   0.625 -2.6719 -1.5351 -0.7888
14579TIP3    H265153   5.999   1.857   0.656 -0.2720 -0.2202  0.6078
14580TIP3   OH265154   1.890   4.426  13.459 -0.4388 -0.1482  0.0319
14580TIP3    H165155   1.835   4.355  13.424 -1.0178 -1.3739  3.1073
14580TIP3    H265156   1.885   4.495  13.393 -3.8573 -1.0691 -0.8944
14581TIP3   OH265157   3.563   3.076   0.335  0.0046  0.6319 -0.4016
14581TIP3    H165158   3.645   3.028   0.325 -0.2166 -0.4172  2.0754
14581TIP3    H265159   3.588   3.168   0.323  1.6651  0.3774  0.6818
14582TIP3   OH265160   3.981   1.156   5.661 -0.0053  0.0919 -0.0346
14582TIP3    H165161   3.958   1.138   5.752  0.1182 -0.5266 -0.1205
14582TIP3    H265162   4.048   1.224   5.666  0.9629 -0.8716  0.4084
14583TIP3   OH265163   5.339   0.133  13.533  0.4262  0.4808  0.3694
14583TIP3    H165164   5.415   0.092  13.573  0.1697  0.1587  0.5298
14583TIP3    H265165   5.270   0.129  13.600 -0.3455 -1.0819 -0.4636
14584TIP3   OH265166   1.255   5.114  15.519 -0.0071 -0.0497  0.2417
14584TIP3    H165167   1.190   5.138  15.454  1.2253 -0.0528 -1.0528
14584TIP3    H265168   1.266   5.019  15.508 -0.9313 -0.3453  1.5870
14585TIP3   OH265169   5.819   0.360   3.067  0.0507  0.0230  0.0945
14585TIP3    H165170   5.882   0.425   3.098 -2.0555  2.5673 -0.5599
14585TIP3    H265171   5.745   0.368   3.128 -1.0204 -0.3653 -1.1080
14586TIP3   OH265172   5.496   6.721  16.171  0.1836 -0.4581 -0.3963
14586TIP3    H165173   5.408   6.743  16.202  0.0382 -1.3003 -0.1696
14586TIP3    H265174   5.552   6.739  16.247  0.2377  0.2644 -0.6038
14587TIP3   OH265175   0.924   2.360   4.404 -0.2397  0.2936 -0.0640
14587TIP3    H165176   0.894   2.354   4.494 -1.4537  1.2037 -0.3678
14587TIP3    H265177   0.972   2.279   4.388 -0.9096 -0.3432  1.0751
14588TIP3   OH265178   1.843   2.383  14.954 -0.0665 -0.0612 -0.5697
14588TIP3    H165179   1.918   2.403  14.898  0.2215  0.1098 -0.1371
14588TIP3    H265180   1.799   2.310  14.912  1.4122 -1.3977  0.1360
14589TIP3   OH265181   5.515   0.071   1.176  0.1585  0.2196  0.0668
14589TIP3    H165182   5.494   0.047   1.086 -3.0203  0.3989  0.6656
14589TIP3    H265183   5.545   0.162   1.170 -3.4018  1.4951 -0.5549
14590TIP3   OH265184   6.284   3.934   0.423 -0.0104  0.1627 -0.0904
14590TIP3    H165185   6.212   3.965   0.369  1.0964 -0.9234 -2.3197
14590TIP3    H265186   6.333   4.013   0.447 -0.0061  0.6099 -1.5030
14591TIP3   OH265187   4.353   2.645   0.845 -0.0389  0.2557  0.7931
14591TIP3    H165188   4.340   2.664   0.938 -0.7760  1.8980  0.3943
14591TIP3    H265189   4.273   2.677   0.803 -1.0790 -3.1554 -0.1305
14592TIP3   OH265190   0.913   6.266   1.919 -0.4443 -0.2044 -0.1318
14592TIP3    H165191   0.956   6.351   1.911 -0.1732 -0.2467  0.7778
14592TIP3    H265192   0.963   6.208   1.862  1.2978 -0.4583  1.5550
14593TIP3   OH265193   3.538   5.514   0.996 -0.3725  0.9088 -0.0028
14593TIP3    H165194   3.544   5.578   1.067  1.7388 -0.8900  1.5741
14593TIP3    H265195   3.627   5.506   0.963 -0.2034 -2.2925  0.9312
14594TIP3   OH265196   3.086   0.432   2.583  0.2814 -0.4644 -0.1755
14594TIP3    H165197   3.151   0.477   2.636 -0.3233 -0.1548  0.3141
14594TIP3    H265198   3.121   0.344   2.571  2.3351  0.5474 -2.6184
14595TIP3   OH265199   6.484   0.297   0.645 -0.2222 -0.6057  0.2596
14595TIP3    H165200   6.441   0.213   0.657 -0.5664 -0.3915  0.5686
14595TIP3    H265201   6.433   0.358   0.699  0.0643 -0.2151  0.0979
14596TIP3   OH265202   4.665   4.383   0.513 -0.2412 -1.1117  0.1860
14596TIP3    H165203   4.653   4.345   0.426  0.3832  2.0636 -1.4216
14596TIP3    H265204   4.751   4.352   0.541 -0.1503 -1.6254 -0.6291
14597TIP3   OH265205   5.700   5.255   4.640  0.1408  0.5957  0.0070
14597TIP3    H165206   5.761   5.188   4.669  1.5729  1.2775 -1.2926
14597TIP3    H265207   5.614   5.212   4.640  1.1317 -1.5596 -1.6892
14598TIP3   OH265208   0.949   1.839   6.082  0.4068  0.1537  0.6559
14598TIP3    H165209   0.937   1.744   6.090 -2.2807  0.4468  0.8851
14598TIP3    H265210   1.044   1.851   6.086  0.8192 -2.4981  0.7918
14599TIP3   OH265211   4.100   0.948  15.936  0.2439 -0.3388  0.4552
14599TIP3    H165212   4.096   0.877  15.871 -2.6192 -0.7783  0.9628
14599TIP3    H265213   4.070   0.907  16.018 -1.7425  1.4456  0.7114
14600TIP3   OH265214   0.056   5.745   1.723 -0.4882  0.2232  0.0644
14600TIP3    H165215   0.010   5.663   1.704 -0.1784 -0.2690  1.3408
14600TIP3    H265216   0.141   5.735   1.681 -0.0221 -0.6188  1.1297
14601TIP3   OH265217   4.793   1.588  13.551  0.1345 -0.0730 -0.3255
14601TIP3    H165218   4.861   1.625  13.608  0.1636 -0.9329  0.2217
14601TIP3    H265219   4.769   1.506  13.594  1.1684 -1.4906 -2.3060
14602TIP3   OH265220   5.144   4.693   3.755 -0.5706  0.0655  0.5299
14602TIP3    H165221   5.065   4.638   3.761 -0.5980 -0.3784 -2.5753
14602TIP3    H265222   5.146   4.723   3.664  3.2929 -0.6518  0.2136
14603TIP3   OH265223   0.464   0.009  12.451  0.1691 -0.5705  0.5530
14603TIP3    H165224   0.408   0.039  12.523 -0.6836 -0.8548  0.0216
14603TIP3    H265225   0.496   0.090  12.411 -0.8912 -0.3637  0.0800
14604TIP3   OH265226   6.534   0.443  12.582  0.4263 -0.4718 -0.1812
14604TIP3    H165227   6.490   0.454  12.667 -0.2748 -1.4628 -0.3948
14604TIP3    H265228   6.575   0.528  12.565 -1.2020  0.4358  0.1627
14605TIP3   OH265229   2.787   2.130  14.338  0.0838  0.3393 -0.4707
14605TIP3    H165230   2.766   2.075  14.262  1.8982 -0.8477 -0.1920
14605TIP3    H265231   2.753   2.081  14.413 -0.1235  0.6184 -0.3831
14606TIP3   OH265232   2.707   0.744  12.194  0.1550  0.2875 -0.5052
14606TIP3    H165233   2.651   0.712  12.124  1.0624 -0.9936 -0.6761
14606TIP3    H265234   2.794   0.755  12.154  0.2153  1.5807 -0.0828
14607TIP3   OH265235   6.706   1.159  10.670  0.6822 -0.2150  0.2301
14607TIP3    H165236   6.715   1.249  10.640  1.6385  0.1296  1.4888
14607TIP3    H265237   6.747   1.106  10.601  0.3277  0.3205 -0.3962
14608TIP3   OH265238   3.413   1.534  15.428  0.1856  0.2070  0.1363
14608TIP3    H165239   3.444   1.447  15.450  1.0520  0.8694  1.6733
14608TIP3    H265240   3.351   1.520  15.356  2.3668 -1.3934 -1.5863
14609TIP3   OH265241   6.686   1.574   0.386 -0.4433 -0.5974  0.3532
14609TIP3    H165242   6.658   1.665   0.393 -0.6916 -0.6408 -0.0677
14609TIP3    H265243   6.618   1.532   0.333  0.9453 -0.4553 -1.6632
14610TIP3   OH265244   5.917   6.367   4.148 -0.1113 -0.6809  0.1179
14610TIP3    H165245   5.909   6.411   4.233 -3.1860  0.4227 -0.6191
14610TIP3    H265246   5.867   6.286   4.158  0.1952 -0.9402 -0.4225
14611TIP3   OH265247   1.441   1.799   3.816  0.2360  0.1250 -0.1459
14611TIP3    H165248   1.454   1.893   3.810  0.1044  0.0820 -1.3987
14611TIP3    H265249   1.361   1.782   3.766 -0.0267 -0.5941  0.4927
14612TIP3   OH265250   3.423   6.362  13.365 -0.6535  0.3979 -0.4010
14612TIP3    H165251   3.470   6.290  13.409 -2.3550 -0.4698  0.0778
14612TIP3    H265252   3.493   6.414  13.326  0.6295 -2.4820 -2.3444
14613TIP3   OH265253   6.502   4.662  12.641 -0.2558 -0.6873 -0.4150
14613TIP3    H165254   6.594   4.645  12.620  0.0101 -0.6408  0.6836
14613TIP3    H265255   6.505   4.722  12.715 -1.1873 -0.0455 -0.8776
14614TIP3   OH265256   6.096   1.194  11.635  0.6924  0.0478  0.1568
14614TIP3    H165257   6.083   1.125  11.570  0.5705 -0.1388  0.3763
14614TIP3    H265258   6.059   1.272  11.595 -0.2082 -0.2596  0.3568
14615TIP3   OH265259   5.710   4.401   1.441 -0.0572  0.4339 -0.6421
14615TIP3    H165260   5.726   4.352   1.361 -1.9903 -1.9122  0.2889
14615TIP3    H265261   5.754   4.350   1.509 -0.3327  1.1728  0.1061
14616TIP3   OH265262   1.915   4.856   6.123  0.5721 -0.4647 -0.0535
14616TIP3    H165263   1.896   4.945   6.095 -1.0564 -0.8360 -0.2371
14616TIP3    H265264   1.964   4.865   6.204 -0.2672  0.5846  0.3467
14617TIP3   OH265265   6.022   3.440   5.103 -0.0055  0.0186  0.3406
14617TIP3    H165266   6.098   3.494   5.121  0.5066 -0.2626 -0.8651
14617TIP3    H265267   6.038   3.403   5.016 -2.1541  1.0470 -0.5757
14618TIP3   OH265268   3.318   0.150  13.525 -0.2760 -0.4044  0.4052
14618TIP3    H165269   3.313   0.173  13.433 -2.1080 -0.3093  0.4937
14618TIP3    H265270   3.228   0.131  13.550  0.5414 -3.4129  1.4548
14619TIP3   OH265271   1.475   0.068  11.984  0.1493  0.1636 -0.6340
14619TIP3    H165272   1.457  -0.002  11.921  0.8892  0.1249 -0.8096
14619TIP3    H265273   1.478   0.025  12.069 -1.0764  0.2486 -0.5282
14620TIP3   OH265274   6.396   5.172  15.424 -0.1257 -0.1945  0.5784
14620TIP3    H165275   6.436   5.252  15.456 -0.3376  1.2277 -2.3880
14620TIP3    H265276   6.325   5.201  15.367  0.2153 -2.4233 -1.1411
14621TIP3   OH265277   0.161   6.220   5.727 -0.3470 -0.0391 -0.2086
14621TIP3    H165278   0.107   6.220   5.806  0.2110  0.7963  0.1901
14621TIP3    H265279   0.136   6.141   5.681 -1.4266 -0.0123  0.2989
14622TIP3   OH265280   3.575   0.071   5.489 -0.1405  0.4913 -0.3637
14622TIP3    H165281   3.482   0.087   5.501  0.3308  3.0335  0.4055
14622TIP3    H265282   3.584   0.053   5.395 -1.1395  2.6164 -0.9097
14623TIP3   OH265283   1.892   5.577  13.233  0.2181 -0.1506 -0.1716
14623TIP3    H165284   1.813   5.618  13.269  0.4083 -0.5072  0.6617
14623TIP3    H265285   1.864   5.541  13.149  0.1965  2.2926 -1.3097
14624TIP3   OH265286   0.968   3.608   1.017 -0.0746  0.3965 -0.0696
14624TIP3    H165287   0.914   3.549   0.964 -0.5097 -0.4075  1.2256
14624TIP3    H265288   1.025   3.652   0.953 -0.6137 -0.4936 -1.2053
14625TIP3   OH265289   6.770   1.151   1.768 -0.1101  0.2440  0.2668
14625TIP3    H165290   6.722   1.117   1.843 -1.9466  0.3526 -0.8060
14625TIP3    H265291   6.815   1.075   1.732 -0.4944 -0.1256  0.5526
14626TIP3   OH265292   4.010   4.329  11.543  0.0333 -0.0150  0.4058
14626TIP3    H165293   4.071   4.259  11.568 -0.8748 -0.8479  0.3222
14626TIP3    H265294   4.056   4.376  11.473  0.8688 -0.1951  0.8138
14627TIP3   OH265295   2.176   5.359  13.792  0.0934  0.0229 -0.6062
14627TIP3    H165296   2.133   5.415  13.856  1.6704  1.2079 -0.5416
14627TIP3    H265297   2.168   5.270  13.828 -1.1351  0.3699  0.0102
14628TIP3   OH265298   4.570   5.633   1.631 -0.2192  0.0362 -0.4663
14628TIP3    H165299   4.571   5.645   1.726 -0.2016 -1.5801 -0.2410
14628TIP3    H265300   4.602   5.716   1.596 -1.5792  1.1706  0.8624
14629TIP3   OH265301   3.674   1.142   3.270 -0.0595 -0.0926 -0.1220
14629TIP3    H165302   3.753   1.152   3.217 -0.2582  2.5585 -0.0422
14629TIP3    H265303   3.702   1.160   3.360 -0.1351 -2.5518  0.4713
14630TIP3   OH265304   6.062   4.119   0.609 -0.2145  0.1075 -0.3339
14630TIP3    H165305   6.083   4.027   0.592 -0.9526 -0.2701  0.7223
14630TIP3    H265306   5.988   4.137   0.551 -1.0543 -0.4206  0.5515
14631TIP3   OH265307   1.135   0.122   4.235 -0.3866 -0.6760 -0.0709
14631TIP3    H165308   1.219   0.076   4.234  0.5392  0.9050  0.6786
14631TIP3    H265309   1.094   0.098   4.152 -0.6177 -3.8875  0.8415
14632TIP3   OH265310   1.802   4.062  11.962 -0.1823 -0.1462 -0.8253
14632TIP3    H165311   1.802   4.021  11.876 -0.8692 -1.7831 -0.0945
14632TIP3    H265312   1.877   4.023  12.008 -1.0041 -0.8264 -0.0231
14633TIP3   OH265313   1.358   0.869   2.183 -0.0898 -0.4102 -0.3921
14633TIP3    H165314   1.296   0.921   2.132  0.1214 -0.7584 -1.0225
14633TIP3    H265315   1.438   0.867   2.130  0.7393  0.6821  0.7768
14634TIP3   OH265316   0.315   3.051   1.475 -0.4517  0.2832  0.5168
14634TIP3    H165317   0.233   3.100   1.469 -0.3168  0.4737  0.2521
14634TIP3    H265318   0.298   2.986   1.544 -1.1393 -0.2795 -0.1564
14635TIP3   OH265319   6.167   4.517  11.982  0.0900  0.5562 -0.2616
14635TIP3    H165320   6.195   4.432  11.947 -0.5726 -0.6781  2.0223
14635TIP3    H265321   6.187   4.512  12.076 -0.3194  2.8015 -0.0015
14636TIP3   OH265322   1.228   1.725  15.150 -0.0762  0.2848  0.3902
14636TIP3    H165323   1.203   1.755  15.063 -0.4956  0.7861  0.6763
14636TIP3    H265324   1.298   1.785  15.177  1.0930 -0.7764 -0.1834
14637TIP3   OH265325   2.919   2.324   3.659 -0.0689  0.0952 -0.0624
14637TIP3    H165326   2.980   2.280   3.600  2.8623  1.3255  1.8212
14637TIP3    H265327   2.888   2.400   3.609 -0.2441 -0.6421 -1.1082
14638TIP3   OH265328   5.952   2.186   2.277  0.6452 -0.1635 -0.1024
14638TIP3    H165329   5.970   2.280   2.280  0.0856 -0.0661  0.3382
14638TIP3    H265330   5.925   2.169   2.187  0.9941  0.0504 -0.2485
14639TIP3   OH265331   3.374   2.459  13.035  0.3499 -0.0366  0.3251
14639TIP3    H165332   3.359   2.373  13.073 -0.8256  0.2378  0.5148
14639TIP3    H265333   3.369   2.519  13.109 -1.1106  0.4146 -0.1029
14640TIP3   OH265334   1.539   2.637  14.452 -0.4952 -0.6562 -0.2126
14640TIP3    H165335   1.629   2.623  14.484  0.0146  0.8288 -0.9210
14640TIP3    H265336   1.493   2.673  14.528  0.4829  2.0169 -0.7995
14641TIP3   OH265337   3.121   0.947  14.685 -0.1273 -0.2665 -0.5321
14641TIP3    H165338   3.134   1.005  14.610  0.3685 -0.5327 -0.6572
14641TIP3    H265339   3.207   0.907  14.700  0.0821  0.6427  0.9151
14642TIP3   OH265340   1.508   6.298   4.817  0.7758 -0.6130 -0.3467
14642TIP3    H165341   1.451   6.331   4.887 -1.3355  0.3265 -2.3635
14642TIP3    H265342   1.487   6.205   4.811  1.2057 -0.7710  0.4426
14643TIP3   OH265343   6.236   5.182   2.039  0.3689 -0.2651  0.2736
14643TIP3    H165344   6.247   5.087   2.039  1.2959 -0.1696 -0.1287
14643TIP3    H265345   6.216   5.204   2.130 -0.1897 -0.8752  0.3041
14644TIP3   OH265346   6.003   0.790  14.087  0.3636 -0.7916  0.2383
14644TIP3    H165347   6.074   0.746  14.039  0.8643  0.1283  0.1108
14644TIP3    H265348   6.048   0.850  14.146 -0.2752 -1.3033  1.2764
14645TIP3   OH265349   0.458   2.877   3.613  0.6242 -0.1794  0.0831
14645TIP3    H165350   0.374   2.834   3.630  0.0057  1.2944  0.8692
14645TIP3    H265351   0.439   2.943   3.547  1.3145 -0.3034 -0.2473
14646TIP3   OH265352   3.286   3.148  13.527 -0.2127 -0.0917  0.0586
14646TIP3    H165353   3.204   3.193  13.546  0.0823  0.1279  0.8615
14646TIP3    H265354   3.288   3.074  13.588 -0.9728 -1.5967 -1.6464
14647TIP3   OH265355   5.419   6.202  16.332  0.5291 -0.6843 -0.2441
14647TIP3    H165356   5.389   6.124  16.378 -2.9703  1.1895  1.0588
14647TIP3    H265357   5.459   6.256  16.399  0.5098 -0.2708 -0.5612
14648TIP3   OH265358   5.175   0.831   5.553  0.3595 -0.3384 -0.3746
14648TIP3    H165359   5.115   0.902   5.576 -0.1293 -0.3225 -1.5942
14648TIP3    H265360   5.260   0.860   5.584  0.1122  0.6680 -0.5980
14649TIP3   OH265361   6.391   1.357   3.659  0.1301  0.2018  0.1701
14649TIP3    H165362   6.341   1.278   3.637 -0.4356  0.2718  1.1247
14649TIP3    H265363   6.466   1.325   3.708 -0.1553  0.2516  0.6495
14650TIP3   OH265364   5.388   2.793  15.730 -0.0027  0.8373 -0.2275
14650TIP3    H165365   5.304   2.751  15.750  1.1711 -2.1218 -0.9772
14650TIP3    H265366   5.412   2.838  15.811 -0.8187 -1.0019  1.1048
14651TIP3   OH265367   0.152   4.006   3.264  0.1319  0.4553  0.2925
14651TIP3    H165368   0.140   3.911   3.260  0.5483  0.4325 -1.6194
14651TIP3    H265369   0.097   4.040   3.193 -1.0566  1.7960  1.7787
14652TIP3   OH265370   4.534   1.622  10.499 -0.0326 -0.0896  0.2951
14652TIP3    H165371   4.504   1.610  10.409 -0.1841 -0.9343  0.4499
14652TIP3    H265372   4.467   1.676  10.540 -0.1347  0.0156 -0.0117
14653TIP3   OH265373   3.893   1.354   2.407 -0.0012  0.2878  0.0558
14653TIP3    H165374   3.828   1.395   2.465 -0.7404 -1.2907  0.3804
14653TIP3    H265375   3.855   1.360   2.320 -0.2587  0.0085  0.1474
14654TIP3   OH265376   0.508   2.184  13.381 -0.4449  0.1067 -0.3478
14654TIP3    H165377   0.543   2.161  13.295 -0.6581 -1.6979 -0.0047
14654TIP3    H265378   0.534   2.275  13.395  1.2022 -0.1530 -1.5170
14655TIP3   OH265379   4.566   5.118  15.064  0.0323  0.1543  0.2676
14655TIP3    H165380   4.546   5.153  14.977 -1.3310  0.5413  0.7141
14655TIP3    H265381   4.655   5.084  15.056  0.5349  1.6006 -0.8479
14656TIP3   OH265382   3.947   4.269  17.150  0.4979  1.2042 -0.1398
14656TIP3    H165383   3.992   4.293  17.069  0.2557  1.7732 -0.1103
14656TIP3    H265384   3.898   4.190  17.128  1.2230  0.7791 -0.2677
14657TIP3   OH265385   4.802   5.384   1.794  0.2429  1.1039  0.4092
14657TIP3    H165386   4.710   5.367   1.775  0.5169  0.4208 -0.3960
14657TIP3    H265387   4.841   5.298   1.807  0.8269  1.3658  0.4542
14658TIP3   OH265388   3.203   1.079  15.681  0.1540  0.0310 -0.4588
14658TIP3    H165389   3.135   1.102  15.617 -1.2915  0.5289  1.1491
14658TIP3    H265390   3.260   1.156  15.684 -0.8458  0.7850  0.1342
14659TIP3   OH265391   2.117   0.642  17.197  0.2867  0.2935 -0.2699
14659TIP3    H165392   2.193   0.648  17.139 -0.3919  0.1181 -1.2020
14659TIP3    H265393   2.047   0.687  17.149 -0.0506  0.9813  0.8384
14660TIP3   OH265394   2.294   1.275  13.597  0.2254  0.4494  0.3249
14660TIP3    H165395   2.353   1.226  13.539  0.0569  0.1439  0.4115
14660TIP3    H265396   2.353   1.326  13.652  0.4005  0.4017  0.1855
14661TIP3   OH265397   6.780   6.547   2.890 -0.6984  0.4864  0.0143
14661TIP3    H165398   6.815   6.510   2.971 -1.7423 -0.7143 -0.0636
14661TIP3    H265399   6.764   6.472   2.834 -2.2544  1.0975 -0.3965
14662TIP3   OH265400   4.817   3.457   4.715 -0.5775 -0.1368 -0.3392
14662TIP3    H165401   4.847   3.407   4.792  2.1235  1.6257 -0.0837
14662TIP3    H265402   4.835   3.400   4.641  2.4029  0.2706 -0.0560
14663TIP3   OH265403   3.545   6.304  11.289 -0.0643 -0.6117  1.5065
14663TIP3    H165404   3.462   6.261  11.268 -0.3486  0.4585  0.2921
14663TIP3    H265405   3.606   6.233  11.306 -0.4174 -1.5373 -0.7769
14664TIP3   OH265406   5.263   2.425  14.221 -0.5329 -0.1104  0.1086
14664TIP3    H165407   5.239   2.374  14.144 -0.1438  0.4129 -0.3567
14664TIP3    H265408   5.358   2.431  14.218 -0.4395 -0.7764  1.0756
14665TIP3   OH265409   5.200   6.466   2.367 -0.2228 -0.5214  0.1615
14665TIP3    H165410   5.262   6.520   2.415  1.4173  2.4194 -4.5977
14665TIP3    H265411   5.235   6.377   2.373  4.0003  0.8113 -1.3018
14666TIP3   OH265412   2.758   2.951  15.002 -0.6606 -0.5470  0.2260
14666TIP3    H165413   2.831   2.889  14.999 -1.6725 -1.8774  1.5134
14666TIP3    H265414   2.794   3.028  15.046  0.6795 -0.0640 -1.6078
14667TIP3   OH265415   0.542   2.633  16.235 -0.4336  0.4291  0.1644
14667TIP3    H165416   0.628   2.609  16.201  0.0889 -0.3627  1.9170
14667TIP3    H265417   0.557   2.650  16.328 -2.2789 -0.3301  0.6401
14668TIP3   OH265418   4.525   3.249   0.319  0.2793  0.1895 -0.6631
14668TIP3    H165419   4.563   3.336   0.326 -0.5027  0.4661  0.3429
14668TIP3    H265420   4.541   3.223   0.228 -0.2011  1.7104 -1.2048
14669TIP3   OH265421   4.443   6.201   1.437 -0.1393 -0.3218 -0.0576
14669TIP3    H165422   4.502   6.224   1.366 -1.1708  0.1839 -0.7781
14669TIP3    H265423   4.492   6.219   1.517  0.8617 -0.4409 -0.6372
14670TIP3   OH265424   1.569   6.518  11.618 -0.5182 -0.4939  0.1776
14670TIP3    H165425   1.622   6.470  11.555  0.3677  0.2956  0.2980
14670TIP3    H265426   1.480   6.515  11.582 -0.3029 -1.3505 -0.3133
14671TIP3   OH265427   0.331   3.529  13.475  0.1796 -0.1539  0.2381
14671TIP3    H165428   0.380   3.463  13.426 -0.7719 -0.9514  0.3339
14671TIP3    H265429   0.310   3.596  13.410  1.6156  0.3482  0.2557
14672TIP3   OH265430   2.890   4.787  13.512  0.0061 -0.0856 -0.3663
14672TIP3    H165431   2.895   4.875  13.549  0.8523  0.6790 -2.1763
14672TIP3    H265432   2.981   4.762  13.497 -0.1997 -1.4610  0.4755
14673TIP3   OH265433   1.627   6.609   1.772 -0.4053  0.0991 -0.3762
14673TIP3    H165434   1.606   6.615   1.679 -0.6570 -1.5642 -0.4483
14673TIP3    H265435   1.699   6.546   1.776 -0.8219 -0.3306  0.6087
14674TIP3   OH265436   2.625   6.328  15.134  0.4104  0.6549 -0.2618
14674TIP3    H165437   2.651   6.333  15.226 -0.4943  0.6521  0.0064
14674TIP3    H265438   2.540   6.283  15.136  1.0405 -0.6231 -1.2292
14675TIP3   OH265439   6.091   4.100   4.684 -0.0056 -0.4686 -0.4894
14675TIP3    H165440   6.049   4.106   4.598 -1.6083 -1.1976  0.1972
14675TIP3    H265441   6.111   4.007   4.695 -1.1306 -0.6305  0.4790
14676TIP3   OH265442   5.871   4.487   4.552 -0.2034  0.4321 -0.2077
14676TIP3    H165443   5.826   4.403   4.566 -0.1985  0.8277  3.1812
14676TIP3    H265444   5.851   4.511   4.462 -2.2413 -2.0257 -0.5159
14677TIP3   OH265445   5.317   5.700   5.484  1.0679  0.1072 -0.5433
14677TIP3    H165446   5.358   5.771   5.534  0.8123  0.4430 -0.8050
14677TIP3    H265447   5.356   5.620   5.520 -1.6527  0.0100  2.7519
14678TIP3   OH265448   1.669   5.416  15.884 -0.0858 -0.6636 -0.1746
14678TIP3    H165449   1.575   5.399  15.891 -0.3500  0.4878 -0.6385
14678TIP3    H265450   1.678   5.468  15.804  0.5997  1.4407  1.1953
14679TIP3   OH265451   5.144   5.643  12.743  0.1870  0.5149  0.9171
14679TIP3    H165452   5.090   5.614  12.670 -1.3326  0.0176  2.1603
14679TIP3    H265453   5.218   5.688  12.703 -0.7008  0.4400 -0.8933
14680TIP3   OH265454   1.927   0.501  15.019 -0.6184  0.4922  0.0319
14680TIP3    H165455   2.013   0.536  15.042  0.2753 -0.6176 -1.4314
14680TIP3    H265456   1.866   0.546  15.078  0.9602  1.2237  1.1814
14681TIP3   OH265457   1.811   0.437   1.518 -0.9713  0.3522 -0.3788
14681TIP3    H165458   1.791   0.462   1.428 -0.7660  1.7975 -0.0533
14681TIP3    H265459   1.790   0.515   1.569 -0.7236 -0.3191  0.7821
14682TIP3   OH265460   4.430   4.115   4.931  0.1431  0.2435 -0.3352
14682TIP3    H165461   4.438   4.020   4.921  0.1984  0.3473 -1.4339
14682TIP3    H265462   4.445   4.131   5.024  1.4420 -0.6981 -0.3545
14683TIP3   OH265463   2.750   3.183   6.725  0.1620 -0.3741  0.3639
14683TIP3    H165464   2.805   3.212   6.798  1.2074 -0.1455 -0.4821
14683TIP3    H265465   2.812   3.169   6.653 -0.7601 -1.2711 -0.2786
14684TIP3   OH265466   6.622   3.660  16.871 -0.3198 -0.4398 -0.1433
14684TIP3    H165467   6.624   3.697  16.782 -0.8005 -0.1828 -0.0511
14684TIP3    H265468   6.708   3.618  16.881 -0.1520 -0.2262 -0.6250
14685TIP3   OH265469   2.848   2.855  11.327  0.8778 -0.0831 -0.2786
14685TIP3    H165470   2.807   2.937  11.355  1.5701 -0.3590  1.6747
14685TIP3    H265471   2.922   2.843  11.386  0.8517 -2.0675 -0.5674
14686TIP3   OH265472   1.946   5.696  13.898  0.0258  0.3964 -0.0297
14686TIP3    H165473   1.900   5.751  13.961 -2.9060 -1.8626  0.0579
14686TIP3    H265474   1.963   5.614  13.945  2.0608  0.2771 -0.8503
14687TIP3   OH265475   3.524   4.751  11.608 -0.1892 -0.2549  0.3885
14687TIP3    H165476   3.435   4.730  11.637  0.6605 -1.7662  2.1796
14687TIP3    H265477   3.580   4.697  11.664  1.8996  1.2166 -0.1610
14688TIP3   OH265478   6.380   4.310   6.082 -0.4567  0.2402  0.3216
14688TIP3    H165479   6.434   4.382   6.115 -0.3793  0.0466  0.6234
14688TIP3    H265480   6.368   4.330   5.989 -1.6910  1.4253  0.7055
14689TIP3   OH265481   3.136   6.539   0.605  0.1073  0.2913  0.4736
14689TIP3    H165482   3.061   6.590   0.577  0.8413  1.4811  0.6276
14689TIP3    H265483   3.143   6.469   0.540  0.3018  1.5585 -0.9159
14690TIP3   OH265484   6.514   0.876   3.694  0.1023 -0.0782  1.0673
14690TIP3    H165485   6.598   0.845   3.731 -0.1726 -2.5424 -0.1370
14690TIP3    H265486   6.538   0.910   3.608 -0.1647 -1.6841  0.3071
14691TIP3   OH265487   6.346   0.054  14.180  0.0955 -0.0946  0.7110
14691TIP3    H165488   6.431   0.098  14.191  0.1068  0.7666 -2.0554
14691TIP3    H265489   6.366  -0.039  14.187  0.8773  0.1497  2.1085
14692TIP3   OH265490   6.756   0.971   0.494 -0.1049  0.0094 -0.0494
14692TIP3    H165491   6.720   1.024   0.566 -1.5279 -0.3110 -0.4867
14692TIP3    H265492   6.741   1.025   0.416 -2.0568 -1.1775 -0.5752
14693TIP3   OH265493   1.704   3.234  14.617 -0.0590  0.3631  0.2250
14693TIP3    H165494   1.656   3.219  14.699 -0.8723  0.4044 -0.2329
14693TIP3    H265495   1.658   3.181  14.552  1.0598 -0.2793 -0.0536
14694TIP3   OH265496   5.903   1.005   5.450  0.2252 -0.3336 -0.9233
14694TIP3    H165497   5.884   1.079   5.391  2.6968  1.0741 -0.0978
14694TIP3    H265498   5.818   0.982   5.487 -0.7451  1.6709 -1.7392
14695TIP3   OH265499   6.440   0.744  12.205 -0.0576 -0.1798 -0.1228
14695TIP3    H165500   6.473   0.806  12.139 -1.7625  0.3719 -0.5086
14695TIP3    H265501   6.350   0.726  12.178 -0.2181 -1.3293  1.0861
14696TIP3   OH265502   3.197   4.380  15.403  0.2662 -0.2218  1.0784
14696TIP3    H165503   3.197   4.449  15.470  0.4525 -2.0870  3.1395
14696TIP3    H265504   3.112   4.338  15.412 -0.7379  1.0082 -1.6744
14697TIP3   OH265505   1.750   2.005  13.877  0.1400 -0.2534 -0.1004
14697TIP3    H165506   1.765   2.006  13.972 -0.6706 -0.6956  0.0355
14697TIP3    H265507   1.821   1.951  13.843 -0.5851 -1.6054  0.4532
14698TIP3   OH265508   6.708   2.213  15.484  0.8085 -0.4369 -0.2017
14698TIP3    H165509   6.701   2.197  15.578 -0.5085 -1.2403 -0.4016
14698TIP3    H265510   6.662   2.139  15.444 -0.7353  1.0680 -1.3863
14699TIP3   OH265511   6.036   0.725   3.884 -0.1831  0.0232  0.8145
14699TIP3    H165512   6.116   0.776   3.895 -1.4483  2.4265 -0.3690
14699TIP3    H265513   6.067   0.637   3.862  2.1506  1.0899 -0.5504
14700TIP3   OH265514   5.132   4.056   1.966 -0.2667 -0.0402  0.2574
14700TIP3    H165515   5.057   4.115   1.972 -0.6133 -0.5925  2.1864
14700TIP3    H265516   5.152   4.052   1.872  0.2104  3.5873  0.0577
14701TIP3   OH265517   1.208   4.229  16.556 -0.0138 -0.2826  0.2838
14701TIP3    H165518   1.220   4.247  16.650  0.9086  0.3802  0.0543
14701TIP3    H265519   1.297   4.213  16.523 -0.2311  0.3408 -0.6356
14702TIP3   OH265520   6.761   3.510  13.499 -1.2280  0.0343 -0.0028
14702TIP3    H165521   6.821   3.575  13.537 -1.4272  0.4662 -0.4093
14702TIP3    H265522   6.691   3.502  13.563 -1.4848  0.6463 -0.1947
14703TIP3   OH265523   5.050   4.616   1.027 -0.5970  0.0936 -0.1332
14703TIP3    H165524   5.044   4.660   0.942  0.6286  0.1776 -0.1843
14703TIP3    H265525   5.019   4.527   1.010  0.3500 -0.1072 -0.8427
14704TIP3   OH265526   2.030   1.626   3.344 -0.0616 -0.4141  0.0544
14704TIP3    H165527   2.041   1.579   3.261 -0.8346 -1.4715  0.5358
14704TIP3    H265528   2.096   1.696   3.340 -0.6219  0.0785 -1.8024
14705TIP3   OH265529   0.810   3.712   4.551  0.0460  0.3346  0.1427
14705TIP3    H165530   0.717   3.713   4.572 -0.4764 -0.5178 -1.9355
14705TIP3    H265531   0.819   3.644   4.485  2.4328 -0.7469  1.4441
14706TIP3   OH265532   5.784   2.098   0.356 -0.2173 -0.0922 -0.0901
14706TIP3    H165533   5.698   2.117   0.393 -0.6936 -0.0602 -1.1646
14706TIP3    H265534   5.796   2.165   0.289  0.1023 -0.8206 -0.7823
14707TIP3   OH265535   4.155   3.349  13.503  0.6556 -0.4325  0.4530
14707TIP3    H165536   4.176   3.283  13.569  1.0040 -0.3161  0.4599
14707TIP3    H265537   4.152   3.301  13.420 -0.0167 -0.6212  0.5820
14708TIP3   OH265538   2.077   4.016  12.010 -0.6621 -0.9183 -0.4735
14708TIP3    H165539   2.118   3.930  12.012 -1.5268 -1.4017 -2.0009
14708TIP3    H265540   2.121   4.065  12.080  0.6657 -2.2114 -0.3476
14709TIP3   OH265541   4.141   2.836  17.065 -0.6938  0.0936  0.2652
14709TIP3    H165542   4.234   2.849  17.046 -0.8369 -0.4868 -0.8704
14709TIP3    H265543   4.139   2.766  17.130 -0.4165 -1.2382 -1.1272
14710TIP3   OH265544   1.492   1.809   0.949  0.1051  0.0185 -0.1970
14710TIP3    H165545   1.546   1.828   1.026  0.8762 -1.2081 -0.4102
14710TIP3    H265546   1.428   1.744   0.979 -3.7235  3.8815  1.0217
14711TIP3   OH265547   6.718   5.494   1.670 -0.7564  0.3785 -0.2980
14711TIP3    H165548   6.757   5.410   1.696 -1.2784  0.0815 -0.4720
14711TIP3    H265549   6.631   5.493   1.710 -0.5587  1.0870  0.1801
14712TIP3   OH265550   1.219   2.191  12.113 -0.1557 -0.1449 -0.0886
14712TIP3    H165551   1.169   2.122  12.154 -0.5056 -0.8422 -1.6126
14712TIP3    H265552   1.175   2.207  12.030  0.5747  1.1306 -0.2675
14713TIP3   OH265553   0.243   2.808   2.914 -0.2335 -0.1648 -0.4939
14713TIP3    H165554   0.213   2.776   2.999 -0.9871  0.4995 -0.4965
14713TIP3    H265555   0.326   2.762   2.899 -0.7023 -1.2177  0.0280
14714TIP3   OH265556   3.619   1.448   0.877 -0.3715  0.0589 -0.1911
14714TIP3    H165557   3.693   1.491   0.920  0.2051 -0.7100 -0.3780
14714TIP3    H265558   3.542   1.476   0.926 -0.1434  1.9851 -0.8321
14715TIP3   OH265559   5.024   5.867  13.866 -0.3270 -0.6420  0.5527
14715TIP3    H165560   5.009   5.959  13.844  1.8590 -0.2387  0.5719
14715TIP3    H265561   5.057   5.828  13.785 -2.6285 -1.8250  0.1068
14716TIP3   OH265562   4.842   0.300  16.822  0.2867 -0.4484  0.3062
14716TIP3    H165563   4.929   0.286  16.786  0.6613 -0.3443  1.1363
14716TIP3    H265564   4.858   0.324  16.914 -0.6397 -1.0071  0.6242
14717TIP3   OH265565   4.010   0.232   4.903 -0.2552 -0.6404  0.0216
14717TIP3    H165566   3.999   0.143   4.938  0.5194 -1.1700 -1.0270
14717TIP3    H265567   4.104   0.240   4.889 -0.3184  0.3706  0.1297
14718TIP3   OH265568   0.600   5.011   2.784  0.4310 -0.0600  0.1163
14718TIP3    H165569   0.608   5.106   2.776 -0.5467  0.1585  1.4392
14718TIP3    H265570   0.510   4.996   2.815 -0.1948 -1.5694 -2.1719
14719TIP3   OH265571   5.895   2.165  12.712  0.1465  0.2425  0.1145
14719TIP3    H165572   5.924   2.078  12.685 -0.7933 -0.8431  2.3070
14719TIP3    H265573   5.830   2.190  12.646  2.0422  0.3463 -1.8065
14720TIP3   OH265574   1.445   2.937   0.889  0.2690 -0.1314  0.3213
14720TIP3    H165575   1.533   2.974   0.881 -0.1143  0.6905 -0.3038
14720TIP3    H265576   1.458   2.850   0.927  1.2493  0.4079  1.2641
14721TIP3   OH265577   5.309   1.173   0.530 -0.0404 -0.6386  0.1367
14721TIP3    H165578   5.401   1.164   0.552  0.1153 -0.9314 -0.5925
14721TIP3    H265579   5.270   1.220   0.604  0.8650  0.3050  0.0192
14722TIP3   OH265580   3.056   2.699  16.595 -0.4700  0.4834  0.2327
14722TIP3    H165581   3.118   2.752  16.645 -0.0783  0.1229  0.1309
14722TIP3    H265582   3.026   2.632  16.657 -1.2451  1.0309  0.4713
14723TIP3   OH265583   6.215   1.146   3.656 -0.3186 -0.2706 -0.1070
14723TIP3    H165584   6.214   1.070   3.714 -0.6106 -1.2709 -1.3589
14723TIP3    H265585   6.128   1.146   3.615  0.0349  0.1386 -0.8721
14724TIP3   OH265586   0.737   1.368  11.246 -0.4508 -0.0436  0.2315
14724TIP3    H165587   0.676   1.359  11.173 -0.0563  1.7353 -0.3572
14724TIP3    H265588   0.763   1.278  11.267 -1.6255 -0.6737 -0.9070
14725TIP3   OH265589   6.399   1.272  17.124  0.1251  0.0751 -0.2768
14725TIP3    H165590   6.394   1.298  17.032 -0.4009  0.4516 -0.1485
14725TIP3    H265591   6.463   1.332  17.162  0.0358  0.1917 -0.3091
14726TIP3   OH265592   0.858   3.196  14.743 -0.5933  0.0878 -0.4273
14726TIP3    H165593   0.885   3.278  14.702 -3.5757  0.5955 -1.6617
14726TIP3    H265594   0.857   3.215  14.837  1.5190  0.4963 -0.4402
14727TIP3   OH265595   2.580   5.582   1.430 -0.0213  0.2047  0.0375
14727TIP3    H165596   2.506   5.531   1.396  1.4131 -1.1826 -1.1603
14727TIP3    H265597   2.583   5.660   1.375 -1.2216  0.8168  0.7995
14728TIP3   OH265598   0.747   5.428   4.248 -0.9370  0.2074 -0.5334
14728TIP3    H165599   0.773   5.362   4.313 -0.9669  0.5435 -0.1764
14728TIP3    H265600   0.802   5.409   4.172  0.1689  0.7335  0.1128
14729TIP3   OH265601   5.590   4.979   1.119 -0.4613  0.4311  0.2292
14729TIP3    H165602   5.634   5.011   1.041 -1.7441  0.5932 -0.4535
14729TIP3    H265603   5.530   5.050   1.144 -1.0002 -0.1373  0.5846
14730TIP3   OH265604   2.407   6.673  16.364  0.4504 -0.0207  0.6845
14730TIP3    H165605   2.313   6.687  16.358  0.5047 -0.2308 -2.0427
14730TIP3    H265606   2.436   6.732  16.433 -1.2640  2.3772 -0.5024
14731TIP3   OH265607   6.031   6.146  15.528  0.3642 -0.0720  0.5766
14731TIP3    H165608   5.992   6.178  15.609  0.2197  1.7398 -0.1634
14731TIP3    H265609   5.977   6.071  15.503  1.3099 -1.6298  2.8989
14732TIP3   OH265610   4.700   5.663   2.882  0.1351  0.3829  0.0182
14732TIP3    H165611   4.645   5.653   2.804 -0.5808  0.0098  0.5611
14732TIP3    H265612   4.765   5.728   2.856 -0.6570  0.9620 -0.5911
14733TIP3   OH265613   0.551   4.562   1.460  0.1724 -0.0278 -0.6090
14733TIP3    H165614   0.610   4.614   1.405  0.8306  0.3285  0.4086
14733TIP3    H265615   0.593   4.560   1.545 -0.8355 -0.5732 -0.1041
14734TIP3   OH265616   0.296   0.275  11.622 -0.2696 -0.4877  0.0574
14734TIP3    H165617   0.223   0.305  11.568  0.2330  1.1076  0.2151
14734TIP3    H265618   0.261   0.272  11.711 -0.3389 -0.4414  0.0317
14735TIP3   OH265619   0.733   4.273  15.964 -0.2209 -0.0281 -0.0575
14735TIP3    H165620   0.740   4.350  16.021  0.4099  0.3594 -0.6443
14735TIP3    H265621   0.823   4.249  15.945 -0.4009 -1.1740  0.4418
14736TIP3   OH265622   5.665   2.195  16.017  0.3440 -0.1319  0.1954
14736TIP3    H165623   5.750   2.179  15.975 -0.1082  1.6929 -1.5583
14736TIP3    H265624   5.601   2.158  15.956 -0.2322  0.6157  0.3316
14737TIP3   OH265625   3.252   0.727  16.211  0.8880  0.0427 -0.3675
14737TIP3    H165626   3.284   0.644  16.178 -1.3823 -0.4918 -1.4446
14737TIP3    H265627   3.236   0.712  16.304 -0.4407 -1.0919 -0.7460
14738TIP3   OH265628   4.247   1.435   0.274 -0.2322 -0.3071 -0.4850
14738TIP3    H165629   4.286   1.426   0.361  0.5780 -2.8079 -1.0183
14738TIP3    H265630   4.178   1.368   0.271  0.6686 -1.2437 -2.1784
14739TIP3   OH265631   3.687   4.959  11.192  0.7775 -0.6093 -0.1604
14739TIP3    H165632   3.691   4.904  11.113 -0.5305 -0.8573 -0.0744
14739TIP3    H265633   3.640   4.905  11.256  0.7375  0.0651  0.3908
14740TIP3   OH265634   0.398   2.764   0.890 -0.1958 -0.4344  0.2324
14740TIP3    H165635   0.385   2.677   0.928  0.7704 -0.7516 -0.1352
14740TIP3    H265636   0.322   2.814   0.919 -2.9582 -2.4695 -2.7934
14741TIP3   OH265637   3.160   6.576   4.366  0.4631  0.5074  0.5047
14741TIP3    H165638   3.214   6.502   4.338 -2.4866 -1.9587  0.8108
14741TIP3    H265639   3.121   6.547   4.448 -1.1249  2.2628  0.4227
14742TIP3   OH265640   4.059   0.234  11.332 -0.3340  0.0759 -0.1386
14742TIP3    H165641   3.986   0.295  11.329 -0.5222 -0.1832 -1.9107
14742TIP3    H265642   4.046   0.176  11.256  0.6975 -1.1611  0.5721
14743TIP3   OH265643   6.180   6.142   3.913  0.2297  0.1825  0.0947
14743TIP3    H165644   6.212   6.166   4.000  2.0830 -0.0804 -0.4724
14743TIP3    H265645   6.101   6.194   3.901 -0.4322 -0.2482  2.1794
14744TIP3   OH265646   6.185   4.333  14.977  0.1602 -0.4221  0.2984
14744TIP3    H165647   6.124   4.337  14.904 -1.7310  0.5353  1.8358
14744TIP3    H265648   6.269   4.360  14.940 -0.6176 -0.4530 -1.6047
14745TIP3   OH265649   0.198   4.390  11.043  0.0326  0.0745 -0.0848
14745TIP3    H165650   0.114   4.422  11.078  0.4961 -0.3902  1.5139
14745TIP3    H265651   0.209   4.304  11.082  0.5574 -0.5185 -1.4805
14746TIP3   OH265652   3.735   1.504  16.246  0.3630  0.3709 -0.6587
14746TIP3    H165653   3.771   1.592  16.233  0.2645  0.2263 -2.1604
14746TIP3    H265654   3.641   1.515  16.232  0.4455 -0.0945 -1.7307
14747TIP3   OH265655   2.660   0.366   6.189  0.7071 -0.4633 -0.4061
14747TIP3    H165656   2.613   0.309   6.251  0.8507  1.4129  1.5331
14747TIP3    H265657   2.596   0.386   6.122 -0.3723 -0.3378  0.6260
14748TIP3   OH265658   3.708   2.152  14.165 -0.3934 -0.5008 -0.3076
14748TIP3    H165659   3.684   2.236  14.204 -0.3206 -0.0477 -1.1968
14748TIP3    H265660   3.626   2.115  14.134 -0.4066 -0.6896 -0.0490
14749TIP3   OH265661   0.492   2.633   0.414 -0.9592 -0.1514  0.5856
14749TIP3    H165662   0.516   2.602   0.501 -0.5140  0.1534  0.5746
14749TIP3    H265663   0.487   2.728   0.422 -2.1569 -0.1956  0.5752
14750TIP3   OH265664   5.384   3.714   5.209 -0.5849  0.0736 -0.3521
14750TIP3    H165665   5.442   3.643   5.238  1.3056  1.4364 -0.6257
14750TIP3    H265666   5.384   3.708   5.114 -0.4019  0.4683 -0.3763
14751TIP3   OH265667   4.496   5.155  11.301  0.2427 -0.0491 -0.3688
14751TIP3    H165668   4.584   5.168  11.267  0.1111 -0.6690 -0.9554
14751TIP3    H265669   4.487   5.221  11.371  1.1232  0.0856 -0.3786
14752TIP3   OH265670   3.064   2.915   2.655  0.2557  0.3438  0.4426
14752TIP3    H165671   3.118   2.874   2.722 -0.2124 -0.0896  0.5656
14752TIP3    H265672   3.123   2.929   2.581  0.3119 -1.0558  0.1940
14753TIP3   OH265673   3.116   0.121  12.620 -0.0801  0.2261  0.2943
14753TIP3    H165674   3.160   0.180  12.681 -0.4525  0.4906  0.3050
14753TIP3    H265675   3.168   0.040  12.624 -0.0611  0.2659  0.9031
14754TIP3   OH265676   1.631   3.594   4.298 -0.9920 -0.1881  0.3003
14754TIP3    H165677   1.714   3.561   4.265 -0.7111  0.2390  0.5516
14754TIP3    H265678   1.614   3.673   4.247  0.0043  1.1015  1.8568
14755TIP3   OH265679   5.675   1.119   5.053 -0.3949  0.8114  0.1389
14755TIP3    H165680   5.625   1.171   4.991  0.3317 -0.2666 -1.4231
14755TIP3    H265681   5.707   1.045   5.001  0.6835  0.1507  1.6868
14756TIP3   OH265682   4.155   3.743   2.573  0.0612  0.2767  0.0757
14756TIP3    H165683   4.147   3.800   2.497 -0.6495 -1.1962 -0.9868
14756TIP3    H265684   4.240   3.768   2.612  0.0431  1.6239 -0.6785
14757TIP3   OH265685   4.075   5.759   2.265 -0.1879 -0.2011  0.6631
14757TIP3    H165686   4.121   5.812   2.200  0.1592  0.5411  1.4765
14757TIP3    H265687   4.137   5.690   2.288 -1.2095 -1.9654 -1.5224
14758TIP3   OH265688   3.274   6.449  15.402  0.5486 -1.1538  0.5271
14758TIP3    H165689   3.258   6.469  15.309  0.5554 -0.1959  0.7265
14758TIP3    H265690   3.368   6.428  15.406  0.7799 -0.1425  0.4938
14759TIP3   OH265691   6.035   4.699  13.737 -0.4635  0.0443  0.4269
14759TIP3    H165692   6.037   4.616  13.690 -1.1007 -0.3248  1.0314
14759TIP3    H265693   5.942   4.716  13.752 -0.5813  2.1220 -1.8505
14760TIP3   OH265694   1.246   3.137  13.401 -0.0629 -0.5382 -0.2587
14760TIP3    H165695   1.226   3.072  13.334  2.3449 -0.5246 -1.0879
14760TIP3    H265696   1.326   3.104  13.443  0.3220  1.0855  0.3625
14761TIP3   OH265697   5.219   4.453  12.758 -0.3675  0.7722 -0.3520
14761TIP3    H165698   5.256   4.463  12.845  0.2624 -2.6468 -0.1061
14761TIP3    H265699   5.130   4.487  12.766 -1.3906 -2.0357  2.5709
14762TIP3   OH265700   5.730   5.496  12.965 -0.5146 -0.4641 -0.4311
14762TIP3    H165701   5.694   5.428  12.908  1.7178 -2.3658  0.2363
14762TIP3    H265702   5.812   5.522  12.921 -1.3343  1.9098 -0.6904
14763TIP3   OH265703   4.709   3.325   0.951 -0.3597  0.3313 -0.2307
14763TIP3    H165704   4.736   3.377   0.875  1.5290 -1.8414 -1.1736
14763TIP3    H265705   4.642   3.265   0.917 -0.7715  0.5175  0.2468
14764TIP3   OH265706   3.841   0.381   5.438 -0.0903  0.3252 -0.4384
14764TIP3    H165707   3.775   0.380   5.506  0.5468  0.4555  0.1991
14764TIP3    H265708   3.832   0.467   5.396 -0.0501  0.5062 -0.0781
14765TIP3   OH265709   3.712   5.597  14.932 -0.2069 -0.3693  0.3192
14765TIP3    H165710   3.802   5.567  14.938 -0.1835 -0.3326  0.1614
14765TIP3    H265711   3.685   5.613  15.022  0.0671 -0.0091  0.3352
14766TIP3   OH265712   6.027   5.844  12.755  0.0171 -0.0324  0.4409
14766TIP3    H165713   6.043   5.916  12.694  1.2849 -0.4175  0.2826
14766TIP3    H265714   6.114   5.812  12.778 -0.4215 -0.1047  2.2306
14767TIP3   OH265715   4.925   1.098   0.524 -0.1435  0.4061 -0.2639
14767TIP3    H165716   4.902   1.009   0.498 -0.6090  0.4287  0.0542
14767TIP3    H265717   5.017   1.093   0.549 -0.2605 -0.0584  0.0770
14768TIP3   OH265718   6.659   4.477   0.861 -0.1747 -0.2272 -0.1997
14768TIP3    H165719   6.611   4.430   0.929  0.5026 -0.2555  0.2696
14768TIP3    H265720   6.696   4.553   0.907 -0.6868  0.3954 -0.7949
14769TIP3   OH265721   1.652   0.865  16.524 -0.2797  0.9088 -0.1047
14769TIP3    H165722   1.592   0.924  16.569  0.6159  2.3580 -0.7583
14769TIP3    H265723   1.595   0.814  16.466 -1.4376 -0.9104  2.4411
14770TIP3   OH265724   0.009   2.996   2.486  0.5324  0.3867 -0.0414
14770TIP3    H165725   0.056   2.994   2.570  1.3582  0.5440 -0.4884
14770TIP3    H265726  -0.030   2.909   2.479 -0.0111  0.5559  0.7651
14771TIP3   OH265727   6.302   3.858   4.286  0.9220  0.2047 -0.0265
14771TIP3    H165728   6.288   3.937   4.233  0.7269  0.9660  1.1186
14771TIP3    H265729   6.390   3.870   4.323  1.0629 -0.3263 -0.1807
14772TIP3   OH265730   2.502   1.669  13.313  0.5579  0.0671 -0.9201
14772TIP3    H165731   2.433   1.713  13.263  0.7215 -1.5137 -2.7058
14772TIP3    H265732   2.570   1.734  13.324 -0.9588  1.5081  0.4094
14773TIP3   OH265733   0.646   2.954  14.468  0.1969  0.2884  0.0632
14773TIP3    H165734   0.714   2.942  14.403 -0.7330  0.4595 -0.9624
14773TIP3    H265735   0.566   2.920  14.428 -0.3458  0.1392  1.2140
14774TIP3   OH265736   1.188   0.833   5.136  0.6872  0.2151 -0.2461
14774TIP3    H165737   1.115   0.827   5.073 -0.1643  0.7074  0.6708
14774TIP3    H265738   1.186   0.923   5.166 -0.5192 -0.5785  2.3232
14775TIP3   OH265739   5.484   0.573  13.649  0.0978  0.3013  0.0238
14775TIP3    H165740   5.505   0.512  13.579  2.8717  1.2504 -0.0833
14775TIP3    H265741   5.434   0.521  13.712 -2.4437 -0.6008 -2.5035
14776TIP3   OH265742   0.691   6.642  12.061 -0.7503  0.5857  0.1229
14776TIP3    H165743   0.768   6.698  12.058  1.3799 -2.1373 -0.9838
14776TIP3    H265744   0.700   6.594  12.144 -2.1216  1.2813  0.7016
14777TIP3   OH265745   1.283   2.112  16.701  0.3496 -0.8277 -0.0984
14777TIP3    H165746   1.205   2.101  16.646 -0.0607 -1.9409  0.6621
14777TIP3    H265747   1.251   2.161  16.777  0.4973 -0.8750 -0.0071
14778TIP3   OH265748   2.555   2.231  14.118  0.1616  0.3913  0.0741
14778TIP3    H165749   2.567   2.287  14.194  0.6896 -1.3601  1.3559
14778TIP3    H265750   2.500   2.159  14.150 -0.7589  0.3130 -1.5818
14779TIP3   OH265751   2.205   5.360   0.313  0.7741  0.0675  0.3200
14779TIP3    H165752   2.214   5.286   0.373  0.9280  0.9341  1.4094
14779TIP3    H265753   2.162   5.428   0.365 -2.0603 -0.1684 -1.4728
14780TIP3   OH265754   5.375   6.472  12.381 -0.5768  0.1027  0.0859
14780TIP3    H165755   5.451   6.522  12.351  1.2501 -1.9558  1.0104
14780TIP3    H265756   5.319   6.537  12.424 -0.1457  1.9499 -1.9834
14781TIP3   OH265757   1.299   1.348  13.093 -0.5711 -0.1315  0.0317
14781TIP3    H165758   1.221   1.399  13.071  0.0371 -0.0792 -2.2492
14781TIP3    H265759   1.283   1.317  13.182 -1.8218  2.4075  0.7878
14782TIP3   OH265760   2.582   0.110  11.699 -0.4110 -0.4032  0.1487
14782TIP3    H165761   2.569   0.180  11.635 -0.4894  0.2386  0.8578
14782TIP3    H265762   2.627   0.041  11.650  0.9781  0.7065 -0.2035
14783TIP3   OH265763   2.384   0.556  12.964  0.1039  0.3222 -0.1268
14783TIP3    H165764   2.453   0.568  13.029  0.4338 -1.5614 -0.0911
14783TIP3    H265765   2.419   0.490  12.904 -0.4813  1.4990 -1.8321
14784TIP3   OH265766   4.586   6.366   1.221 -0.3483  0.9120 -0.1255
14784TIP3    H165767   4.526   6.326   1.157 -0.7679  0.4615  0.5339
14784TIP3    H265768   4.528   6.407   1.285 -0.0350 -0.7694  1.3301
14785TIP3   OH265769   6.056   0.943  15.323  0.1720  0.3137  0.5390
14785TIP3    H165770   6.030   0.853  15.305 -0.5251  0.7306 -0.6907
14785TIP3    H265771   5.974   0.990  15.333  0.5303  0.8001  1.2917
14786TIP3   OH265772   5.358   6.345   4.693 -0.4145 -0.3389  0.6968
14786TIP3    H165773   5.395   6.296   4.767  0.4980  0.2964  0.6756
14786TIP3    H265774   5.387   6.296   4.615  0.9045  0.4575  0.6520
14787TIP3   OH265775   4.966   1.490  15.648  0.0457  0.4209 -0.6738
14787TIP3    H165776   4.983   1.476  15.741  0.5096  2.6846 -0.3645
14787TIP3    H265777   4.895   1.429  15.627 -1.3687  1.1622  1.6124
14788TIP3   OH265778   4.138   3.054  16.487  0.1051 -0.3450 -0.1881
14788TIP3    H165779   4.066   3.002  16.451 -0.9462  0.3100  0.8809
14788TIP3    H265780   4.185   2.993  16.545  1.2411 -1.1374 -1.8754
14789TIP3   OH265781   1.885   6.154   0.020 -0.7022  0.4748 -0.0671
14789TIP3    H165782   1.953   6.188   0.078 -2.1025 -0.8920  2.5574
14789TIP3    H265783   1.926   6.151  -0.067  0.9723  4.1097  0.4523
14790TIP3   OH265784   1.547   0.543  12.821  0.0813  0.3820 -0.1154
14790TIP3    H165785   1.487   0.474  12.795  0.3257 -0.5277  1.5752
14790TIP3    H265786   1.593   0.568  12.741  0.1405 -1.5866 -0.7239
14791TIP3   OH265787   3.117   6.609   6.101  0.1150 -0.3974  0.8380
14791TIP3    H165788   3.059   6.663   6.047 -0.2778 -1.6675 -0.0618
14791TIP3    H265789   3.196   6.662   6.111  0.8676 -0.7366 -2.3955
14792TIP3   OH265790   2.766   4.184   4.774  0.4748 -0.0793 -0.1611
14792TIP3    H165791   2.810   4.099   4.775  0.3109 -0.1773 -0.8782
14792TIP3    H265792   2.830   4.244   4.813  0.5727 -0.5340  0.3820
14793TIP3   OH265793   4.477   3.690   2.974 -0.0850 -0.1705 -0.3858
14793TIP3    H165794   4.400   3.646   3.009  1.0123 -2.8206 -1.0688
14793TIP3    H265795   4.542   3.685   3.044 -0.2122  1.2469 -0.1386
14794TIP3   OH265796   2.604   4.031   2.390  0.0073 -0.3580 -0.2381
14794TIP3    H165797   2.573   3.947   2.355 -1.5893 -0.5502  1.4940
14794TIP3    H265798   2.525   4.082   2.406  0.9465  1.4776 -1.1520
14795TIP3   OH265799   1.824   1.549  11.949  0.2989 -0.0567 -0.2613
14795TIP3    H165800   1.792   1.489  12.016 -0.4067 -0.2177 -0.7258
14795TIP3    H265801   1.785   1.634  11.972 -0.7484 -0.3130 -0.9897
14796TIP3   OH265802   1.335   2.914   1.374  0.0247  0.3353 -0.4664
14796TIP3    H165803   1.358   2.978   1.306  0.4529  0.9203  0.2130
14796TIP3    H265804   1.240   2.915   1.378  0.0204  0.6973 -0.6800
14797TIP3   OH265805   2.222   0.061   0.755 -0.2871 -0.2062  0.3180
14797TIP3    H165806   2.270   0.123   0.811  0.4504 -0.1152 -0.4064
14797TIP3    H265807   2.149   0.031   0.810 -1.7238  2.6099  0.1683
14798TIP3   OH265808   4.885   0.911  12.136 -0.6751  0.1983  0.1746
14798TIP3    H165809   4.918   0.908  12.226 -0.2244  1.7109  0.0850
14798TIP3    H265810   4.947   0.966  12.090 -0.1498 -1.6209 -1.4255
14799TIP3   OH265811   3.024   0.708   4.090  0.3650  0.2295  0.4151
14799TIP3    H165812   2.978   0.755   4.021  1.6780  0.3924 -0.3741
14799TIP3    H265813   3.011   0.761   4.168  0.9168  1.3487 -0.2375
14800TIP3   OH265814   1.202   5.779  11.454 -0.3669  0.2643 -0.1782
14800TIP3    H165815   1.244   5.853  11.497 -0.4570 -0.2511  0.8059
14800TIP3    H265816   1.187   5.716  11.523  2.6937 -2.1496 -1.4833
14801TIP3   OH265817   5.786   4.571   6.165  0.2521  0.1780  0.0452
14801TIP3    H165818   5.740   4.645   6.206  0.7503 -0.2949  1.5210
14801TIP3    H265819   5.861   4.611   6.122  0.2402  0.5975  0.4019
14802TIP3   OH265820   0.808   0.096   3.578 -0.2341  0.1643  0.8546
14802TIP3    H165821   0.808   0.163   3.510  1.4050 -0.4374  0.2130
14802TIP3    H265822   0.849   0.020   3.537  0.5866 -0.2869  2.4369
14803TIP3   OH265823   2.614   5.470  16.082  0.4452 -0.0314  0.7474
14803TIP3    H165824   2.636   5.403  16.018 -0.3592  1.8202 -1.6374
14803TIP3    H265825   2.690   5.474  16.140  1.9780 -0.6437 -1.1297
14804TIP3   OH265826   6.449   0.548  13.938  0.8261  0.0164 -0.0353
14804TIP3    H165827   6.466   0.620  13.877  0.8368 -1.2669 -1.6228
14804TIP3    H265828   6.500   0.570  14.016  1.4198  1.3384 -0.7604
14805TIP3   OH265829   6.038   2.046   4.478 -0.1761 -0.2189  0.1321
14805TIP3    H165830   6.058   2.077   4.390 -0.8972 -0.8811 -0.2871
14805TIP3    H265831   5.966   2.101   4.507  0.9906  0.9422  0.8963
14806TIP3   OH265832   3.866   2.334  16.462  0.2618  0.0370 -0.2812
14806TIP3    H165833   3.850   2.247  16.427  0.3916  0.6850 -2.0406
14806TIP3    H265834   3.794   2.387  16.428  0.0033  0.5597  1.0342
14807TIP3   OH265835   0.489   1.898   5.374 -0.3614 -0.1273  0.0606
14807TIP3    H165836   0.488   1.889   5.470  0.0572  1.5947  0.2689
14807TIP3    H265837   0.534   1.981   5.359  0.4952 -0.8544 -1.6897
14808TIP3   OH265838   6.443   4.966  16.035  0.0459 -0.1036 -0.2230
14808TIP3    H165839   6.351   4.966  16.062  0.1662  0.8171  0.2071
14808TIP3    H265840   6.441   4.932  15.945 -0.4851 -2.0517  0.4666
14809TIP3   OH265841   2.914   6.662  16.509  0.3895 -0.9808 -0.2168
14809TIP3    H165842   2.891   6.592  16.448 -3.3645  0.8057 -1.0896
14809TIP3    H265843   2.832   6.707  16.527  2.3749  2.3691  1.4373
14810TIP3   OH265844   1.981   3.655   2.400 -0.0992 -0.1802  0.8192
14810TIP3    H165845   1.959   3.735   2.354  0.2215  1.5060  3.4016
14810TIP3    H265846   1.904   3.599   2.389 -1.9250  1.9402  1.9021
14811TIP3   OH265847   3.940   6.381   1.104 -0.5671  0.3311 -0.5733
14811TIP3    H165848   3.857   6.425   1.122 -0.6190 -0.1724  0.5108
14811TIP3    H265849   3.983   6.376   1.189 -0.5483 -1.6586 -0.6546
14812TIP3   OH265850   2.581   4.456   4.132 -0.4500 -0.1033 -0.5729
14812TIP3    H165851   2.508   4.516   4.118 -0.9287 -0.2555  1.0521
14812TIP3    H265852   2.539   4.370   4.144  0.1302 -0.5165 -1.4428
14813TIP3   OH265853   4.996   0.300   1.934  0.6708  0.1463 -0.4048
14813TIP3    H165854   5.041   0.379   1.966  0.8553  0.0469 -0.4181
14813TIP3    H265855   5.031   0.229   1.988  1.1186 -0.0528 -0.9406
14814TIP3   OH265856   0.875   0.793  12.520  0.4620 -0.6816  0.2028
14814TIP3    H165857   0.889   0.888  12.514 -2.0035  0.0463  3.2632
14814TIP3    H265858   0.921   0.768  12.600 -2.0073 -1.2108  1.5546
14815TIP3   OH265859   4.340   1.418   3.239 -0.3292 -0.5842  0.1866
14815TIP3    H165860   4.328   1.404   3.145  1.8488 -2.1639  0.0825
14815TIP3    H265861   4.252   1.409   3.276 -1.3081  0.4716 -1.6969
14816TIP3   OH265862   0.807   2.488   5.485 -0.1622 -0.4822 -0.5015
14816TIP3    H165863   0.723   2.475   5.529 -0.0067 -1.4028 -0.4579
14816TIP3    H265864   0.796   2.445   5.400 -0.2903  0.8421 -1.1880
14817TIP3   OH265865   5.525   3.370  17.031  0.3177 -0.0823 -0.3631
14817TIP3    H165866   5.617   3.396  17.041  0.4080 -0.6382  0.3744
14817TIP3    H265867   5.476   3.451  17.038  0.7903  0.3156 -1.4611
14818TIP3   OH265868   6.329   4.216   3.779 -0.0629 -0.2152 -0.4634
14818TIP3    H165869   6.237   4.188   3.784 -0.4575  1.2407  0.8807
14818TIP3    H265870   6.350   4.248   3.866  2.2265 -1.8901 -0.3077
14819TIP3   OH265871   6.392   6.397  13.413 -0.0507  0.1193 -0.1662
14819TIP3    H165872   6.306   6.399  13.454  0.0298  1.3149 -0.0128
14819TIP3    H265873   6.448   6.450  13.470  0.6518 -0.1921 -0.5470
14820TIP3   OH265874   5.709   5.973   5.138  0.1102  0.4689 -0.3329
14820TIP3    H165875   5.616   5.954   5.126 -0.0346  1.4709 -1.0583
14820TIP3    H265876   5.754   5.896   5.105 -0.4711 -0.1266  0.2581
14821TIP3   OH265877   0.849   1.341  17.020  0.0198  0.0604 -0.0247
14821TIP3    H165878   0.917   1.393  17.063 -0.6297 -0.4479  1.7180
14821TIP3    H265879   0.850   1.370  16.929  1.0760  1.6154  0.4475
14822TIP3   OH265880   3.548   4.307   5.876 -0.1562 -0.1637  0.0775
14822TIP3    H165881   3.621   4.254   5.846 -1.5615 -1.1713 -1.7716
14822TIP3    H265882   3.537   4.374   5.809 -0.9689 -0.0597  0.2976
14823TIP3   OH265883   0.656   1.198  15.348  0.2309 -0.0623  0.2075
14823TIP3    H165884   0.620   1.241  15.271  0.8250 -1.0168 -0.6174
14823TIP3    H265885   0.720   1.260  15.382  0.9545 -0.2059 -0.8691
14824TIP3   OH265886   5.043   3.726  11.808  0.0412 -0.6596  0.9859
14824TIP3    H165887   5.097   3.722  11.729 -3.5811  1.8761 -1.9586
14824TIP3    H265888   5.034   3.820  11.826 -2.0346 -1.0475  2.2535
14825TIP3   OH265889   4.793   5.949   2.828 -0.0790 -0.3139  0.3061
14825TIP3    H165890   4.826   6.035   2.854 -1.5482  0.3108  0.2363
14825TIP3    H265891   4.822   5.938   2.738 -1.7617  1.1733 -0.4926
14826TIP3   OH265892   4.371   1.362  12.774 -0.1498  0.4478 -0.6652
14826TIP3    H165893   4.277   1.351  12.782 -0.2957  0.9792 -1.5525
14826TIP3    H265894   4.385   1.382  12.681  0.9243 -0.5404 -0.7360
14827TIP3   OH265895   5.179   4.192   3.490 -0.1676 -0.2860  0.4998
14827TIP3    H165896   5.174   4.177   3.396 -0.4367  1.4735  0.1989
14827TIP3    H265897   5.267   4.226   3.505 -0.6609  1.0152  0.6012
14828TIP3   OH265898   5.800   5.157  15.402 -0.2278 -0.2310  0.3133
14828TIP3    H165899   5.873   5.188  15.457  0.0988 -0.4558  0.0064
14828TIP3    H265900   5.784   5.229  15.342  0.2086 -0.4577 -0.0795
14829TIP3   OH265901   5.953   3.487  15.172 -0.1472  0.4886  0.2590
14829TIP3    H165902   5.983   3.483  15.263 -0.7548  0.3362  0.4554
14829TIP3    H265903   5.916   3.401  15.155  0.5362  0.3021 -0.3419
14830TIP3   OH265904   4.073   3.536   4.401 -0.5238  0.0164 -0.2061
14830TIP3    H165905   4.148   3.594   4.418 -0.8423 -0.1747  2.2599
14830TIP3    H265906   4.111   3.459   4.361  0.4498  0.3860 -0.0273
14831TIP3   OH265907   5.918   6.680   3.412 -0.1196 -0.1188  0.0609
14831TIP3    H165908   5.952   6.601   3.455  1.4422 -0.0219 -0.9176
14831TIP3    H265909   5.994   6.738   3.406 -1.1805  1.3727  0.5174
14832TIP3   OH265910   6.332   1.245   1.181  0.4066 -0.0528 -0.3298
14832TIP3    H165911   6.261   1.284   1.233  1.4190  0.9263  0.3512
14832TIP3    H265912   6.386   1.319   1.154  1.5511 -0.8437 -0.2711
14833TIP3   OH265913   2.130   3.982   1.417 -0.4822 -0.8331  0.2192
14833TIP3    H165914   2.075   3.912   1.382 -0.9536  0.1239 -1.0594
14833TIP3    H265915   2.174   4.018   1.340  0.4491 -0.3162  0.9769
14834TIP3   OH265916   5.177   5.987   4.219  0.1970 -0.1340  0.4704
14834TIP3    H165917   5.258   6.038   4.222  0.2289 -0.2412  3.1228
14834TIP3    H265918   5.146   5.997   4.129  1.4699  2.5283  0.2427
14835TIP3   OH265919   4.040   1.751  15.307 -0.2214 -0.4954 -0.4072
14835TIP3    H165920   4.000   1.686  15.249 -0.8495  0.9083 -1.6137
14835TIP3    H265921   3.975   1.821  15.314  0.1008 -0.3350  1.5332
14836TIP3   OH265922   3.633   5.472   5.442  0.3110  0.2020 -0.2149
14836TIP3    H165923   3.725   5.449   5.432  0.0742 -0.3927 -1.1808
14836TIP3    H265924   3.633   5.555   5.488  1.3589  0.5865 -0.8860
14837TIP3   OH265925   2.295   2.132   5.824  0.4451 -0.7428 -0.8428
14837TIP3    H165926   2.228   2.065   5.833 -0.3926  0.1284 -0.3453
14837TIP3    H265927   2.375   2.084   5.803  0.3224 -2.0945  1.3871
14838TIP3   OH265928   3.041   2.231   3.887  0.1045  0.2023  0.0330
14838TIP3    H165929   3.018   2.143   3.916 -1.6379  0.9563  1.0902
14838TIP3    H265930   2.968   2.258   3.831 -0.4024  1.6925  1.3484
14839TIP3   OH265931   0.837   1.888   2.760  0.2111 -0.4609 -0.0230
14839TIP3    H165932   0.840   1.796   2.733 -1.2259 -0.3790 -0.5570
14839TIP3    H265933   0.744   1.904   2.778 -0.0220  1.6178 -2.5618
14840TIP3   OH265934   4.884   0.514  13.682 -0.2798  0.2262 -0.4440
14840TIP3    H165935   4.947   0.561  13.627  0.4443 -0.2433 -0.0248
14840TIP3    H265936   4.813   0.492  13.623 -0.6977  1.9290 -0.6492
14841TIP3   OH265937   1.038   5.699   0.077  0.2852 -0.0520 -0.2866
14841TIP3    H165938   1.124   5.738   0.092 -0.1491  1.2898 -1.1356
14841TIP3    H265939   1.039   5.676  -0.016 -1.9590  4.6039 -1.7418
14842TIP3   OH265940   1.763   5.660  11.972 -0.0518 -0.6141  0.1832
14842TIP3    H165941   1.769   5.753  11.947  1.6642 -0.7137  0.1020
14842TIP3    H265942   1.816   5.614  11.907  0.8482 -1.3946  1.4295
14843TIP3   OH265943   0.801   5.424   2.883  0.8067  0.3207  0.2655
14843TIP3    H165944   0.845   5.489   2.829 -1.2021  0.9674 -0.6782
14843TIP3    H265945   0.769   5.472   2.959  0.9059  0.0446  0.4868
14844TIP3   OH265946   6.351   4.570  10.927 -0.0522 -0.1550 -0.0702
14844TIP3    H165947   6.385   4.504  10.866 -1.0578  0.2588 -1.0924
14844TIP3    H265948   6.426   4.627  10.945  0.2177 -0.1874 -1.0438
14845TIP3   OH265949   0.889   2.675   1.687 -0.2640 -0.0453 -0.4589
14845TIP3    H165950   0.847   2.761   1.684  0.0479  0.1105 -0.3045
14845TIP3    H265951   0.852   2.633   1.765 -0.0789  0.1162 -0.2877
14846TIP3   OH265952   2.053   6.785   3.321 -0.4063  0.3342  0.1703
14846TIP3    H165953   2.044   6.821   3.409  0.6042  1.2307 -0.0678
14846TIP3    H265954   2.134   6.735   3.323  0.1665  1.2019 -0.5018
14847TIP3   OH265955   5.313   6.270  12.622  0.1144 -0.0870 -0.2937
14847TIP3    H165956   5.402   6.267  12.587  0.0334  1.2062 -0.6923
14847TIP3    H265957   5.290   6.363  12.620 -1.3479 -0.4187 -0.4814
14848TIP3   OH265958   0.384   4.047   1.641 -1.0459  0.1464 -0.0769
14848TIP3    H165959   0.449   4.088   1.584 -2.0702 -0.2141 -1.5667
14848TIP3    H265960   0.397   4.088   1.726  1.6216 -0.4358 -0.1072
14849TIP3   OH265961   6.549   6.536   3.826  0.3931 -0.0854  0.9416
14849TIP3    H165962   6.609   6.547   3.752  1.2224 -0.7059  1.5009
14849TIP3    H265963   6.486   6.471   3.797 -0.0906  0.6634  0.3008
14850TIP3   OH265964   5.749   4.894  14.583 -0.0277  0.4534 -0.3949
14850TIP3    H165965   5.677   4.855  14.633 -0.5821  2.1958  0.2725
14850TIP3    H265966   5.818   4.828  14.583 -1.2900 -0.9037 -0.2452
14851TIP3   OH265967   0.592   1.535  12.768 -0.4310 -0.4844 -0.1342
14851TIP3    H165968   0.542   1.527  12.686  0.1731 -0.0925 -0.5535
14851TIP3    H265969   0.537   1.590  12.824 -1.6641 -2.1566  0.4061
14852TIP3   OH265970   2.103   1.047  13.597  0.1640 -0.0268 -0.2433
14852TIP3    H165971   2.164   0.977  13.572  2.0091  1.9429 -1.5520
14852TIP3    H265972   2.159   1.117  13.630 -1.5104  1.3760 -0.2470
14853TIP3   OH265973   2.472   0.095  12.189  0.0065 -0.4547  0.2745
14853TIP3    H165974   2.527   0.094  12.110  0.8672 -1.3307  0.8638
14853TIP3    H265975   2.506   0.169  12.240 -0.7721  0.3240 -0.3098
14854TIP3   OH265976   3.276   1.751   6.142 -0.0886  0.0051  0.2601
14854TIP3    H165977   3.306   1.660   6.142 -0.9338 -0.3140 -1.3671
14854TIP3    H265978   3.195   1.749   6.193 -0.5395 -0.3311 -0.4538
14855TIP3   OH265979   2.345   1.744  11.001 -0.3967 -0.0597  0.2261
14855TIP3    H165980   2.438   1.742  11.025 -0.8105 -0.1831  1.9718
14855TIP3    H265981   2.344   1.760  10.907  1.3763  0.6869  0.3094
14856TIP3   OH265982   4.977   3.153  16.351 -0.5571  0.3629  0.4150
14856TIP3    H165983   4.889   3.170  16.316 -0.8058  1.4747  1.4987
14856TIP3    H265984   5.030   3.135  16.273 -1.1235  2.5533 -0.5753
14857TIP3   OH265985   5.150   6.188   1.251  0.3209 -1.0565  0.2095
14857TIP3    H165986   5.104   6.213   1.331  0.5049  2.0251 -0.5215
14857TIP3    H265987   5.225   6.138   1.281  1.2779  1.3773  2.1825
14858TIP3   OH265988   5.632   1.902  11.810  0.1573  0.2755 -0.2109
14858TIP3    H165989   5.596   1.814  11.823 -1.2976  1.0197  1.0416
14858TIP3    H265990   5.724   1.887  11.789  0.0366 -1.5378  0.3948
14859TIP3   OH265991   2.733   4.346  16.462 -0.5865  0.0213  0.5280
14859TIP3    H165992   2.813   4.331  16.411 -2.0730  0.1115 -2.0143
14859TIP3    H265993   2.748   4.428  16.509  0.2144  0.9535 -1.2646
14860TIP3   OH265994   5.852   4.979   6.675  0.7745 -0.1991  0.4682
14860TIP3    H165995   5.772   4.926   6.674 -0.2858  1.2574  2.1109
14860TIP3    H265996   5.831   5.055   6.620  1.2115 -0.0604  0.4950
14861TIP3   OH265997   1.588   1.325  12.102  0.3043 -0.0675 -0.1723
14861TIP3    H165998   1.646   1.390  12.139  0.5960 -0.7325  0.5725
14861TIP3    H265999   1.513   1.375  12.070 -0.1546  0.5183  1.6920
14862TIP3   OH266000   6.412   3.666   5.660  0.0251  0.1176 -0.6891
14862TIP3    H166001   6.388   3.721   5.585 -0.9772 -1.8153 -1.8621
14862TIP3    H266002   6.360   3.701   5.733 -0.0941  1.1108 -1.2308
14863TIP3   OH266003   3.312   0.035   2.780  0.0211  0.4090 -0.3239
14863TIP3    H166004   3.249   0.002   2.844  0.2386  1.9921  0.7702
14863TIP3    H266005   3.364  -0.042   2.757 -1.3535 -0.6184 -0.1441
14864TIP3   OH266006   3.156   2.817   0.821 -0.8316  0.0651 -0.2075
14864TIP3    H166007   3.209   2.892   0.794 -0.3315 -0.3493 -0.3763
14864TIP3    H266008   3.074   2.827   0.773 -1.1036  0.9600  0.4042
14865TIP3   OH266009   0.719   5.493  17.168  0.1854 -0.7895  0.2686
14865TIP3    H166010   0.793   5.437  17.145 -0.8818 -2.3129  0.4133
14865TIP3    H266011   0.689   5.528  17.084 -0.2140 -1.8450 -0.0434
14866TIP3   OH266012   2.548   5.639  13.384 -0.1107  0.4177 -0.0038
14866TIP3    H166013   2.639   5.660  13.362 -0.5286  0.7891 -1.5046
14866TIP3    H266014   2.549   5.545  13.402  0.6733  0.5378  0.6094
14867TIP3   OH266015   2.117   5.585   2.424  0.1195 -0.3419  0.4122
14867TIP3    H166016   2.066   5.513   2.463  0.4779  0.1565  1.8726
14867TIP3    H266017   2.104   5.575   2.330 -3.0323  0.0148  0.7063
14868TIP3   OH266018   0.960   4.703   3.099 -0.0230  0.4405 -0.3665
14868TIP3    H166019   1.007   4.658   3.028 -1.1823 -0.3924 -0.6406
14868TIP3    H266020   1.024   4.763   3.136  1.4056 -0.9850 -0.4108
14869TIP3   OH266021   2.567   2.458  14.807 -0.8825  0.1567 -0.2232
14869TIP3    H166022   2.540   2.375  14.767  0.1600 -0.6797  0.7303
14869TIP3    H266023   2.591   2.514  14.733 -4.1885  0.6500 -1.0782
14870TIP3   OH266024   6.649   6.576  12.902  0.6059  0.4422 -0.1761
14870TIP3    H166025   6.722   6.516  12.890  1.0898  1.1004 -0.5898
14870TIP3    H266026   6.571   6.521  12.898  1.1045 -0.3912  1.1613
14871TIP3   OH266027   6.339   1.263   5.750 -0.3634  0.4925  0.4755
14871TIP3    H166028   6.367   1.174   5.770 -0.5257  0.7924  2.2102
14871TIP3    H266029   6.251   1.253   5.712 -0.4877 -0.0833  0.9028
14872TIP3   OH266030   3.476   1.525   6.028  0.9737  0.0523 -0.2434
14872TIP3    H166031   3.460   1.562   5.941  0.1788  0.1710 -0.0500
14872TIP3    H266032   3.545   1.580   6.065  0.9130  0.3536 -0.5767
14873TIP3   OH266033   0.927   4.068   6.490 -0.1235 -0.5109 -0.3371
14873TIP3    H166034   0.973   4.145   6.457  0.3345 -0.9625 -0.7852
14873TIP3    H266035   0.836   4.080   6.464 -0.7446  1.4035  2.3383
14874TIP3   OH266036   6.224   4.026  15.838  0.2534  0.1949 -0.0122
14874TIP3    H166037   6.305   3.994  15.798  0.0828 -0.0262 -0.1810
14874TIP3    H266038   6.208   4.110  15.795 -0.3822 -0.4262 -1.0277
14875TIP3   OH266039   1.710   3.938   0.306  0.2231 -0.4444  0.7123
14875TIP3    H166040   1.686   3.939   0.213  0.5060 -2.6152  0.5486
14875TIP3    H266041   1.639   3.984   0.350  0.9993  2.3131 -0.7163
14876TIP3   OH266042   2.820   4.228   0.609 -0.7675  0.4507  0.3263
14876TIP3    H166043   2.744   4.171   0.620 -0.5453  0.1528  0.3413
14876TIP3    H266044   2.886   4.192   0.668 -0.0852 -0.2446 -0.8110
14877TIP3   OH266045   0.263   0.415   4.518  0.2872 -0.1862  0.5309
14877TIP3    H166046   0.356   0.435   4.509 -0.0309  0.7569 -0.8983
14877TIP3    H266047   0.256   0.323   4.492  0.9688 -0.6210  1.8022
14878TIP3   OH266048   1.729   2.360  12.996 -0.0253 -0.1752 -0.2615
14878TIP3    H166049   1.654   2.358  13.054 -0.1301 -3.0521 -0.3549
14878TIP3    H266050   1.692   2.374  12.909 -0.2963  0.0058 -0.1153
14879TIP3   OH266051   0.655   3.771   6.517 -0.0599 -1.0082  0.5106
14879TIP3    H166052   0.651   3.842   6.582  0.7699  0.3125 -0.8311
14879TIP3    H266053   0.719   3.709   6.553  0.2918 -0.3662  1.0086
14880TIP3   OH266054   2.717   4.207  17.091 -0.4353 -0.5632 -0.3451
14880TIP3    H166055   2.700   4.116  17.113  0.8848 -0.7496  0.0032
14880TIP3    H266056   2.762   4.203  17.006  2.6012 -0.5406  1.1298
14881TIP3   OH266057   1.375   4.612  15.405  0.3214  0.1580  0.4201
14881TIP3    H166058   1.359   4.548  15.335 -1.2701 -0.3007  1.1598
14881TIP3    H266059   1.462   4.590  15.439  0.0880 -1.1727  0.1992
14882TIP3   OH266060   0.904   0.791  11.739 -0.1124  0.2363 -0.2486
14882TIP3    H166061   0.939   0.782  11.828  0.8921 -0.7370 -0.7143
14882TIP3    H266062   0.844   0.717  11.729  1.0822 -0.6886 -0.9309
14883TIP3   OH266063   5.504   4.293  14.071  0.0400 -0.0787 -0.1000
14883TIP3    H166064   5.584   4.335  14.101  0.0484 -0.6991  0.7937
14883TIP3    H266065   5.510   4.203  14.103 -0.5325 -0.4270 -0.9229
14884TIP3   OH266066   3.294   4.920  12.088  0.2750  0.1311  0.2641
14884TIP3    H166067   3.228   4.851  12.089  1.1996 -0.8237  2.9248
14884TIP3    H266068   3.377   4.873  12.077  0.7550  1.0547 -0.1810
14885TIP3   OH266069   3.430   3.858  13.974  0.3159  0.6644 -0.0988
14885TIP3    H166070   3.479   3.924  14.023 -1.0437  1.2403  0.5508
14885TIP3    H266071   3.497   3.800  13.938  1.4434  1.1366  1.1446
14886TIP3   OH266072   6.787   3.900  11.288 -0.5019  0.3997 -0.0346
14886TIP3    H166073   6.882   3.894  11.300 -0.6022  1.7860  1.9695
14886TIP3    H266074   6.751   3.864  11.369 -1.7826 -1.4729 -1.3571
14887TIP3   OH266075   3.606   6.753  11.696  0.3757  0.3692  0.7868
14887TIP3    H166076   3.583   6.811  11.769  1.1941 -1.0487  2.2516
14887TIP3    H266077   3.529   6.697  11.685  0.4270  0.2817  0.8747
14888TIP3   OH266078   4.147   2.466  15.650 -0.0305  0.4083 -0.4829
14888TIP3    H166079   4.141   2.446  15.557  2.8973  0.3257 -0.7324
14888TIP3    H266080   4.122   2.385  15.694 -0.7636  0.2440 -1.1885
14889TIP3   OH266081   4.612   1.547   0.196 -0.1080  0.0693  0.3098
14889TIP3    H166082   4.535   1.603   0.189  0.4213  0.7945  0.1567
14889TIP3    H266083   4.610   1.493   0.118 -0.2710  0.3351  0.1284
14890TIP3   OH266084   0.011   2.475   2.061  0.1471  0.1049 -1.1245
14890TIP3    H166085  -0.061   2.431   2.106  1.3105  0.2216  0.9313
14890TIP3    H266086   0.001   2.448   1.969 -0.9338 -2.0536 -0.4465
14891TIP3   OH266087   1.456   2.157   0.127  0.1394  0.3755 -0.1271
14891TIP3    H166088   1.426   2.198   0.046 -1.2025  1.0899  0.7016
14891TIP3    H266089   1.495   2.229   0.177  1.7798 -0.2204 -0.4562
14892TIP3   OH266090   1.920   2.870   0.844  0.1792  0.3089  0.3903
14892TIP3    H166091   1.998   2.827   0.809  0.2993  0.3242  0.6373
14892TIP3    H266092   1.852   2.854   0.779  0.3703  0.2308  0.2111
14893TIP3   OH266093   0.778   2.681  14.739  0.3636 -0.4065  0.1570
14893TIP3    H166094   0.861   2.673  14.786 -0.2948  1.5245  1.7950
14893TIP3    H266095   0.762   2.775  14.735 -2.0360 -0.7365  0.4605
14894TIP3   OH266096   5.400   6.548  14.137 -0.3444 -0.0631  0.3382
14894TIP3    H166097   5.393   6.463  14.181  1.0368  0.6319  2.0106
14894TIP3    H266098   5.494   6.561  14.127 -0.5766  0.4781 -1.5988
14895TIP3   OH266099   2.341   2.203  12.937  0.5707 -0.2069  0.7462
14895TIP3    H166100   2.283   2.203  13.013  1.1073 -0.7628  1.1687
14895TIP3    H266101   2.429   2.218  12.973  0.9174 -1.1012  0.3212
14896TIP3   OH266102   2.518   3.714  12.042 -0.6019  0.5002 -0.0278
14896TIP3    H166103   2.573   3.788  12.018 -1.6154  0.3869 -3.1530
14896TIP3    H266104   2.460   3.702  11.967 -0.9788 -3.0135  0.6592
14897TIP3   OH266105   6.436   3.115   3.999 -0.0576  0.0060  0.2526
14897TIP3    H166106   6.520   3.161   3.988  0.2334 -0.3988  0.7116
14897TIP3    H266107   6.458   3.039   4.054  0.2126 -2.6982 -3.2786
14898TIP3   OH266108   6.292   4.322  16.747 -0.6239 -0.6747 -0.1992
14898TIP3    H166109   6.349   4.382  16.700 -0.1019 -0.5470  0.5897
14898TIP3    H266110   6.351   4.256  16.784 -0.8411  0.0543  1.5321
14899TIP3   OH266111   0.032   5.246  11.688  0.1021  0.2349 -0.2339
14899TIP3    H166112   0.089   5.179  11.649  0.3226  1.3441 -1.9492
14899TIP3    H266113  -0.057   5.212  11.676  0.2501 -0.0589 -0.5152
14900TIP3   OH266114   3.896   2.417   3.293 -0.0041 -0.4889  0.5556
14900TIP3    H166115   3.988   2.391   3.290  0.0001 -0.5822  1.2319
14900TIP3    H266116   3.851   2.349   3.244  0.5362  0.8957 -2.0381
14901TIP3   OH266117   6.138   1.280  11.928 -0.0157  0.0598 -0.3964
14901TIP3    H166118   6.189   1.360  11.931  1.4704 -0.8793  0.3906
14901TIP3    H266119   6.141   1.253  11.836 -1.0484  1.1976 -0.7889
14902TIP3   OH266120   0.643   2.543   0.893 -0.1780 -0.0462 -0.6476
14902TIP3    H166121   0.648   2.618   0.952  0.7933 -1.0156  0.5699
14902TIP3    H266122   0.692   2.474   0.938  0.5516 -0.8579 -2.5695
14903TIP3   OH266123   2.830   1.691   0.143 -0.1160  0.4991 -0.2990
14903TIP3    H166124   2.739   1.703   0.115 -1.3239 -0.2687  2.8787
14903TIP3    H266125   2.840   1.597   0.157  0.9183  0.6641  0.2149
14904TIP3   OH266126   6.534   1.618   1.131  0.0040  0.3715 -0.4060
14904TIP3    H166127   6.576   1.627   1.045 -0.3994 -1.4528 -0.8190
14904TIP3    H266128   6.527   1.708   1.163  0.7323  1.0334 -2.0023
14905TIP3   OH266129   1.242   0.440  13.159  0.8616 -0.4313 -0.2632
14905TIP3    H166130   1.234   0.345  13.156 -0.9956 -0.3832  1.1176
14905TIP3    H266131   1.312   0.456  13.222 -0.3221 -0.9189  1.2362
14906TIP3   OH266132   1.503   4.287  16.204 -0.1318 -0.0164  0.5132
14906TIP3    H166133   1.469   4.375  16.219  1.4187  0.4465  1.4909
14906TIP3    H266134   1.468   4.235  16.276  1.6319  0.6089  1.9066
14907TIP3   OH266135   5.590   6.309   2.799  0.0359  0.0362 -0.3656
14907TIP3    H166136   5.637   6.227   2.789 -0.1765  0.0056 -1.1892
14907TIP3    H266137   5.634   6.353   2.872 -0.2604 -1.0810  0.5148
14908TIP3   OH266138   6.734   4.010  15.391  0.2672  0.0396 -0.3693
14908TIP3    H166139   6.764   3.932  15.343  2.1989 -0.2770  1.2076
14908TIP3    H266140   6.673   4.053  15.331 -0.6191 -2.4939 -1.4172
14909TIP3   OH266141   2.744   4.920   4.994  0.6312  0.3572 -0.0011
14909TIP3    H166142   2.787   4.905   4.910  0.9628  1.4357 -0.0373
14909TIP3    H266143   2.671   4.979   4.974  0.3305  0.1219  0.3759
14910TIP3   OH266144   5.647   3.458  16.349  0.7898 -0.0655 -0.7753
14910TIP3    H166145   5.593   3.380  16.341 -1.0904  1.1051  0.0167
14910TIP3    H266146   5.709   3.452  16.276 -0.2310 -1.5757 -1.5604
14911TIP3   OH266147   6.008   6.308   2.911 -0.2554 -0.4799  0.2599
14911TIP3    H166148   6.081   6.350   2.957 -1.1142  1.5531 -0.1299
14911TIP3    H266149   6.035   6.217   2.901  1.4649 -0.1749  1.6535
14912TIP3   OH266150   4.452   0.307   1.402 -0.1970 -0.5211  0.0338
14912TIP3    H166151   4.483   0.314   1.493 -0.6171 -0.9476  0.2153
14912TIP3    H266152   4.405   0.224   1.400 -0.4611 -0.3579 -0.4955
14913TIP3   OH266153   1.802   0.016   1.889 -0.0184 -0.1180  0.1179
14913TIP3    H166154   1.755  -0.057   1.849  0.7227 -0.9874  0.7921
14913TIP3    H266155   1.803  -0.004   1.982  0.0778  0.8274  0.3319
14914TIP3   OH266156   6.341   0.783  14.931  0.0839  0.2554  0.1244
14914TIP3    H166157   6.252   0.818  14.931  0.2357  0.7107 -1.2496
14914TIP3    H266158   6.396   0.859  14.913  0.5561 -0.3611 -1.2106
14915TIP3   OH266159   4.388   0.691  12.211  0.2000 -0.1785  0.2307
14915TIP3    H166160   4.470   0.706  12.164  0.7573  0.4677  1.3688
14915TIP3    H266161   4.371   0.597  12.201  1.7906 -0.5925  1.0854
14916TIP3   OH266162   4.310   2.253   5.976 -0.0894 -0.2977 -0.1883
14916TIP3    H166163   4.332   2.346   5.987  0.2575 -0.4171  0.1553
14916TIP3    H266164   4.388   2.207   6.008 -1.0941 -0.7581  1.7352
14917TIP3   OH266165   0.516   5.935   2.727 -0.3525  0.3814 -0.0385
14917TIP3    H166166   0.604   5.959   2.756 -1.7861  3.0082  2.8102
14917TIP3    H266167   0.466   5.923   2.808 -2.8352 -0.1612 -1.5221
14918TIP3   OH266168   6.357   3.949  12.445  0.0230  0.0810 -0.5089
14918TIP3    H166169   6.336   4.002  12.521  0.0950 -1.1009  0.3553
14918TIP3    H266170   6.277   3.950  12.392 -0.3668  0.0821  0.0738
14919TIP3   OH266171   3.773   4.283   2.278 -0.0497 -0.8776 -0.4911
14919TIP3    H166172   3.700   4.341   2.254 -0.6869 -2.1407 -1.7863
14919TIP3    H266173   3.738   4.230   2.349  0.4007  0.0233  0.4265
14920TIP3   OH266174   6.708   3.769   1.802  0.1612 -0.0421 -0.3123
14920TIP3    H166175   6.620   3.790   1.831  0.2666 -0.7173  0.5655
14920TIP3    H266176   6.765   3.804   1.871  0.5184 -0.3799 -0.4295
14921TIP3   OH266177   1.452   1.547   5.721 -0.2925 -0.1208 -0.0205
14921TIP3    H166178   1.492   1.568   5.806 -1.2284  0.5304  0.2743
14921TIP3    H266179   1.489   1.611   5.661  0.1257 -0.3814 -0.0534
14922TIP3   OH266180   2.388   4.224   1.996  0.2487 -0.0522 -0.7379
14922TIP3    H166181   2.357   4.144   2.038  1.7191 -0.2406  0.0503
14922TIP3    H266182   2.471   4.200   1.955  1.1945  1.2552  0.3023
14923TIP3   OH266183   1.861   2.355   4.610  0.1248 -0.4451  0.0980
14923TIP3    H166184   1.769   2.332   4.596 -0.1515  0.6367  0.0737
14923TIP3    H266185   1.899   2.277   4.651 -0.6908 -1.0688 -0.3095
14924TIP3   OH266186   6.609   0.170  15.970 -0.1458  0.5760 -0.2613
14924TIP3    H166187   6.524   0.208  15.993  0.5142  0.6320  2.3624
14924TIP3    H266188   6.616   0.091  16.023 -0.3724 -1.9641 -3.7207
14925TIP3   OH266189   3.356   5.954   2.668  0.5286 -0.1744  0.2875
14925TIP3    H166190   3.334   6.002   2.588 -1.2822 -0.8221  0.3568
14925TIP3    H266191   3.397   5.873   2.637 -0.2828 -0.4811 -0.0161
14926TIP3   OH266192   5.904   2.875   6.096 -0.6865 -0.3413 -0.4618
14926TIP3    H166193   5.858   2.792   6.111  0.2040 -1.1500 -1.9115
14926TIP3    H266194   5.947   2.894   6.179 -0.3531 -1.7129 -0.2907
14927TIP3   OH266195   2.777   0.046  15.637  0.6456 -0.0552  0.4141
14927TIP3    H166196   2.745   0.127  15.678  1.6772  0.4417  0.2547
14927TIP3    H266197   2.852   0.073  15.585  0.0512 -0.8681 -0.9305
14928TIP3   OH266198   2.477   1.462  13.763  0.4672 -0.2870  0.7185
14928TIP3    H166199   2.508   1.376  13.792  1.8852 -0.1229 -0.1869
14928TIP3    H266200   2.469   1.513  13.843  0.4749 -1.0049  1.1885
14929TIP3   OH266201   2.253   0.890  14.224  0.4785 -0.1157 -0.1103
14929TIP3    H166202   2.186   0.822  14.223 -0.7444  0.8983  2.5993
14929TIP3    H266203   2.257   0.920  14.133 -0.5515 -2.2373 -0.9289
14930TIP3   OH266204   1.666   1.790   0.316 -0.4913  0.6378 -0.0911
14930TIP3    H166205   1.615   1.857   0.362 -3.0591 -0.2607 -1.4505
14930TIP3    H266206   1.601   1.738   0.269  1.5765 -1.6151 -0.6731
14931TIP3   OH266207   2.588   0.219   4.046 -0.7707  0.1393 -0.9438
14931TIP3    H166208   2.550   0.260   3.969 -1.2661 -1.1690 -1.4261
14931TIP3    H266209   2.512   0.196   4.101 -0.3895  1.8617  0.3933
14932TIP3   OH266210   3.947   1.468  11.040  0.0819  0.0773 -0.5316
14932TIP3    H166211   3.970   1.478  10.948 -0.0719  0.1710 -0.5607
14932TIP3    H266212   3.988   1.386  11.066  1.6653  0.9438 -0.1925
14933TIP3   OH266213   2.422   5.866  12.876 -0.0884  0.0244 -0.1988
14933TIP3    H166214   2.509   5.832  12.855 -0.3047 -0.5727 -0.1537
14933TIP3    H266215   2.416   5.858  12.971 -0.2953 -0.1852 -0.2303
14934TIP3   OH266216   5.037   5.770   4.666  0.5628  0.2479  0.4971
14934TIP3    H166217   4.998   5.714   4.734  0.5970  0.3065  0.5649
14934TIP3    H266218   5.094   5.711   4.616 -0.4656 -0.1070 -0.3123
14935TIP3   OH266219   4.414   0.918  16.012 -0.5292 -0.1922  0.3259
14935TIP3    H166220   4.362   0.927  16.091 -1.1739  1.2211 -0.2120
14935TIP3    H266221   4.504   0.914  16.042 -0.4081  4.0074  1.1000
14936TIP3   OH266222   4.143   0.301  13.717  0.1215 -0.6011 -0.5115
14936TIP3    H166223   4.222   0.327  13.669 -0.7764  2.5211 -0.5244
14936TIP3    H266224   4.149   0.347  13.801 -1.1932 -1.1229 -0.0940
14937TIP3   OH266225   4.852   2.510   2.507 -0.2699  0.2651 -0.4045
14937TIP3    H166226   4.918   2.491   2.573  0.0173  0.7546 -0.5451
14937TIP3    H266227   4.890   2.477   2.425 -0.1857  0.5651 -0.4888
14938TIP3   OH266228   2.177   1.581  10.539 -0.0010 -0.1841  0.1756
14938TIP3    H166229   2.217   1.576  10.625 -0.9857 -0.4577  0.6355
14938TIP3    H266230   2.184   1.492  10.504  2.1261  0.3271 -0.8694
14939TIP3   OH266231   3.917   6.470   4.545  0.4987 -0.2067  0.0846
14939TIP3    H166232   3.888   6.439   4.459 -2.8975  0.7273  0.7570
14939TIP3    H266233   3.956   6.555   4.528  0.6855 -0.4274 -0.6217
14940TIP3   OH266234   2.702   4.576   1.214 -0.3913  0.2941 -0.4502
14940TIP3    H166235   2.635   4.531   1.163 -0.6733 -0.3315  0.4476
14940TIP3    H266236   2.751   4.506   1.256  2.1371  0.6102 -2.6219
14941TIP3   OH266237   0.638   2.298  14.908  0.6984 -0.0754  0.2327
14941TIP3    H166238   0.719   2.309  14.858 -0.0758  0.1361 -1.0231
14941TIP3    H266239   0.662   2.320  14.998  2.1521 -0.5427 -0.0226
14942TIP3   OH266240   2.328   2.845   5.348  0.4773  0.2187  0.0815
14942TIP3    H166241   2.260   2.849   5.414  1.2352  0.6474  0.8660
14942TIP3    H266242   2.403   2.804   5.392  1.7287  2.4739  0.2173
14943TIP3   OH266243   2.672   4.571   5.457  0.1253 -0.0468 -0.1645
14943TIP3    H166244   2.716   4.488   5.438 -0.2467 -0.0880 -0.8847
14943TIP3    H266245   2.608   4.549   5.525 -2.0667 -1.0539 -2.4081
14944TIP3   OH266246   4.213   6.531   0.423  0.1199  0.2080 -0.1709
14944TIP3    H166247   4.278   6.495   0.484  0.8454  4.3050  1.8053
14944TIP3    H266248   4.140   6.558   0.479 -0.2155  2.0081 -1.3978
14945TIP3   OH266249   4.018   5.091   1.037 -0.5082 -0.1098 -0.1534
14945TIP3    H166250   3.925   5.092   1.011 -0.7313 -1.4300  0.5200
14945TIP3    H266251   4.049   5.004   1.012  0.1293 -0.2424  1.0140
14946TIP3   OH266252   0.432   5.935  13.953  0.1928  0.2976  0.1004
14946TIP3    H166253   0.519   5.918  13.919  0.5185 -0.3198  1.1941
14946TIP3    H266254   0.444   6.002  14.021  0.2340 -1.4984  1.9793
14947TIP3   OH266255   0.339   5.195  10.601 -0.1974  0.3973 -0.4676
14947TIP3    H166256   0.346   5.219  10.693 -1.2331 -0.8832 -0.0358
14947TIP3    H266257   0.253   5.229  10.574 -1.4833 -2.2045  0.0274
14948TIP3   OH266258   0.564   0.579  14.589 -0.2939 -0.4105 -0.1189
14948TIP3    H166259   0.562   0.537  14.504  1.0382 -0.5635 -0.0917
14948TIP3    H266260   0.647   0.552  14.628  0.1927  1.4937  0.2682
14949TIP3   OH266261   2.565   3.476   0.208 -0.2367 -0.0896 -0.0981
14949TIP3    H166262   2.523   3.524   0.136 -0.3344 -1.4054 -0.9531
14949TIP3    H266263   2.559   3.535   0.283 -1.3775  0.7643 -0.8275
14950TIP3   OH266264   3.320   6.607   2.555 -0.0658  0.0741  0.3710
14950TIP3    H166265   3.243   6.659   2.577  0.4680 -0.1260  3.0588
14950TIP3    H266266   3.393   6.668   2.561  0.1633 -0.0812 -0.6506
14951TIP3   OH266267   3.305   5.975   0.212  0.6490 -0.5628  0.0529
14951TIP3    H166268   3.269   5.984   0.124 -0.8755  0.3329  0.7163
14951TIP3    H266269   3.240   5.923   0.259  0.6098  0.3589  1.0699
14952TIP3   OH266270   0.907   3.812   0.819  0.0311 -0.5135  0.0327
14952TIP3    H166271   0.916   3.763   0.737  1.0255  0.4751 -0.4804
14952TIP3    H266272   0.817   3.796   0.847 -0.1855 -1.2373 -1.0123
14953TIP3   OH266273   0.464   4.608   1.092  0.5123  0.1205  0.0783
14953TIP3    H166274   0.511   4.675   1.043 -0.3446  0.3875 -0.4064
14953TIP3    H266275   0.392   4.582   1.034 -2.1314  2.3350  2.1333
14954TIP3   OH266276   2.439   4.908   1.221  0.3565  0.2428  0.1776
14954TIP3    H166277   2.446   4.860   1.138  0.7204 -1.7116  1.2868
14954TIP3    H266278   2.447   4.841   1.289 -0.5910  1.7020  1.8166
14955TIP3   OH266279   4.510   5.177   3.088  0.1742 -0.3433 -0.5232
14955TIP3    H166280   4.469   5.262   3.107  2.2329  0.7670 -0.7403
14955TIP3    H266281   4.483   5.121   3.160 -1.5196  0.3677 -0.5552
14956TIP3   OH266282   5.064   0.138  15.553 -0.3014  0.2398  0.0886
14956TIP3    H166283   5.155   0.108  15.551 -0.2225  0.4995 -1.7118
14956TIP3    H266284   5.029   0.114  15.467 -2.0823 -0.2531  0.9186
14957TIP3   OH266285   5.052   2.279  11.603 -0.2190  0.1815 -0.5850
14957TIP3    H166286   5.001   2.199  11.591  1.5489 -0.8686 -1.4681
14957TIP3    H266287   5.112   2.259  11.675 -0.8705  1.3338  0.3153
14958TIP3   OH266288   3.907   1.999  16.633 -0.0509 -0.1833 -0.4824
14958TIP3    H166289   3.893   1.906  16.650 -0.5578 -0.2658 -1.2990
14958TIP3    H266290   3.867   2.015  16.548  0.0375  0.7846 -0.3641
14959TIP3   OH266291   2.510   1.844   4.244 -0.4720 -0.0804  0.1945
14959TIP3    H166292   2.590   1.839   4.296  0.2558 -0.3308 -0.9152
14959TIP3    H266293   2.515   1.769   4.184 -0.1932  1.3680 -1.7034
14960TIP3   OH266294   0.086   6.286   1.100  0.0595 -0.0288 -0.4316
14960TIP3    H166295   0.057   6.354   1.161 -0.5439 -0.7264  0.0742
14960TIP3    H266296   0.007   6.265   1.049  0.4391  0.2047 -1.1320
14961TIP3   OH266297   4.532   3.279   3.938  0.2199 -0.1607 -0.2544
14961TIP3    H166298   4.570   3.278   3.850  1.0591  3.5871 -0.0898
14961TIP3    H266299   4.437   3.277   3.923  0.3435  0.9798 -1.3091
14962TIP3   OH266300   0.591   2.770   1.274  0.4070 -0.0144  0.5272
14962TIP3    H166301   0.567   2.729   1.356 -0.2436 -2.3496 -0.7501
14962TIP3    H266302   0.510   2.810   1.242  0.1476 -0.8975  0.0595
14963TIP3   OH266303   3.435   1.935   1.070  0.1683 -0.3768  0.5636
14963TIP3    H166304   3.397   1.951   0.984  0.7885 -2.3441 -0.1264
14963TIP3    H266305   3.363   1.951   1.131 -0.2931  0.9976 -0.2972
14964TIP3   OH266306   2.290   0.583  11.414 -0.0684 -0.4377  0.5619
14964TIP3    H166307   2.311   0.502  11.366 -3.8811 -1.0135 -0.4219
14964TIP3    H266308   2.250   0.552  11.495 -0.6111  0.4827  0.6496
14965TIP3   OH266309   6.315   4.966   1.025  0.4603 -0.5271  0.1006
14965TIP3    H166310   6.365   4.887   1.003 -0.4027 -0.9149 -0.5395
14965TIP3    H266311   6.380   5.036   1.026  0.9250 -0.9043 -1.3842
14966TIP3   OH266312   4.128   0.095  11.067 -0.3497 -0.0193 -0.4738
14966TIP3    H166313   4.071   0.018  11.061 -0.8332  0.3788 -1.2273
14966TIP3    H266314   4.145   0.119  10.976  0.1708  0.4880 -0.2480
14967TIP3   OH266315   1.286   3.509  13.193 -0.0760 -0.7598  0.2634
14967TIP3    H166316   1.364   3.539  13.241 -0.2874 -1.7777  1.3039
14967TIP3    H266317   1.290   3.555  13.110  1.2107 -0.1785  0.6121
14968TIP3   OH266318   3.930   0.553  12.553 -0.0895  0.0876 -0.0492
14968TIP3    H166319   3.890   0.583  12.635 -2.7323 -1.7033 -0.5727
14968TIP3    H266320   4.016   0.520  12.580  0.5493  2.5946  1.3966
14969TIP3   OH266321   2.458   4.583  16.625  0.3039  0.8787 -0.2314
14969TIP3    H166322   2.397   4.656  16.608  0.9694  1.5489  0.1984
14969TIP3    H266323   2.464   4.578  16.720 -1.6267 -1.3647 -0.1419
14970TIP3   OH266324   2.260   6.303   4.037  0.0612  0.4600  0.2479
14970TIP3    H166325   2.189   6.334   3.981  1.7889 -0.3369 -2.5714
14970TIP3    H266326   2.217   6.245   4.101 -1.7681 -0.7672 -1.9551
14971TIP3   OH266327   4.624   2.012  10.734  0.2881  0.5555 -0.2720
14971TIP3    H166328   4.658   2.077  10.673  0.1910  0.9665  0.1051
14971TIP3    H266329   4.661   2.038  10.819 -0.0144  0.3103 -0.0640
14972TIP3   OH266330   3.584   2.510  13.638 -0.3186 -0.2235 -0.1850
14972TIP3    H166331   3.597   2.473  13.551  1.8866 -0.2464  0.1021
14972TIP3    H266332   3.652   2.470  13.692 -0.1639  1.5186  1.0036
14973TIP3   OH266333   0.235   5.645   5.253 -0.8856 -0.1777 -0.5253
14973TIP3    H166334   0.227   5.688   5.338 -0.1633  0.1464 -0.6098
14973TIP3    H266335   0.155   5.593   5.244 -0.9508 -0.2462  0.3673
14974TIP3   OH266336   0.768   5.335  13.303  0.0382 -0.5123 -0.0867
14974TIP3    H166337   0.775   5.427  13.275 -1.0882 -0.7994 -1.4727
14974TIP3    H266338   0.806   5.285  13.231  0.2626 -1.1547  0.4692
14975TIP3   OH266339   2.687   1.808   2.388  0.1148 -0.2810 -0.2130
14975TIP3    H166340   2.702   1.714   2.387 -1.1486 -0.5033  0.3019
14975TIP3    H266341   2.658   1.827   2.477 -0.2440  0.4852 -0.4849
14976TIP3   OH266342   5.677   0.190  14.701 -0.1035  0.0128  0.0922
14976TIP3    H166343   5.592   0.227  14.677  0.1463  1.0776  0.7848
14976TIP3    H266344   5.730   0.265  14.727 -0.3896 -0.9476  4.1205
14977TIP3   OH266345   4.147   1.786  14.516  0.3840  0.2822 -0.2054
14977TIP3    H166346   4.068   1.763  14.564  1.3932 -0.4862  1.1664
14977TIP3    H266347   4.195   1.704  14.507  0.4139  0.4717 -2.2548
14978TIP3   OH266348   0.870   5.536  14.526 -0.5511 -0.4734  0.3002
14978TIP3    H166349   0.912   5.617  14.555  1.7616 -0.3861 -2.7572
14978TIP3    H266350   0.796   5.565  14.472 -0.3459 -0.4116  0.0496
14979TIP3   OH266351   6.269   5.346   4.073 -0.0482 -0.0617  0.6026
14979TIP3    H166352   6.358   5.381   4.074 -0.5228  1.2107  0.3067
14979TIP3    H266353   6.270   5.280   4.004  0.7207 -0.2002  0.7402
14980TIP3   OH266354   2.215   4.387  11.320 -0.1902 -0.2737  0.2195
14980TIP3    H166355   2.202   4.469  11.271  1.1066  0.1551  0.5506
14980TIP3    H266356   2.220   4.414  11.411 -0.3406 -0.8112  0.3927
14981TIP3   OH266357   0.984   0.940  16.697  0.4953  0.1860  0.0873
14981TIP3    H166358   0.944   0.887  16.766 -0.3158  0.9739  0.2352
14981TIP3    H266359   0.974   0.887  16.617 -0.3241  0.1135  0.2274
14982TIP3   OH266360   5.467   5.337  11.515 -0.1965 -0.3082 -0.6723
14982TIP3    H166361   5.497   5.417  11.473  1.8575 -0.8270 -0.3073
14982TIP3    H266362   5.391   5.310  11.464  1.7173 -0.5211 -3.6587
14983TIP3   OH266363   2.558   1.925  16.544 -0.0776  0.3889 -0.1131
14983TIP3    H166364   2.528   2.013  16.568  1.5241  0.3735  2.3222
14983TIP3    H266365   2.496   1.896  16.478 -0.3917  3.5126 -1.3737
14984TIP3   OH266366   3.663   4.178  16.355  0.1931 -0.0615  0.5938
14984TIP3    H166367   3.632   4.122  16.284  0.0045 -0.6337  1.1269
14984TIP3    H266368   3.589   4.184  16.415  0.0048  1.2300  0.2783
14985TIP3   OH266369   2.624   0.949   4.967  0.1569 -0.4803 -0.5089
14985TIP3    H166370   2.701   0.911   4.925  1.3263  0.5087  0.6651
14985TIP3    H266371   2.554   0.939   4.903  1.2954 -1.2588 -1.6671
14986TIP3   OH266372   3.038   3.489  16.581 -0.3509 -0.6316  0.1417
14986TIP3    H166373   2.951   3.463  16.614 -0.0499 -2.5380 -0.4487
14986TIP3    H266374   3.031   3.480  16.486  0.1744  0.3171  0.0026
14987TIP3   OH266375   1.655   4.527   2.837  0.3988  0.4906  0.2448
14987TIP3    H166376   1.586   4.522   2.903  0.5455 -0.3018  0.3488
14987TIP3    H266377   1.610   4.558   2.758 -0.1960 -0.5369  0.1640
14988TIP3   OH266378   5.894   3.028  12.063 -0.2605 -0.1002 -0.1578
14988TIP3    H166379   5.892   3.042  12.157  0.0163  0.6828 -0.2567
14988TIP3    H266380   5.848   2.946  12.049 -1.0019  0.1775  0.5894
14989TIP3   OH266381   5.817   4.347   2.018 -0.2520  0.0519  0.0482
14989TIP3    H166382   5.849   4.265   1.979 -1.2891  0.0508 -0.8581
14989TIP3    H266383   5.870   4.415   1.976  0.7596 -0.1408  0.9601
14990TIP3   OH266384   1.565   5.220   0.068 -0.3418  0.2847  0.2078
14990TIP3    H166385   1.579   5.130   0.038  0.0783  0.7161 -0.9389
14990TIP3    H266386   1.628   5.272   0.018 -1.7406  1.4427 -0.4164
14991TIP3   OH266387   2.748   0.648  15.867 -0.0207 -0.2887 -0.1319
14991TIP3    H166388   2.712   0.733  15.843  0.4148 -0.0437  0.0634
14991TIP3    H266389   2.673   0.589  15.870 -0.0972 -0.3544 -2.1430
14992TIP3   OH266390   2.910   1.980   4.074 -0.6139  0.5891 -0.2507
14992TIP3    H166391   2.909   1.946   3.984 -0.8685 -0.2713  0.0711
14992TIP3    H266392   2.825   2.022   4.085  0.2688  2.8098 -1.1741
14993TIP3   OH266393   5.797   4.704   0.054 -1.2729 -0.2328  0.2065
14993TIP3    H166394   5.749   4.786   0.065 -0.4682  0.3901 -0.7544
14993TIP3    H266395   5.732   4.642   0.022 -1.2100  1.0057 -2.6101
14994TIP3   OH266396   6.370   0.556   1.542  0.2646 -0.2288 -0.6691
14994TIP3    H166397   6.436   0.601   1.595  0.9416  0.0827 -1.7385
14994TIP3    H266398   6.418   0.525   1.465 -0.5925 -1.0901 -0.8872
14995TIP3   OH266399   4.610   4.010   0.630 -0.1725 -0.3690 -0.0164
14995TIP3    H166400   4.698   4.036   0.658 -1.0404  1.4593  1.2077
14995TIP3    H266401   4.592   3.929   0.677  0.4737 -0.2048  0.5296
14996TIP3   OH266402   2.009   5.155   2.389  0.4292 -0.3739 -0.5541
14996TIP3    H166403   2.024   5.201   2.471 -0.5598 -0.3705 -0.3696
14996TIP3    H266404   1.932   5.101   2.405 -1.0855  1.1880 -2.1090
14997TIP3   OH266405   1.821   4.932  16.591  0.0007 -0.4028 -0.3761
14997TIP3    H166406   1.809   4.859  16.653  0.7449  1.7812  2.5728
14997TIP3    H266407   1.737   4.977  16.591  0.6751  0.9657  1.0626
14998TIP3   OH266408   4.188   1.244   4.280 -0.4693  0.0501 -0.4881
14998TIP3    H166409   4.244   1.274   4.209  0.5076  1.6096  0.8673
14998TIP3    H266410   4.247   1.201   4.342 -1.3115 -1.3776 -0.6178
14999TIP3   OH266411   4.927   4.568   5.682  0.3456 -0.5708 -0.6762
14999TIP3    H166412   4.977   4.494   5.651  0.5645  0.8739 -4.2050
14999TIP3    H266413   4.838   4.534   5.693  0.9843 -1.9405  0.6453
15000TIP3   OH266414   4.891   2.501   2.975 -0.4187  1.0990  0.1998
15000TIP3    H166415   4.821   2.445   3.009  1.2499 -3.5923 -3.0346
15000TIP3    H266416   4.855   2.537   2.894 -0.0335  1.2294  0.0868
15001TIP3   OH266417   6.145   1.439   5.388 -1.0647  0.2159 -0.7949
15001TIP3    H166418   6.062   1.438   5.436 -1.9551 -0.9586 -2.2928
15001TIP3    H266419   6.122   1.412   5.299  0.9407 -0.1930 -1.2333
15002TIP3   OH266420   6.316   4.577  10.542 -0.0181 -0.1198  0.1122
15002TIP3    H166421   6.249   4.557  10.476 -1.0105  0.6932  0.8378
15002TIP3    H266422   6.321   4.498  10.596 -0.1954 -0.2795 -0.1011
15003TIP3   OH266423   6.524   0.482   5.089  0.3170 -0.3622 -0.7846
15003TIP3    H166424   6.438   0.515   5.115 -0.4567 -2.1094 -0.9880
15003TIP3    H266425   6.556   0.546   5.025 -0.5543  0.6175 -0.2755
15004TIP3   OH266426   3.626   2.196   0.893 -0.5792  0.0535  0.3813
15004TIP3    H166427   3.596   2.269   0.839  1.4236  0.5115 -0.2157
15004TIP3    H266428   3.601   2.118   0.843 -1.5020  0.3572  0.3421
15005TIP3   OH266429   0.793   4.285   5.156 -0.4777 -0.7794 -0.1032
15005TIP3    H166430   0.759   4.195   5.164 -0.4750 -0.6519  1.8284
15005TIP3    H266431   0.773   4.325   5.240 -1.1008  1.2855 -1.1669
15006TIP3   OH266432   1.252   0.182  13.415 -0.4312 -0.4684 -0.2026
15006TIP3    H166433   1.243   0.113  13.481 -1.2151 -0.5154 -0.3482
15006TIP3    H266434   1.202   0.150  13.339 -0.0461 -0.1462 -0.5989
15007TIP3   OH266435   1.202   3.781  11.792  0.2708 -0.3984  0.2542
15007TIP3    H166436   1.252   3.755  11.714  1.5983  0.7411  0.6939
15007TIP3    H266437   1.263   3.834  11.843 -1.1294  0.3112  1.2492
15008TIP3   OH266438   3.150   2.772  16.328 -0.1456 -0.1750  0.4174
15008TIP3    H166439   3.120   2.862  16.340  2.1804  0.3846  2.8738
15008TIP3    H266440   3.117   2.725  16.405 -0.4284 -1.1875 -0.3016
15009TIP3   OH266441   0.646   5.305   0.156 -0.5575 -0.2864 -0.2988
15009TIP3    H166442   0.738   5.323   0.176 -0.3241 -1.4073 -0.2972
15009TIP3    H266443   0.627   5.359   0.079  0.1975 -0.3017 -0.5019
15010TIP3   OH266444   4.725   1.256   4.601  0.3167 -0.0891  0.0579
15010TIP3    H166445   4.717   1.206   4.520  1.0741 -1.8645  1.0130
15010TIP3    H266446   4.815   1.288   4.601  0.9189 -1.6673  1.0026
15011TIP3   OH266447   4.503   3.584   1.106  0.8648  0.1549 -0.4367
15011TIP3    H166448   4.441   3.651   1.135 -1.9850 -2.2196 -0.6224
15011TIP3    H266449   4.561   3.572   1.181  0.0362  1.2340  0.4211
15012TIP3   OH266450   1.361   1.607   5.005 -0.6258 -0.0289 -0.1445
15012TIP3    H166451   1.419   1.566   4.941  1.8811  0.8499  1.4593
15012TIP3    H266452   1.301   1.536   5.031  1.4273 -1.7703  0.0962
15013TIP3   OH266453   3.581   5.150   1.211 -0.3385 -0.4728  0.0883
15013TIP3    H166454   3.576   5.101   1.293  2.4179  0.2607  0.7940
15013TIP3    H266455   3.571   5.083   1.143 -0.4371 -1.4459  1.0264
15014TIP3   OH266456   6.267   5.166  12.709 -0.1861 -0.2741  0.0641
15014TIP3    H166457   6.260   5.108  12.785 -0.1860  0.2056  0.4374
15014TIP3    H266458   6.283   5.108  12.635  3.5890 -0.5704  0.9320
15015TIP3   OH266459   6.727   3.463  11.755 -0.2057  0.0637  0.1635
15015TIP3    H166460   6.814   3.429  11.774 -0.3272 -0.3146  0.0591
15015TIP3    H266461   6.678   3.387  11.725 -0.4674  0.3442 -0.1310
15016TIP3   OH266462   5.052   4.647  16.481  0.3681  0.1955  0.7897
15016TIP3    H166463   5.121   4.600  16.434  0.1241 -0.2810  0.9018
15016TIP3    H266464   5.022   4.714  16.420  0.6833  0.1722  0.6079
15017TIP3   OH266465   3.556   5.705   1.639 -0.1993 -0.4767 -0.6556
15017TIP3    H166466   3.498   5.629   1.642  0.8318 -1.2676  0.2036
15017TIP3    H266467   3.512   5.771   1.693 -0.4376 -0.9661 -0.2394
15018TIP3   OH266468   5.257   2.882  11.641  0.1282  0.3179  0.4502
15018TIP3    H166469   5.305   2.804  11.670  1.0805  0.8863  0.4080
15018TIP3    H266470   5.299   2.955  11.685 -0.0481  0.9311 -0.3724
15019TIP3   OH266471   4.791   6.150   4.725  0.2949 -0.6193 -0.3982
15019TIP3    H166472   4.787   6.246   4.721 -2.8464 -0.6034  0.3314
15019TIP3    H266473   4.813   6.124   4.635  0.4052  0.7694 -0.8012
15020TIP3   OH266474   4.817   2.725   1.776  0.1222 -0.4017 -0.0574
15020TIP3    H166475   4.788   2.635   1.787  1.0048 -0.5754  1.0765
15020TIP3    H266476   4.908   2.718   1.747  0.4399  0.1018  0.7667
15021TIP3   OH266477   2.416   3.193   0.745 -0.2187  0.6188 -0.6739
15021TIP3    H166478   2.472   3.233   0.812  1.0758 -2.5973  0.3631
15021TIP3    H266479   2.476   3.159   0.680 -1.0379 -1.3101 -0.4860
15022TIP3   OH266480   0.154   0.262   1.034 -0.5089  0.0734  0.3726
15022TIP3    H166481   0.215   0.335   1.027  0.0638 -0.2306  1.8814
15022TIP3    H266482   0.141   0.249   1.128 -0.6964 -1.6758  0.1471
15023TIP3   OH266483   2.088   3.551   2.078  0.2990  0.3564  0.2901
15023TIP3    H166484   1.994   3.557   2.094  0.2464  1.2304 -0.2500
15023TIP3    H266485   2.116   3.475   2.128 -0.7741 -0.2005  0.0866
15024TIP3   OH266486   0.408   1.023   3.739 -0.0675  0.1735  0.0818
15024TIP3    H166487   0.399   0.963   3.813 -0.3936 -0.8819 -0.7785
15024TIP3    H266488   0.461   0.974   3.675  0.5279  1.2046 -0.2369
15025TIP3   OH266489   0.719   5.067   4.319  0.1201 -0.2429  0.0131
15025TIP3    H166490   0.710   4.991   4.375 -2.1417 -0.2508 -0.2709
15025TIP3    H266491   0.724   5.141   4.379  0.0559 -0.4320  0.2515
15026TIP3   OH266492   0.964   5.231   2.961 -0.0060 -0.5500  0.2189
15026TIP3    H166493   0.917   5.154   2.992  0.2183 -0.7711  0.0071
15026TIP3    H266494   0.896   5.284   2.919 -0.4676  0.0918  1.6676
15027TIP3   OH266495   3.467   0.669  15.723 -0.1462 -0.5243  0.0337
15027TIP3    H166496   3.400   0.736  15.713  0.8538  0.4708 -0.2361
15027TIP3    H266497   3.457   0.637  15.812 -0.2493  0.4324  0.3743
15028TIP3   OH266498   0.961   5.486   3.932  0.7265 -0.2622 -0.0935
15028TIP3    H166499   0.956   5.416   3.867  0.3429 -0.9509  0.6578
15028TIP3    H266500   0.876   5.529   3.928 -0.6570 -2.5209  2.3288
15029TIP3   OH266501   1.656   4.228  11.581 -0.2600 -0.0397  0.4046
15029TIP3    H166502   1.575   4.186  11.609 -0.1003 -1.5526 -1.2239
15029TIP3    H266503   1.632   4.320  11.567 -1.7682 -0.5115 -0.3197
15030TIP3   OH266504   0.533   2.898   0.464 -0.5756  0.2000 -0.1998
15030TIP3    H166505   0.550   2.979   0.416  2.1944 -1.3645 -2.1611
15030TIP3    H266506   0.617   2.874   0.502 -1.4981 -1.3981  0.9718
15031TIP3   OH266507   3.466   1.060  11.785  0.2521  0.1681 -0.0719
15031TIP3    H166508   3.559   1.063  11.806  0.5410  1.8867 -1.3841
15031TIP3    H266509   3.451   1.136  11.730 -1.7078 -0.7145 -0.8695
15032TIP3   OH266510   1.161   1.481   1.385  0.1863  0.0932  0.0402
15032TIP3    H166511   1.253   1.479   1.358  0.6177  3.6505  0.7323
15032TIP3    H266512   1.113   1.482   1.302  0.4291 -4.3036 -0.3796
15033TIP3   OH266513   3.059   3.026   1.044  0.1330 -0.3244  0.0471
15033TIP3    H166514   2.976   3.044   1.001  0.3109 -0.2285 -0.2590
15033TIP3    H266515   3.090   2.944   1.003 -0.3368 -0.9606  0.9354
15034TIP3   OH266516   6.637   4.113   3.206  0.2413 -0.2153 -0.0812
15034TIP3    H166517   6.625   4.207   3.216  1.9373  0.1267 -0.9317
15034TIP3    H266518   6.637   4.098   3.112 -0.5084 -1.1520  0.0506
15035TIP3   OH266519   2.134   3.954   3.228  0.4318 -0.2868  0.0947
15035TIP3    H166520   2.158   4.046   3.217  0.8646 -0.2738  1.0619
15035TIP3    H266521   2.071   3.954   3.299 -0.7038 -0.5949 -0.8826
15036TIP3   OH266522   4.432   4.720   0.314 -0.0368  0.1963 -0.4264
15036TIP3    H166523   4.414   4.631   0.343 -0.2098  0.1118 -0.7999
15036TIP3    H266524   4.346   4.755   0.289 -0.1297  0.8084  0.6838
15037TIP3   OH266525   5.506   2.770  12.590 -0.0205  0.6642 -0.3929
15037TIP3    H166526   5.496   2.865  12.587 -1.3303  0.5460 -3.9409
15037TIP3    H266527   5.597   2.755  12.564 -0.0642  0.9086 -0.6897
15038TIP3   OH266528   3.593   1.860  12.760 -0.1089  0.3356 -0.4149
15038TIP3    H166529   3.579   1.914  12.682  2.5729  0.4565 -0.9080
15038TIP3    H266530   3.614   1.922  12.830  1.1485  0.0724 -0.5323
15039TIP3   OH266531   2.071   5.845   3.480 -0.3637  0.3546  0.1688
15039TIP3    H166532   2.092   5.789   3.404 -0.8829  0.4528 -0.0494
15039TIP3    H266533   1.976   5.838   3.489 -0.2266 -0.2446  1.2778
15040TIP3   OH266534   0.463   4.918   3.731 -0.1005 -0.0559  0.5996
15040TIP3    H166535   0.430   4.972   3.802  0.2414  0.3560  0.4527
15040TIP3    H266536   0.536   4.869   3.769  1.7701  2.0663 -0.0779
15041TIP3   OH266537   5.605   6.427  13.165  0.5038  0.7866 -0.2827
15041TIP3    H166538   5.692   6.389  13.170  0.0999 -0.0311  1.0482
15041TIP3    H266539   5.604   6.473  13.081  2.1721  0.7533 -0.3531
15042TIP3   OH266540   5.751   4.999   5.891 -0.0242  0.0816 -0.4529
15042TIP3    H166541   5.750   4.971   5.983  1.6887  0.2690 -0.3360
15042TIP3    H266542   5.663   4.981   5.859  0.1417 -2.7154  0.4099
15043TIP3   OH266543   3.369   2.693  15.842 -0.3084  0.5359 -0.2566
15043TIP3    H166544   3.431   2.628  15.875  0.0588  1.2298  0.4429
15043TIP3    H266545   3.284   2.667  15.878 -0.2277  0.2388 -0.2807
15044TIP3   OH266546   3.059   1.966   6.045  0.5805  0.3902  0.8925
15044TIP3    H166547   3.005   1.929   6.115 -0.7053 -0.5500 -0.5399
15044TIP3    H266548   3.048   2.061   6.053 -1.4781  0.2174  0.5182
15045TIP3   OH266549   6.699   3.680   6.015 -0.2856  0.1881  0.6191
15045TIP3    H166550   6.773   3.693   5.956 -1.4925  2.0051 -0.6115
15045TIP3    H266551   6.731   3.618   6.080  1.9621  0.1125 -0.4521
15046TIP3   OH266552   4.262   0.677  11.601 -0.1974  0.5593 -0.4179
15046TIP3    H166553   4.217   0.636  11.528 -0.5460  0.7796 -0.3316
15046TIP3    H266554   4.223   0.765  11.607 -0.3336  0.4660  0.1691
15047TIP3   OH266555   0.286   1.182  13.410  0.0051  0.3298  0.3719
15047TIP3    H166556   0.302   1.229  13.492 -2.7411  1.8973  0.1484
15047TIP3    H266557   0.292   1.089  13.433  2.3779  0.7293  1.5805
15048TIP3   OH266558   3.382   1.288   2.925 -0.1086  0.3060  0.7602
15048TIP3    H166559   3.345   1.218   2.980  1.4454 -1.6033 -0.4641
15048TIP3    H266560   3.465   1.309   2.967  0.5556 -0.3566 -0.1955
15049TIP3   OH266561   5.747   4.652  12.434  0.4229 -0.7138  0.0586
15049TIP3    H166562   5.815   4.606  12.385  0.3290 -0.6473 -0.1350
15049TIP3    H266563   5.672   4.592  12.433 -0.0146 -0.1767 -0.9966
15050TIP3   OH266564   0.024   4.099   2.968 -0.2613 -0.6458  0.2346
15050TIP3    H166565   0.068   4.170   3.014 -0.3151 -0.9501  0.7734
15050TIP3    H266566   0.002   4.135   2.882  1.0578 -0.5029 -0.0567
15051TIP3   OH266567   5.497   4.040   2.169  0.2786 -0.4645  0.0364
15051TIP3    H166568   5.590   4.027   2.151  0.9072  0.7100  2.0020
15051TIP3    H266569   5.482   4.133   2.148  0.2660  0.0676  2.1338
15052TIP3   OH266570   0.474   4.042  12.313 -0.3692  0.4096 -0.4222
15052TIP3    H166571   0.430   4.126  12.301  0.3430  0.7184 -0.9631
15052TIP3    H266572   0.566   4.061  12.293 -0.1226 -0.3929 -0.0788
15053TIP3   OH266573   4.882   6.705  12.630 -0.0716  0.3701  0.5539
15053TIP3    H166574   4.799   6.684  12.586  0.0509  0.5712  0.2174
15053TIP3    H266575   4.921   6.620  12.650  0.5276  0.2415 -0.9938
15054TIP3   OH266576   5.146   6.449  13.252  0.3284  0.3952  0.2672
15054TIP3    H166577   5.141   6.355  13.271  1.0971  0.1044 -0.8702
15054TIP3    H266578   5.060   6.483  13.276 -0.6452 -0.9609 -1.1076
15055TIP3   OH266579   1.037   5.361  11.601  0.2635  0.0721  0.7166
15055TIP3    H166580   1.120   5.355  11.553  1.0029 -0.8003  2.0527
15055TIP3    H266581   0.998   5.443  11.571  0.5414 -0.5740 -1.5790
15056TIP3   OH266582   1.606   6.176   0.051  0.1266 -0.7393 -0.6295
15056TIP3    H166583   1.576   6.236   0.118  0.0782 -0.6460 -0.7337
15056TIP3    H266584   1.702   6.175   0.060  0.2518  0.4398 -1.5270
15057TIP3   OH266585   5.256   6.539  12.646  0.2296 -0.1410  0.2743
15057TIP3    H166586   5.347   6.514  12.661  1.1765  1.9497 -1.3733
15057TIP3    H266587   5.260   6.634  12.632 -2.0642 -0.1545 -0.8924
15058TIP3   OH266588   5.072   0.885  16.720 -0.0501 -0.2925  0.4206
15058TIP3    H166589   5.149   0.835  16.748  0.8525  0.9646  0.2844
15058TIP3    H266590   5.067   0.957  16.782 -1.9591 -1.0742  1.2573
15059TIP3   OH266591   1.918   5.124  13.059  0.0324  0.0421 -0.1067
15059TIP3    H166592   1.984   5.096  13.123  0.3474 -0.9387 -0.8299
15059TIP3    H266593   1.962   5.190  13.006 -0.7742  2.2037  1.7327
15060TIP3   OH266594   5.595   3.470  11.151 -0.7742  0.5520  0.3487
15060TIP3    H166595   5.555   3.518  11.078  0.2709  1.3945  0.3062
15060TIP3    H266596   5.535   3.485  11.225  0.0195  2.8748  0.6248
15061TIP3   OH266597   4.228   1.284  16.910 -0.5655  0.0062 -0.1616
15061TIP3    H166598   4.157   1.258  16.852 -0.1103 -3.5427  0.6905
15061TIP3    H266599   4.276   1.350  16.860 -0.9643 -1.8657 -3.2950
15062TIP3   OH266600   4.864   5.773  15.073  0.2065  0.9152 -0.3313
15062TIP3    H166601   4.794   5.839  15.066  0.8083  1.6435  0.3873
15062TIP3    H266602   4.942   5.817  15.040  0.5871  0.5273  0.0364
15063TIP3   OH266603   3.036   5.964  14.809  0.2653  0.1210 -0.4662
15063TIP3    H166604   3.085   5.890  14.775  0.4742  0.3703 -0.7142
15063TIP3    H266605   3.094   6.039  14.796 -0.2067  0.4325 -0.8413
15064TIP3   OH266606   5.249   5.008   0.205  0.1370  0.2674 -0.0240
15064TIP3    H166607   5.202   4.962   0.136 -0.2542 -0.7146  0.8747
15064TIP3    H266608   5.187   5.013   0.278  1.1193 -0.3016  0.8773
15065TIP3   OH266609   0.585   6.401   0.379 -0.0738 -0.3001 -0.4861
15065TIP3    H166610   0.512   6.342   0.359  0.2780 -0.4213 -1.4810
15065TIP3    H266611   0.557   6.448   0.458 -1.4828  0.0845 -1.1706
15066TIP3   OH266612   6.535   2.410  13.420  0.2656  0.0608 -0.4938
15066TIP3    H166613   6.629   2.395  13.427  0.7620  2.6822 -0.3681
15066TIP3    H266614   6.523   2.501  13.448 -2.4098 -0.4067  0.1925
15067TIP3   OH266615   0.792   2.914  15.123 -0.1871 -0.5584  0.2345
15067TIP3    H166616   0.854   2.872  15.183  1.1849  2.2702  0.9622
15067TIP3    H266617   0.754   2.841  15.074  3.0839 -2.5305  0.3066
15068TIP3   OH266618   0.849   6.118   1.107 -0.0929  0.3117  0.0214
15068TIP3    H166619   0.781   6.126   1.174 -0.0829  1.8772 -0.1240
15068TIP3    H266620   0.808   6.154   1.028 -0.4620 -2.4029 -1.1340
15069TIP3   OH266621   0.934   1.936   3.650 -0.0434  0.0883  0.0579
15069TIP3    H166622   0.941   1.883   3.730  0.0876  1.1016  0.7334
15069TIP3    H266623   1.024   1.958   3.627 -0.1792  2.2192  1.3163
15070TIP3   OH266624   1.222   5.020  14.595  0.6618  0.3675  0.2830
15070TIP3    H166625   1.276   5.083  14.643  1.1536  0.1004  0.0846
15070TIP3    H266626   1.254   5.024  14.505  1.6768 -1.1723  0.5225
15071TIP3   OH266627   0.318   5.186   0.877  0.6448 -0.0444 -0.2134
15071TIP3    H166628   0.237   5.143   0.906  0.5022  0.1872 -0.2696
15071TIP3    H266629   0.309   5.192   0.782  0.7990 -0.1584 -0.2372
15072TIP3   OH266630   4.521   1.429   5.259 -0.4479 -0.9667  0.7805
15072TIP3    H166631   4.529   1.474   5.175  2.1886  0.4415  1.6555
15072TIP3    H266632   4.433   1.452   5.290 -0.3985  0.9361 -0.3138
15073TIP3   OH266633   5.917   2.493  12.466 -0.5559 -0.4098  0.6079
15073TIP3    H166634   5.901   2.417  12.409 -0.7239  0.1920 -0.1607
15073TIP3    H266635   5.929   2.455  12.553  0.5205 -1.4357  0.0542
15074TIP3   OH266636   3.755   4.236  11.470 -0.0305  0.0326 -0.4933
15074TIP3    H166637   3.845   4.269  11.476 -0.5606  1.5678 -0.3396
15074TIP3    H266638   3.732   4.246  11.377 -0.5537  1.1777 -0.2611
15075TIP3   OH266639   4.119   2.010   1.243 -0.3011  0.0118 -0.2554
15075TIP3    H166640   4.115   1.923   1.203 -0.0813  0.3967 -1.1377
15075TIP3    H266641   4.211   2.023   1.264 -0.4828 -0.3932  0.8761
15076TIP3   OH266642   1.058   2.912  14.604  0.6918 -0.2950 -0.0587
15076TIP3    H166643   0.970   2.935  14.573  0.5213  0.3447  0.8681
15076TIP3    H266644   1.050   2.821  14.633  0.3859 -0.2986 -0.1438
15077TIP3   OH266645   1.176   3.163   1.805 -0.5678 -0.2580 -0.4124
15077TIP3    H166646   1.185   3.212   1.723  1.0387 -1.0677 -0.7491
15077TIP3    H266647   1.251   3.104   1.807 -0.2821  0.0777  1.8993
15078TIP3   OH266648   4.989   1.038  13.499  0.2392 -0.3221 -0.7132
15078TIP3    H166649   4.918   1.034  13.435  0.0064 -1.0965 -0.4212
15078TIP3    H266650   5.006   1.131  13.510 -2.8985  0.1749  1.5233
15079TIP3   OH266651   2.013   5.979   2.918 -0.7004  0.2981 -0.0365
15079TIP3    H166652   2.100   5.951   2.949 -0.1063  0.1408 -1.7289
15079TIP3    H266653   1.977   5.900   2.876 -0.9964  0.7742 -0.6956
15080TIP3   OH266654   4.881   5.010   5.548 -0.0737  0.1870  0.4069
15080TIP3    H166655   4.926   5.091   5.570  1.3851 -0.4539 -0.1285
15080TIP3    H266656   4.820   5.035   5.479 -0.7664  1.1143  1.3236
15081TIP3   OH266657   1.190   2.680   2.774  0.4809  0.2037 -0.2005
15081TIP3    H166658   1.221   2.739   2.705 -0.6069 -0.3213 -1.1599
15081TIP3    H266659   1.098   2.665   2.754 -0.0982  0.6750  1.8315
15082TIP3   OH266660   2.260   6.455  11.286 -0.4050  0.1935  0.1069
15082TIP3    H166661   2.257   6.390  11.356 -0.5107  0.7420  0.6147
15082TIP3    H266662   2.353   6.471  11.271 -0.3107 -1.2938 -1.1762
15083TIP3   OH266663   6.263   4.193  13.158 -0.5680 -0.4322 -0.7968
15083TIP3    H166664   6.298   4.247  13.228  0.5162 -0.7179 -1.1038
15083TIP3    H266665   6.329   4.126  13.143 -1.2642 -1.0131 -1.3686
15084TIP3   OH266666   1.276   2.649  14.108  0.0515  0.5983  0.6685
15084TIP3    H166667   1.271   2.742  14.130 -1.0554  1.1210 -1.4806
15084TIP3    H266668   1.185   2.620  14.107 -0.1523  0.7623 -3.1193
15085TIP3   OH266669   0.525   4.869  13.666 -0.1879 -0.3155 -0.0609
15085TIP3    H166670   0.443   4.913  13.644  0.3686  0.8559  0.1290
15085TIP3    H266671   0.530   4.796  13.604 -1.6831 -0.8183  0.3635
15086TIP3   OH266672   1.116   6.056   2.105 -0.5996  0.2484 -0.5790
15086TIP3    H166673   1.143   6.071   2.015  1.2552  0.9318  0.0204
15086TIP3    H266674   1.166   5.979   2.133 -1.4539 -0.1994 -0.2384
15087TIP3   OH266675   0.120   6.424   3.108  0.5825 -0.7827  0.5977
15087TIP3    H166676   0.145   6.346   3.058  0.9271 -1.6887  2.1381
15087TIP3    H266677   0.203   6.460   3.140  0.5329  0.8091 -0.8453
15088TIP3   OH266678   0.760   5.678   3.913  0.5009 -0.3664 -0.1073
15088TIP3    H166679   0.747   5.708   4.003  0.2093 -1.4596  0.2281
15088TIP3    H266680   0.672   5.670   3.877  0.6006 -0.2964 -0.3661
15089TIP3   OH266681   6.618   6.171   3.317  0.2066 -0.2539  0.1432
15089TIP3    H166682   6.634   6.098   3.258 -1.9563 -1.0044  0.3968
15089TIP3    H266683   6.560   6.229   3.268 -0.2685 -0.0624  0.9089
15090TIP3   OH266684   3.657   5.912  13.507  0.2616  0.0987  0.4754
15090TIP3    H166685   3.619   5.898  13.420 -1.2852 -0.9458  1.2632
15090TIP3    H266686   3.749   5.933  13.490  0.5496 -2.1991 -1.3250
15091TIP3   OH266687   6.242   6.348  12.612  0.5638 -0.3426  0.2537
15091TIP3    H166688   6.163   6.360  12.561  2.5829 -0.7924 -3.3156
15091TIP3    H266689   6.290   6.430  12.602  0.7816 -0.2107  2.0497
15092TIP3   OH266690   6.177   5.656  15.643 -0.3424 -0.5754  0.3263
15092TIP3    H166691   6.189   5.582  15.702  0.8208 -1.0668 -0.4962
15092TIP3    H266692   6.265   5.682  15.618 -0.7816  0.0566 -0.6472
15093TIP3   OH266693   4.246   3.203  16.289  0.1471 -0.5822  0.2334
15093TIP3    H166694   4.233   3.298  16.299  0.6035 -0.1145 -2.6635
15093TIP3    H266695   4.211   3.165  16.370  1.9624  2.1696  2.4967
15094TIP3   OH266696   6.405   2.823   3.024  0.0635  0.2042  0.0285
15094TIP3    H166697   6.498   2.819   3.002 -0.1631 -1.9510 -0.8345
15094TIP3    H266698   6.387   2.916   3.036  2.0929  0.7603 -0.7800
15095TIP3   OH266699   6.351   2.028   0.531 -0.1896 -0.2823 -0.0082
15095TIP3    H166700   6.286   2.096   0.548  0.4356  0.4302 -0.3977
15095TIP3    H266701   6.388   2.051   0.446  1.2596 -0.1204  0.6508
15096TIP3   OH266702   2.207   3.595   4.053 -0.1511 -0.5731  0.4685
15096TIP3    H166703   2.256   3.580   3.972 -1.5402  0.8647 -0.7203
15096TIP3    H266704   2.270   3.578   4.123  1.6020 -0.2240 -0.9462
15097TIP3   OH266705   2.321   5.316   5.050  0.2835 -0.0137 -0.2144
15097TIP3    H166706   2.352   5.358   5.130 -0.9900 -0.8086  0.7181
15097TIP3    H266707   2.369   5.361   4.980  0.2829  1.7523  0.8554
15098TIP3   OH266708   6.577   5.517   4.629  0.3283 -0.7678  0.0325
15098TIP3    H166709   6.557   5.605   4.663 -0.6535 -1.6776  1.9930
15098TIP3    H266710   6.514   5.504   4.558  0.5304  0.1302 -0.3239
15099TIP3   OH266711   3.056   2.525   1.266  0.0773  0.2335 -0.2528
15099TIP3    H166712   2.963   2.535   1.283 -0.2468 -1.0680 -1.1033
15099TIP3    H266713   3.099   2.583   1.330 -1.2799  0.3895  0.5504
15100TIP3   OH266714   5.652   6.249   5.629  0.1955 -0.0137  0.5012
15100TIP3    H166715   5.568   6.202   5.625  1.4635 -2.3275 -1.9106
15100TIP3    H266716   5.669   6.276   5.539  2.8574 -1.2844  0.5351
15101TIP3   OH266717   2.722   0.761  14.986  0.0308  0.4010 -0.7336
15101TIP3    H166718   2.644   0.745  15.040  0.1164  0.8749 -0.4583
15101TIP3    H266719   2.731   0.683  14.932 -0.2276  0.0395 -0.2613
15102TIP3   OH266720   2.801   3.527   3.194 -0.4993 -0.3628 -0.2611
15102TIP3    H166721   2.791   3.609   3.146 -0.2216  1.3804  2.4494
15102TIP3    H266722   2.713   3.490   3.197 -1.6570  2.2555  2.3412
15103TIP3   OH266723   2.949   4.975   2.486 -0.3646  0.1995 -0.1505
15103TIP3    H166724   2.869   5.018   2.517 -0.9040 -1.2593  0.5868
15103TIP3    H266725   2.917   4.904   2.429  0.3792 -0.5719  0.3657
15104TIP3   OH266726   3.305   0.748   3.448  0.2637  0.3745 -0.5600
15104TIP3    H166727   3.295   0.770   3.356  1.6847 -1.8721 -1.3473
15104TIP3    H266728   3.218   0.718   3.475  0.2616 -0.7918 -1.7602
15105TIP3   OH266729   1.757   5.429   2.997  0.5619 -0.1139 -0.1628
15105TIP3    H166730   1.669   5.458   2.972  0.8350  0.5102 -0.4159
15105TIP3    H266731   1.772   5.471   3.082 -0.3259 -2.1429  1.0825
15106TIP3   OH266732   3.420   4.925   4.655 -0.2478  0.1955 -0.4355
15106TIP3    H166733   3.347   4.863   4.648  0.3370 -0.4442 -1.1361
15106TIP3    H266734   3.442   4.926   4.748 -1.7880  1.1731 -0.0629
15107TIP3   OH266735   5.127   4.998  12.849  0.1126  0.6179  0.1612
15107TIP3    H166736   5.072   4.993  12.771 -0.4984 -1.0460  0.6728
15107TIP3    H266737   5.085   5.066  12.902  0.3323  1.5148 -0.7687
15108TIP3   OH266738   2.087   0.457   3.340  0.0995  0.6815  0.2218
15108TIP3    H166739   2.049   0.499   3.263 -0.0747  1.8373  0.9184
15108TIP3    H266740   2.041   0.496   3.414  0.1819 -0.4939  0.9150
15109TIP3   OH266741   6.458   0.398  12.303  0.3489  0.1301  0.4240
15109TIP3    H166742   6.383   0.457  12.295 -0.0283 -0.5084 -0.9011
15109TIP3    H266743   6.461   0.377  12.396 -3.0191 -2.2485  0.1689
15110TIP3   OH266744   1.381   5.114  12.480 -0.0787 -0.1243  0.5035
15110TIP3    H166745   1.330   5.050  12.530  0.2246 -2.8339 -2.3500
15110TIP3    H266746   1.472   5.090  12.497  0.0647  0.1517  0.1197
15111TIP3   OH266747   5.889   3.277  15.031  0.0760  0.6361 -0.4438
15111TIP3    H166748   5.827   3.218  15.073  1.0010 -1.3369 -1.7209
15111TIP3    H266749   5.849   3.296  14.946 -0.8042  2.9390  0.4096
15112TIP3   OH266750   6.280   3.293   1.875  0.1276  0.2060  0.7628
15112TIP3    H166751   6.249   3.204   1.859  2.4369 -0.8305  1.6652
15112TIP3    H266752   6.267   3.307   1.969  1.0973  0.2457  0.9015
15113TIP3   OH266753   6.199   2.249   0.968  0.2746  0.1161 -0.4140
15113TIP3    H166754   6.141   2.182   0.931  0.8798 -0.8750  0.3539
15113TIP3    H266755   6.164   2.332   0.936 -1.0042 -0.5113 -0.7210
15114TIP3   OH266756   5.330   4.810  14.456  0.1558 -0.3314  0.1850
15114TIP3    H166757   5.371   4.754  14.390 -1.2902 -0.6537 -0.4705
15114TIP3    H266758   5.357   4.772  14.540  0.2923 -1.2022 -0.2418
15115TIP3   OH266759   5.166   1.112   0.304 -0.5045  0.2002 -0.7393
15115TIP3    H166760   5.225   1.145   0.372  0.5952  0.2885 -1.7155
15115TIP3    H266761   5.109   1.187   0.284  1.4821  1.3742 -2.4027
15116TIP3   OH266762   0.462   3.520   0.365  0.1304  0.4244 -0.1288
15116TIP3    H166763   0.471   3.595   0.425  0.3877  0.6337 -0.4217
15116TIP3    H266764   0.551   3.484   0.360 -0.1062 -0.2577  0.4599
15117TIP3   OH266765   0.357   5.278  15.786 -0.3243  0.6613  0.3007
15117TIP3    H166766   0.376   5.214  15.717  0.9918  1.2096  0.1148
15117TIP3    H266767   0.315   5.350  15.741  0.4435  0.9757  0.0662
15118TIP3   OH266768   1.870   6.423   1.787 -0.1600  0.6893 -0.7012
15118TIP3    H166769   1.946   6.477   1.808 -0.1584  0.1173  0.8457
15118TIP3    H266770   1.898   6.333   1.804 -0.8138  0.3658 -1.2610
15119TIP3   OH266771   6.341   4.897   4.458 -0.5366 -0.2506 -0.3228
15119TIP3    H166772   6.343   4.939   4.372 -0.4360  2.0588  0.7322
15119TIP3    H266773   6.422   4.926   4.500 -0.7371 -1.0863  0.6747
15120TIP3   OH266774   4.102   6.476  12.390  0.6145 -0.2187  1.1089
15120TIP3    H166775   4.038   6.543  12.367  2.0982  0.9215  0.0866
15120TIP3    H266776   4.159   6.470  12.313  1.3718 -1.6410  1.7403
15121TIP3   OH266777   1.164   3.261   3.218  0.2587  0.5662  0.0069
15121TIP3    H166778   1.136   3.186   3.271  0.5004 -0.0087 -0.6664
15121TIP3    H266779   1.145   3.337   3.273  1.2418 -0.0577  1.2643
15122TIP3   OH266780   4.552   2.469   1.981  0.2276 -0.0547  0.6418
15122TIP3    H166781   4.591   2.556   1.993  0.3268  0.0455 -0.3535
15122TIP3    H266782   4.592   2.435   1.901 -1.5943 -0.0159 -0.3375
15123TIP3   OH266783   0.937   5.031  12.384  0.0743  0.6886 -0.4146
15123TIP3    H166784   0.963   5.122  12.393  1.8048  0.3820 -1.6236
15123TIP3    H266785   0.856   5.034  12.334 -0.5478  1.5956  0.6223
15124TIP3   OH266786   5.849   5.045  11.563  0.7254 -0.8421 -0.2774
15124TIP3    H166787   5.884   4.960  11.591  1.1997 -0.7735 -0.6543
15124TIP3    H266788   5.769   5.056  11.615  1.4749 -0.8015  0.9175
15125TIP3   OH266789   2.921   4.435   1.000 -0.0932 -0.0173 -0.1636
15125TIP3    H166790   2.960   4.360   1.044  1.6804  1.4134  0.8647
15125TIP3    H266791   2.828   4.430   1.020  0.2677 -0.9446  1.3865
15126TIP3   OH266792   1.670   0.968  16.163  0.1900 -0.0363 -0.1008
15126TIP3    H166793   1.613   0.894  16.182  0.3600  0.4241  2.7330
15126TIP3    H266794   1.758   0.930  16.162  0.1737 -0.0773 -0.0085
15127TIP3   OH266795   3.357   3.549  13.267  0.0076 -0.0139  0.0917
15127TIP3    H166796   3.312   3.601  13.201  0.0932 -0.7935 -0.6074
15127TIP3    H266797   3.433   3.600  13.292  1.2150 -0.6480 -2.0721
15128TIP3   OH266798   2.273   2.346   4.708 -0.2594  0.0942 -0.2699
15128TIP3    H166799   2.204   2.314   4.650  0.5330 -3.0389  0.3528
15128TIP3    H266800   2.278   2.281   4.778  2.7518  0.6155  0.1263
15129TIP3   OH266801   4.526   5.472  15.984  0.9762  0.3236  0.6590
15129TIP3    H166802   4.553   5.561  15.960 -0.7467  0.5740 -0.4749
15129TIP3    H266803   4.511   5.477  16.079  0.5987  1.3203  0.5576
15130TIP3   OH266804   5.687   6.330  16.255  0.1949 -0.1683  0.2164
15130TIP3    H166805   5.625   6.340  16.183  0.8110 -0.2216 -0.3232
15130TIP3    H266806   5.639   6.360  16.332 -0.0892  0.9629 -0.3858
15131TIP3   OH266807   1.053   2.227  10.733  0.4736  0.4448  0.2087
15131TIP3    H166808   1.116   2.274  10.787  0.1171  0.4297  0.6352
15131TIP3    H266809   1.043   2.142  10.775  1.5778 -0.2702 -0.8874
15132TIP3   OH266810   4.633   2.050  11.798 -0.9244  0.0469 -0.1926
15132TIP3    H166811   4.703   1.999  11.839 -1.4629 -0.8746 -0.3751
15132TIP3    H266812   4.635   2.134  11.843  0.3366  0.0609 -0.2465
15133TIP3   OH266813   1.908   6.001  12.162  0.2054 -0.3902 -0.2053
15133TIP3    H166814   1.834   5.949  12.191  0.6670 -0.8784  0.1242
15133TIP3    H266815   1.954   6.024  12.243  0.0042  0.5483 -0.3410
15134TIP3   OH266816   4.934   5.006  12.665 -0.0071  0.4642 -0.5899
15134TIP3    H166817   4.846   5.007  12.702 -0.1331 -0.3321 -0.8545
15134TIP3    H266818   4.925   5.049  12.580 -0.1632  0.2673 -0.6716
15135TIP3   OH266819   2.513   3.857   6.649 -0.1737 -0.1027  0.0024
15135TIP3    H166820   2.551   3.898   6.571  1.1867  0.3866  0.8699
15135TIP3    H266821   2.427   3.898   6.657  0.9080  2.2966  0.5134
15136TIP3   OH266822   5.336   0.346   2.251  0.3453 -0.0814  0.2201
15136TIP3    H166823   5.365   0.417   2.194 -0.8274 -0.1123 -0.4549
15136TIP3    H266824   5.246   0.370   2.274 -0.0964 -1.3713 -0.0968
15137TIP3   OH266825   2.408   3.349  11.784 -0.0980  0.3332 -0.2417
15137TIP3    H166826   2.471   3.327  11.716 -0.6882  0.8533 -0.9596
15137TIP3    H266827   2.325   3.363  11.738 -0.9506 -1.1197  0.7535
15138TIP3   OH266828   0.169   1.815   3.787 -0.3535 -0.1295 -0.0002
15138TIP3    H166829   0.158   1.722   3.805 -1.0233 -0.3036 -1.1771
15138TIP3    H266830   0.094   1.856   3.831  0.3108 -0.0526  1.0872
15139TIP3   OH266831   4.136   5.653   6.361  0.2235 -0.6196 -0.1191
15139TIP3    H166832   4.055   5.703   6.351  1.4347  1.5194  0.2219
15139TIP3    H266833   4.120   5.598   6.438 -1.1246 -0.7172 -0.4406
15140TIP3   OH266834   3.868   5.917  14.910 -0.2752 -0.2793 -0.2014
15140TIP3    H166835   3.834   5.940  14.823 -2.2570 -0.9365  0.3492
15140TIP3    H266836   3.791   5.919  14.967  1.0521  0.5253  1.6512
15141TIP3   OH266837   3.459   5.696  13.007 -0.3763 -0.0870 -0.0578
15141TIP3    H166838   3.417   5.679  13.091 -1.3361  0.0352 -0.5069
15141TIP3    H266839   3.522   5.625  12.997 -0.4437 -0.2532  0.6359
15142TIP3   OH266840   3.003   5.236   1.743  0.3794 -0.7961 -0.1771
15142TIP3    H166841   3.086   5.281   1.729  0.6140 -1.1435  0.0937
15142TIP3    H266842   2.949   5.260   1.667  0.4695  0.0098  0.0100
15143TIP3   OH266843   0.237   3.791  11.323 -0.0817 -0.6661  0.1270
15143TIP3    H166844   0.274   3.714  11.279  0.7850  1.1541 -2.5146
15143TIP3    H266845   0.304   3.816  11.387  1.7445  0.4365 -2.0927
15144TIP3   OH266846   2.314   6.089  17.162 -0.1635  0.1719  0.7671
15144TIP3    H166847   2.269   6.148  17.102 -0.9070 -0.2440  0.9030
15144TIP3    H266848   2.398   6.131  17.179  0.6123 -0.2601 -1.5259
15145TIP3   OH266849   5.032   1.155  16.546 -0.0081 -0.0357  0.4078
15145TIP3    H166850   5.006   1.087  16.483  0.8084 -1.3226  1.4144
15145TIP3    H266851   5.120   1.131  16.573 -0.0083  0.9817  1.4123
15146TIP3   OH266852   3.293   4.006   6.479 -0.0576  0.3856  0.5658
15146TIP3    H166853   3.366   4.041   6.531 -1.1120  2.1362  0.9533
15146TIP3    H266854   3.216   4.051   6.512 -1.5996 -2.4152  1.1229
15147TIP3   OH266855   2.150   2.297  14.697 -1.1668  0.8878  0.1523
15147TIP3    H166856   2.098   2.218  14.687 -1.1238  1.0317 -1.4431
15147TIP3    H266857   2.241   2.265  14.702 -1.3112  0.6767  2.3911
15148TIP3   OH266858   5.112   6.130   4.429  0.5044  0.0970 -0.7209
15148TIP3    H166859   5.139   6.057   4.373 -0.8843 -2.5477  1.8191
15148TIP3    H266860   5.025   6.154   4.398 -0.1471 -1.1741  0.0794
15149TIP3   OH266861   0.797   5.966  13.934  0.3647 -0.3744 -0.1823
15149TIP3    H166862   0.866   5.989  13.871 -1.9510  1.0353 -2.4078
15149TIP3    H266863   0.755   6.049  13.954 -2.5337 -1.4229 -1.3002
15150TIP3   OH266864   3.943   2.628  16.963  0.1335 -0.2690  0.3293
15150TIP3    H166865   3.900   2.712  16.948 -0.2897 -0.5718 -0.2521
15150TIP3    H266866   3.916   2.575  16.887  0.4462 -0.8996  0.6571
15151TIP3   OH266867   5.553   2.764  17.075  0.2542  0.4431  0.7594
15151TIP3    H166868   5.522   2.781  16.987 -0.1913  0.6247  0.9469
15151TIP3    H266869   5.497   2.819  17.131 -0.5709 -0.8964  1.2929
15152TIP3   OH266870   2.358   2.075  16.742  0.1514  0.6035  0.1252
15152TIP3    H166871   2.287   2.114  16.691 -1.9951 -0.2201  2.2804
15152TIP3    H266872   2.341   1.981  16.738  1.8720  0.2790 -0.2839
15153TIP3   OH266873   4.163   6.260  12.521  0.3439 -0.4274  0.0948
15153TIP3    H166874   4.121   6.174  12.526 -0.3313 -0.0980  0.2337
15153TIP3    H266875   4.110   6.309  12.459 -2.0022  1.3213  3.1563
15154TIP3   OH266876   0.528   2.621   2.039 -0.4880  0.0223 -0.3876
15154TIP3    H166877   0.497   2.645   2.127  0.5830 -1.1310  0.3239
15154TIP3    H266878   0.492   2.534   2.024 -0.0545 -0.0871 -0.7940
15155TIP3   OH266879   6.681   1.818   5.925  0.2371 -0.4435  0.6747
15155TIP3    H166880   6.673   1.743   5.865  0.2692 -0.9223  1.2574
15155TIP3    H266881   6.595   1.825   5.966 -1.3190  2.6786 -2.5845
15156TIP3   OH266882   3.525   1.791  13.367  0.2847 -0.2008  0.3958
15156TIP3    H166883   3.606   1.830  13.400  1.9457  1.0106 -4.3248
15156TIP3    H266884   3.466   1.865  13.354  0.5203 -0.2562 -1.2319
15157TIP3   OH266885   2.515   2.042   0.024  0.4739 -0.6356  0.0592
15157TIP3    H166886   2.548   1.999  -0.054  0.0918 -0.6493 -0.0970
15157TIP3    H266887   2.467   2.119  -0.008  1.2633 -0.0105  0.3404
15158TIP3   OH266888   2.949   1.272  15.840  0.1469  0.0890  0.2270
15158TIP3    H166889   3.007   1.205  15.805  0.8010 -0.6018  2.5094
15158TIP3    H266890   2.863   1.230  15.845  0.2426 -0.0919  0.3272
15159TIP3   OH266891   0.305   3.527   6.702  0.1568 -0.1568 -0.2830
15159TIP3    H166892   0.244   3.599   6.719  1.0777  0.7003 -0.5327
15159TIP3    H266893   0.383   3.548   6.753 -0.2332 -1.9602  1.1318
15160TIP3   OH266894   4.838   1.811  11.285 -0.3728 -0.0865 -0.0512
15160TIP3    H166895   4.761   1.770  11.323  1.4561 -0.9217  3.1843
15160TIP3    H266896   4.895   1.737  11.262  0.1893  0.5325 -0.7023
15161TIP3   OH266897   6.354   4.322   2.805 -0.0448  0.1667 -0.1689
15161TIP3    H166898   6.302   4.378   2.864  0.5616 -1.8186  2.4579
15161TIP3    H266899   6.378   4.247   2.859 -0.5503 -2.5350 -3.3927
15162TIP3   OH266900   1.281   0.998   1.493  0.3173 -0.1065  0.1443
15162TIP3    H166901   1.343   1.051   1.543  0.3558  2.0335 -2.0211
15162TIP3    H266902   1.196   1.015   1.533  0.7147 -0.9266  1.4090
15163TIP3   OH266903   2.302   3.018  12.161  0.4334  0.0981 -0.5780
15163TIP3    H166904   2.374   3.017  12.098  0.6819 -0.2597 -0.2937
15163TIP3    H266905   2.258   3.101  12.146 -0.1769 -0.4562 -1.9774
15164TIP3   OH266906   2.298   6.525  12.749  0.4632  0.2655 -0.5084
15164TIP3    H166907   2.301   6.606  12.801 -1.4115 -0.2707  0.5256
15164TIP3    H266908   2.244   6.547  12.673 -0.3507 -0.0924 -0.0423
15165TIP3   OH266909   4.469   3.608   5.377 -0.6489  0.0716 -0.3307
15165TIP3    H166910   4.500   3.518   5.390  0.9513  0.8307  1.6821
15165TIP3    H266911   4.385   3.598   5.331  0.0073 -2.3669 -1.1951
15166TIP3   OH266912   0.743   5.532  13.984  0.1031  0.3455  0.0067
15166TIP3    H166913   0.728   5.456  13.928  1.4715 -0.7775  1.1187
15166TIP3    H266914   0.691   5.515  14.063  1.4195 -0.0957  0.8091
15167TIP3   OH266915   4.940   5.483   2.441 -0.1098 -0.1435 -0.1163
15167TIP3    H166916   4.886   5.443   2.373 -0.3634 -1.2421  0.6999
15167TIP3    H266917   4.927   5.578   2.429 -2.6135 -0.3541  0.3444
15168TIP3   OH266918   1.231   5.947   5.831  0.2082  0.0876  0.6474
15168TIP3    H166919   1.296   6.009   5.799 -0.0223 -0.1511 -0.3209
15168TIP3    H266920   1.151   5.969   5.783 -0.2149 -0.1207  1.2495
15169TIP3   OH266921   5.104   5.906  15.028  0.6154 -0.1917 -0.2434
15169TIP3    H166922   5.183   5.853  15.023  0.7934 -0.0654  1.0366
15169TIP3    H266923   5.128   5.988  14.985  2.2333  1.0393  2.6991
15170TIP3   OH266924   2.082   3.115  11.342 -0.2909  0.0197  0.0384
15170TIP3    H166925   2.108   3.202  11.313  0.8395  0.2274  1.5607
15170TIP3    H266926   2.074   3.064  11.261 -0.5782  1.3993 -0.8492
15171TIP3   OH266927   4.107   0.029  13.205 -0.9166  0.6622  0.4803
15171TIP3    H166928   4.066   0.112  13.230 -0.6652  0.9449 -0.0149
15171TIP3    H266929   4.108   0.031  13.109  0.0085  0.5543  0.4746
15172TIP3   OH266930   6.443   6.116   1.131  0.0464  0.0295 -0.2655
15172TIP3    H166931   6.523   6.110   1.184  1.4367 -1.5250 -2.4073
15172TIP3    H266932   6.430   6.211   1.120  1.0388  0.3371  0.8853
15173TIP3   OH266933   2.942   6.316   1.085 -0.2087 -0.1750  0.3815
15173TIP3    H166934   2.862   6.370   1.090 -0.8931 -1.2199  1.1571
15173TIP3    H266935   2.912   6.233   1.049  0.9421  0.1085 -1.3184
15174TIP3   OH266936   6.142   0.979  14.218 -0.4438  0.4597  0.0005
15174TIP3    H166937   6.089   1.056  14.241 -0.3538 -0.1525  2.5242
15174TIP3    H266938   6.224   0.992  14.264  0.4651 -0.1131 -1.3774
15175TIP3   OH266939   1.651   2.903  11.630  0.2285 -0.2863  0.4612
15175TIP3    H166940   1.736   2.937  11.660  0.2264 -0.2956  0.4781
15175TIP3    H266941   1.672   2.822  11.585  0.2317 -0.2731  0.4384
15176TIP3   OH266942   0.831   0.524  16.482  0.3923  0.5247  0.3002
15176TIP3    H166943   0.766   0.590  16.458 -0.3174 -0.5136 -0.7893
15176TIP3    H266944   0.894   0.527  16.410  0.3372  0.0041  0.2285
15177TIP3   OH266945   6.310   6.511  12.289 -0.2555  0.8678  0.0433
15177TIP3    H166946   6.281   6.561  12.365 -0.2291  0.8388  0.0723
15177TIP3    H266947   6.253   6.540  12.218 -1.2659 -0.1765  0.4019
15178TIP3   OH266948   3.490   4.396  15.009  0.8085  0.2352 -0.1885
15178TIP3    H166949   3.468   4.479  14.965 -1.1914  0.0161  0.2834
15178TIP3    H266950   3.491   4.331  14.939 -1.3998  0.0520 -0.1143
15179TIP3   OH266951   5.770   5.998  11.502  0.5322  0.0682 -0.1987
15179TIP3    H166952   5.766   5.993  11.406  0.1505  1.2718 -0.2553
15179TIP3    H266953   5.713   6.071  11.525 -1.9678 -2.1502  1.1732
15180TIP3   OH266954   4.242   4.676   2.811 -0.2210 -0.0618  0.1523
15180TIP3    H166955   4.229   4.626   2.891 -2.6794 -1.6206 -1.1193
15180TIP3    H266956   4.331   4.654   2.783  0.1189 -0.6834  1.6389
15181TIP3   OH266957   3.880   3.398  16.038 -0.5483  0.4397  0.0167
15181TIP3    H166958   3.882   3.475  15.980 -1.2138 -0.5516 -1.3752
15181TIP3    H266959   3.926   3.330  15.989 -0.2990 -0.1702  1.0720
15182TIP3   OH266960   4.759   1.032   4.785  0.2376  0.1529 -0.4208
15182TIP3    H166961   4.717   1.096   4.727  0.6361  1.1615  0.3752
15182TIP3    H266962   4.840   1.075   4.813 -0.7849  0.4773  2.3047
15183TIP3   OH266963   5.380   2.196  13.591 -0.4650  1.0015 -0.1438
15183TIP3    H166964   5.381   2.290  13.610 -0.3557  0.9666  0.0299
15183TIP3    H266965   5.457   2.181  13.537 -0.3182  0.9625  0.0754
15184TIP3   OH266966   3.072   2.656  11.843  0.6053  0.2699  0.1287
15184TIP3    H166967   3.014   2.730  11.857  0.8567  0.6993 -1.0046
15184TIP3    H266968   3.016   2.587  11.808  0.5346  0.2227  0.3339
15185TIP3   OH266969   5.823   3.609   2.901  0.2403 -0.2545  0.2269
15185TIP3    H166970   5.843   3.645   2.987  0.3324 -2.3513  1.1507
15185TIP3    H266971   5.909   3.592   2.862  0.2649  2.5601 -1.2261
15186TIP3   OH266972   1.218   3.567   1.971  0.4282  0.2723 -0.0301
15186TIP3    H166973   1.203   3.501   2.039  1.4774  1.4048  1.3763
15186TIP3    H266974   1.312   3.587   1.977  0.2644  1.4004 -0.8612
15187TIP3   OH266975   2.660   5.825  16.497 -0.1212  0.1202 -0.0214
15187TIP3    H166976   2.618   5.838  16.412  0.2132 -0.0697 -0.2181
15187TIP3    H266977   2.604   5.761  16.541 -1.0966  1.2818  0.4803
15188TIP3   OH266978   2.142   1.040   0.415  0.3966  0.1184  0.9791
15188TIP3    H166979   2.136   1.135   0.403  0.6796 -0.0307 -0.6562
15188TIP3    H266980   2.078   1.019   0.483 -0.8631  1.2830  0.1970
15189TIP3   OH266981   6.324   2.941   0.001 -0.2022 -0.1501  0.0649
15189TIP3    H166982   6.417   2.925  -0.019  0.0766  0.6126  0.6954
15189TIP3    H266983   6.325   3.015   0.062 -1.2521  0.1728 -0.2828
15190TIP3   OH266984   4.214   3.719  16.249  0.0120 -0.3765 -0.4264
15190TIP3    H166985   4.159   3.749  16.322  1.9275  0.1976  0.8572
15190TIP3    H266986   4.169   3.750  16.171 -0.0356  2.7142  0.6819
15191TIP3   OH266987   4.048   0.497   0.465 -0.0128  0.2767 -0.3406
15191TIP3    H166988   4.069   0.463   0.378 -1.7909  0.0505 -0.7093
15191TIP3    H266989   4.085   0.585   0.466 -0.2052  0.3833 -1.4297
15192TIP3   OH266990   4.651   4.526   3.223 -0.2450  0.4503  0.0694
15192TIP3    H166991   4.720   4.589   3.243  0.2540 -0.0296 -0.1089
15192TIP3    H266992   4.580   4.549   3.283  0.0460  0.9815  0.2210
15193TIP3   OH266993   2.636   2.710   3.807 -0.4780 -0.0094  0.2420
15193TIP3    H166994   2.592   2.647   3.863 -0.1160  1.1847  1.9595
15193TIP3    H266995   2.658   2.783   3.866  0.9975  0.7816 -1.2122
15194TIP3   OH266996   5.647   0.675   6.165 -0.3670  0.4806  0.3104
15194TIP3    H166997   5.591   0.733   6.114  0.3723  0.3509 -0.6833
15194TIP3    H266998   5.676   0.727   6.239 -0.1954  1.1921 -0.2494
15195TIP3   OH266999   5.840   1.574   4.729  0.5085 -0.3589  0.0207
15195TIP3    H167000   5.840   1.653   4.674 -0.6224 -1.1715 -1.2158
15195TIP3    H267001   5.929   1.540   4.722  1.0040  0.7569  0.5361
15196TIP3   OH267002   4.648   6.779   3.693  0.5660 -0.0776 -0.0003
15196TIP3    H167003   4.671   6.729   3.615  1.1114 -0.4746  0.4055
15196TIP3    H267004   4.693   6.733   3.764  0.6238  0.6721  0.4511
15197TIP3   OH267005   0.686   0.035   0.163  0.2469  0.2466 -0.2361
15197TIP3    H167006   0.694   0.039   0.258  1.3276 -1.1616 -0.2309
15197TIP3    H267007   0.671  -0.058   0.145  2.4787  0.0759 -1.5730
15198TIP3   OH267008   1.404   5.480  14.116 -0.0438 -0.0334  0.3133
15198TIP3    H167009   1.498   5.462  14.127  0.2131  0.8494 -0.2953
15198TIP3    H267010   1.383   5.539  14.188  0.1945  0.8349 -0.3117
15199TIP3   OH267011   5.214   3.426  17.085 -0.6144 -0.0799  0.1177
15199TIP3    H167012   5.209   3.498  17.022 -0.7863 -0.5199 -0.3767
15199TIP3    H267013   5.169   3.354  17.042 -2.9789  0.3113  1.7333
15200TIP3   OH267014   2.962   5.233   4.891  0.2723 -0.0805 -0.2207
15200TIP3    H167015   2.867   5.243   4.885  0.1702  0.2322  1.4297
15200TIP3    H267016   2.997   5.316   4.861 -0.0008  0.0173 -0.2715
15201TIP3   OH267017   0.943   2.829  15.321  0.2105  0.0511 -0.0661
15201TIP3    H167018   0.994   2.749  15.337  0.4500  0.2021 -0.0603
15201TIP3    H267019   0.919   2.859  15.409 -1.2635 -0.8837 -0.1147
15202TIP3   OH267020   0.492   4.837   1.925 -0.5477 -0.2864 -0.1607
15202TIP3    H167021   0.502   4.911   1.866 -0.9919 -1.0914 -1.2825
15202TIP3    H267022   0.565   4.845   1.986  0.1612  0.3398 -1.0687
15203TIP3   OH267023   6.366   0.484  14.628  0.6888  0.6001 -0.4609
15203TIP3    H167024   6.419   0.544  14.680 -1.1457  2.3961 -0.5068
15203TIP3    H267025   6.294   0.459  14.686 -0.3627  1.1217 -1.4866
15204TIP3   OH267026   6.275   5.444  13.672  0.3642 -0.1170  0.3434
15204TIP3    H167027   6.337   5.446  13.599  1.3948 -0.6884  1.1661
15204TIP3    H267028   6.213   5.515  13.654  1.1729  0.3742 -0.5827
15205TIP3   OH267029   6.631   0.116   3.389 -0.2662 -0.4457 -0.0750
15205TIP3    H167030   6.659   0.205   3.364 -0.2210 -0.0872  1.1817
15205TIP3    H267031   6.692   0.091   3.459 -0.6039 -1.2721 -0.0659
15206TIP3   OH267032   1.414   6.518   5.030 -0.0873  0.2295 -0.5288
15206TIP3    H167033   1.452   6.540   5.116  0.5167 -2.3072 -0.0498
15206TIP3    H267034   1.323   6.546   5.036 -0.5320 -1.4007  1.6602
15207TIP3   OH267035   2.173   6.059  16.429 -0.3715  0.3233 -0.0602
15207TIP3    H167036   2.227   6.134  16.407  0.2115 -0.3542 -1.0269
15207TIP3    H267037   2.124   6.086  16.507  0.5934  1.3166  0.2266
15208TIP3   OH267038   3.739   0.508   6.362 -0.4047 -0.0297  0.0303
15208TIP3    H167039   3.714   0.525   6.271 -0.5168 -1.8579 -0.3178
15208TIP3    H267040   3.659   0.476   6.403 -0.5130  1.3511  0.9683
15209TIP3   OH267041   1.324   6.334   0.235  0.6749  0.2842  0.0359
15209TIP3    H167042   1.299   6.367   0.149 -2.1526 -0.2392  0.5692
15209TIP3    H267043   1.295   6.401   0.297  1.6484  0.1385  0.6807
15210TIP3   OH267044   1.751   0.453  13.623  0.4111  0.1400 -0.4342
15210TIP3    H167045   1.798   0.486  13.546  0.4819  0.1705 -0.3786
15210TIP3    H267046   1.797   0.372  13.646  1.8007  1.2617  0.9184
15211TIP3   OH267047   1.441   1.395  10.665  0.3376  0.3614 -0.1682
15211TIP3    H167048   1.444   1.491  10.660 -0.7300  0.4134 -0.0507
15211TIP3    H267049   1.470   1.375  10.754  0.4250  0.5779 -0.1464
15212TIP3   OH267050   4.598   3.728   2.543  0.1992  0.3536 -0.1046
15212TIP3    H167051   4.625   3.644   2.580  1.6885  0.2620 -1.3082
15212TIP3    H267052   4.522   3.754   2.595  1.6280 -0.1925  2.4146
15213TIP3   OH267053   1.877   2.490  14.263 -0.4590  0.6984 -0.0422
15213TIP3    H167054   1.846   2.415  14.213 -0.6138  0.4310  0.4555
15213TIP3    H267055   1.832   2.484  14.347  0.0675  0.9511  0.2607
15214TIP3   OH267056   0.770   0.455  16.739  0.5341  0.2986 -0.1405
15214TIP3    H167057   0.844   0.415  16.784  1.2512  1.9509  0.2405
15214TIP3    H267058   0.797   0.458  16.647 -0.9845 -3.1955 -0.8553
15215TIP3   OH267059   5.397   5.100  12.937 -0.0984  0.1987 -0.1519
15215TIP3    H167060   5.335   5.044  12.890 -0.5594 -0.3302  1.0566
15215TIP3    H267061   5.343   5.173  12.969 -0.2180 -0.4629  1.2423
15216TIP3   OH267062   5.151   2.340   3.554 -0.1112  0.2241  0.0376
15216TIP3    H167063   5.200   2.385   3.623 -0.0150  0.1288  0.0322
15216TIP3    H267064   5.217   2.324   3.486 -0.4080  1.2289 -0.5199
15217TIP3   OH267065   5.512   1.033   2.536 -0.0587 -0.0956 -0.0275
15217TIP3    H167066   5.553   0.955   2.500  3.0351  0.2518  2.3761
15217TIP3    H267067   5.460   1.001   2.610 -1.7215 -0.1679 -1.1642
15218TIP3   OH267068   1.015   3.565  11.519 -0.1751 -0.3875  0.3956
15218TIP3    H167069   1.029   3.568  11.424 -0.5140  0.0811  0.3557
15218TIP3    H267070   1.092   3.520  11.553  0.9678  1.2414  0.0819
15219TIP3   OH267071   5.775   3.505   1.471  0.1734 -0.0840  0.1364
15219TIP3    H167072   5.866   3.494   1.499  0.3303 -0.3271 -0.4494
15219TIP3    H267073   5.746   3.585   1.514  1.2249  0.9800 -1.0613
15220TIP3   OH267074   5.791   3.871   6.521 -0.0036  0.0469 -0.9822
15220TIP3    H167075   5.776   3.796   6.579 -0.3608  0.6447 -0.2828
15220TIP3    H267076   5.800   3.946   6.580  1.7788  0.3645 -1.5743
15221TIP3   OH267077   2.150   0.277   1.345  0.1380 -0.4850 -0.1203
15221TIP3    H167078   2.122   0.205   1.401  0.3643 -0.0030  0.6170
15221TIP3    H267079   2.233   0.247   1.308  0.2511 -0.5889  0.2152
15222TIP3   OH267080   1.564   3.426  15.294  0.0600 -0.1535  0.4363
15222TIP3    H167081   1.588   3.455  15.206 -3.3386 -0.3682 -0.7285
15222TIP3    H267082   1.524   3.503  15.334  0.4953 -0.3924  1.3536
15223TIP3   OH267083   4.482   4.143   3.015 -0.5024  0.3798  0.8601
15223TIP3    H167084   4.436   4.211   3.063 -2.7298  0.3163 -1.0501
15223TIP3    H267085   4.414   4.096   2.967  1.1861 -1.9174  0.5007
15224TIP3   OH267086   0.390   3.165  12.733 -0.0473 -0.0740 -0.5128
15224TIP3    H167087   0.299   3.174  12.760 -0.2106  1.3180 -1.3817
15224TIP3    H267088   0.419   3.081  12.769 -1.4738 -0.2334  0.3099
15225TIP3   OH267089   4.765   1.286  16.493  0.2654 -0.0057 -0.7034
15225TIP3    H167090   4.756   1.335  16.576  0.8949  0.7115 -1.0446
15225TIP3    H267091   4.857   1.294  16.471  0.1348 -0.3648 -1.3810
15226TIP3   OH267092   4.989   4.792   5.852  0.0959  0.7422 -0.3313
15226TIP3    H167093   5.068   4.780   5.904 -0.0786  1.0440  0.0093
15226TIP3    H267094   4.968   4.705   5.820 -0.6067  0.2743  1.2981
15227TIP3   OH267095   3.348   3.906   0.195 -0.2551 -0.3932  0.5125
15227TIP3    H167096   3.364   3.836   0.131 -1.7830  0.1440 -0.5132
15227TIP3    H267097   3.345   3.986   0.143  0.1977  0.3031  1.5133
15228TIP3   OH267098   2.324   6.233  11.983  0.6144  0.2161 -0.4677
15228TIP3    H167099   2.338   6.299  11.915  3.9401  0.3478  0.1825
15228TIP3    H267100   2.351   6.275  12.064  0.2669 -1.1153  0.3726
15229TIP3   OH267101   0.424   5.222   3.563 -0.0224 -0.3941  0.2259
15229TIP3    H167102   0.492   5.155   3.554  0.6580  0.4284 -0.9911
15229TIP3    H267103   0.437   5.280   3.488 -1.8033  0.0365  0.2209
15230TIP3   OH267104   0.529   2.249  17.051  0.7521 -0.5090 -0.3320
15230TIP3    H167105   0.443   2.244  17.010  0.9439  1.0522 -1.0186
15230TIP3    H267106   0.574   2.169  17.022 -0.3125 -1.1440 -0.2907
15231TIP3   OH267107   5.308   2.920   1.080 -0.1730  0.2183  0.6405
15231TIP3    H167108   5.341   2.875   1.158  0.3587  0.4842  0.5755
15231TIP3    H267109   5.384   2.966   1.046 -0.7187  1.2108  0.7337
15232TIP3   OH267110   2.085   4.411   2.671 -0.5060  0.4014  0.8822
15232TIP3    H167111   2.050   4.323   2.685 -0.6008  0.5599  1.6820
15232TIP3    H267112   2.014   4.459   2.630 -0.2722 -0.0368 -0.0562
15233TIP3   OH267113   3.872   2.136   1.157  0.0530  0.3274  0.1434
15233TIP3    H167114   3.837   2.055   1.195  0.8160 -0.7405 -1.3216
15233TIP3    H267115   3.966   2.131   1.172  0.0497  1.2591  0.5628
15234TIP3   OH267116   3.836   3.854  12.211  0.1204  0.5353  0.0283
15234TIP3    H167117   3.770   3.862  12.142  0.4206  0.9157 -0.2200
15234TIP3    H267118   3.892   3.931  12.199  1.1934 -0.2913 -0.3882
15235TIP3   OH267119   6.264   2.614  12.796  0.6554 -0.5026 -0.3809
15235TIP3    H167120   6.212   2.655  12.727 -2.5239  1.0435  2.6385
15235TIP3    H267121   6.207   2.545  12.831  1.4714 -0.2298  1.6341
15236TIP3   OH267122   3.308   3.294   1.360  0.6165 -0.0163 -0.5866
15236TIP3    H167123   3.281   3.356   1.292  3.6383  1.3344 -0.7111
15236TIP3    H267124   3.264   3.213   1.337 -2.2373  1.5980 -1.3395
15237TIP3   OH267125   1.910   0.916  14.818 -0.0914 -0.2849 -0.3078
15237TIP3    H167126   1.906   0.851  14.888  2.7357 -0.4116 -0.1277
15237TIP3    H267127   1.991   0.895  14.771 -0.8126  1.1109 -2.3003
15238TIP3   OH267128   0.163   2.845  15.274  0.1008 -0.1815  0.8839
15238TIP3    H167129   0.165   2.875  15.183  0.1545  0.9077  1.2357
15238TIP3    H267130   0.138   2.922  15.325 -2.2202 -1.3123  1.5986
15239TIP3   OH267131   1.757   0.606  14.720 -0.3291 -0.1209  0.6366
15239TIP3    H167132   1.752   0.693  14.680 -1.0222 -0.7052 -0.6327
15239TIP3    H267133   1.791   0.622  14.808 -1.1999  1.5145  0.7211
15240TIP3   OH267134   0.869   4.013  14.992  0.2047  0.1821  0.0362
15240TIP3    H167135   0.808   3.939  14.996  3.0091 -2.2896  2.4382
15240TIP3    H267136   0.913   4.003  14.908  0.7133 -1.0917  0.4300
15241TIP3   OH267137   1.082   1.461  12.996  0.1644 -0.0292  0.4335
15241TIP3    H167138   1.042   1.377  12.975 -1.1936  0.3695  1.3408
15241TIP3    H267139   1.069   1.515  12.918 -3.1519  0.8197  1.4348
15242TIP3   OH267140   0.354   6.587   5.539 -0.1783 -0.0656  0.3652
15242TIP3    H167141   0.267   6.548   5.529  0.3037 -1.4313  1.3229
15242TIP3    H267142   0.342   6.678   5.511 -2.5590  0.5202  2.8608
15243TIP3   OH267143   4.914   0.957   1.386 -0.3713  0.5079  0.4110
15243TIP3    H167144   4.945   0.966   1.476 -1.2597 -1.5892  0.9867
15243TIP3    H267145   4.988   0.985   1.332  0.2604  1.5724  1.7628
15244TIP3   OH267146   3.704   3.911   0.562 -0.7107  0.5334  0.5204
15244TIP3    H167147   3.629   3.891   0.506 -0.4142  0.1293  0.2584
15244TIP3    H267148   3.775   3.857   0.527 -0.0117  1.6720  0.1169
15245TIP3   OH267149   0.644   2.777   4.989  0.4165 -0.1577  0.7287
15245TIP3    H167150   0.631   2.702   4.931 -0.0620 -0.6284  1.4314
15245TIP3    H267151   0.712   2.748   5.051  1.5384  0.6373 -0.0807
15246TIP3   OH267152   3.096   6.402   3.928 -0.4818 -0.1851 -0.9144
15246TIP3    H167153   3.045   6.421   3.850 -1.7313 -0.8291 -0.2725
15246TIP3    H267154   3.066   6.466   3.993  1.0432  0.8072 -1.1266
15247TIP3   OH267155   3.427   5.695   3.538 -0.0595 -0.5671 -0.7659
15247TIP3    H167156   3.400   5.786   3.530  2.3710  0.2901 -0.0627
15247TIP3    H267157   3.349   5.649   3.572 -0.6309  1.6857  1.2194
15248TIP3   OH267158   2.352   2.799   3.583 -0.3225 -0.1339 -0.5292
15248TIP3    H167159   2.287   2.762   3.523  0.4684 -1.3664 -0.6696
15248TIP3    H267160   2.433   2.752   3.562  0.6065  1.3327 -0.3218
15249TIP3   OH267161   2.423   1.985  13.906  0.3192 -0.3718  0.7736
15249TIP3    H167162   2.439   2.076  13.932  0.7015  0.2434 -1.4262
15249TIP3    H267163   2.497   1.963  13.849 -0.1022 -1.8596  0.7535
15250TIP3   OH267164   6.402   1.324  13.715  0.2813 -0.0335 -0.0875
15250TIP3    H167165   6.356   1.320  13.632  0.8873  0.0465 -0.4339
15250TIP3    H267166   6.491   1.352  13.692  1.1297 -2.1976  0.3092
15251TIP3   OH267167   5.745   1.608  11.651  0.2523 -0.6633 -0.3837
15251TIP3    H167168   5.785   1.677  11.706  1.7210 -0.5068 -1.5822
15251TIP3    H267169   5.666   1.648  11.616 -0.8467 -0.8249  1.6985
15252TIP3   OH267170   5.200   5.418  13.722 -0.0483 -0.6853  0.2981
15252TIP3    H167171   5.129   5.356  13.708  0.4823 -0.9819 -1.2899
15252TIP3    H267172   5.255   5.409  13.644  1.6895 -0.4001  1.4513
15253TIP3   OH267173   0.265   0.373  12.518  0.3331  0.2739  0.1716
15253TIP3    H167174   0.331   0.367  12.449  1.0521  0.7751  0.7975
15253TIP3    H267175   0.182   0.350  12.475  0.8590 -0.0030 -0.7067
15254TIP3   OH267176   3.574   6.079   2.788  0.6611 -0.6408  0.1541
15254TIP3    H167177   3.625   6.090   2.708  0.8419  3.5855  0.6309
15254TIP3    H267178   3.483   6.077   2.758  0.7495  0.5311 -0.2301
15255TIP3   OH267179   0.895   0.317   1.986  0.2818  0.1882 -1.3122
15255TIP3    H167180   0.801   0.334   1.984  0.1305 -0.5679 -0.7822
15255TIP3    H267181   0.934   0.402   2.007 -0.3022  0.4299 -1.2061
15256TIP3   OH267182   4.249   0.599   1.210  0.1037  0.3746  0.2034
15256TIP3    H167183   4.202   0.524   1.173  1.4428 -0.7340  0.7122
15256TIP3    H267184   4.189   0.636   1.274 -0.4899 -0.3666  0.0822
15257TIP3   OH267185   3.141   4.434  11.694  0.3910 -0.2682  0.2264
15257TIP3    H167186   3.088   4.366  11.653 -1.6380  1.2176  0.2548
15257TIP3    H267187   3.134   4.509  11.635  0.3482  0.7771  1.5134
15258TIP3   OH267188   1.674   3.365  16.804  0.1514  0.4263  0.8057
15258TIP3    H167189   1.627   3.407  16.875  0.9846  0.1478  1.5366
15258TIP3    H267190   1.763   3.400  16.808  0.0930  0.7619 -0.3996
15259TIP3   OH267191   3.429   1.535   3.842 -0.9581  0.0413  0.4132
15259TIP3    H167192   3.368   1.597   3.882 -2.0643 -1.8386  1.8318
15259TIP3    H267193   3.504   1.533   3.902  0.0396  1.5093 -0.7346
15260TIP3   OH267194   5.765   0.286  16.518 -0.1887 -0.1929  0.2546
15260TIP3    H167195   5.844   0.296  16.465 -0.6778 -1.6012 -0.8205
15260TIP3    H267196   5.736   0.196  16.500 -1.5634  0.0160  1.2761
15261TIP3   OH267197   0.551   3.570  15.400 -0.2917  0.1371 -0.1754
15261TIP3    H167198   0.544   3.665  15.397 -2.1413  0.0092 -1.3362
15261TIP3    H267199   0.571   3.550  15.492  1.1460  1.6512 -0.1021
15262TIP3   OH267200   5.323   3.773  12.948 -0.1951 -0.4509  0.5681
15262TIP3    H167201   5.339   3.682  12.972  3.0370 -0.2009 -0.1211
15262TIP3    H267202   5.320   3.772  12.852 -1.0165  0.0786  0.5769
15263TIP3   OH267203   1.569   5.292   1.379  0.0138 -0.1350 -0.0453
15263TIP3    H167204   1.625   5.276   1.303 -0.6523 -1.1376 -0.3487
15263TIP3    H267205   1.483   5.256   1.353 -0.3793  0.0620  0.9515
15264TIP3   OH267206   2.953   2.495  11.545 -0.1990 -0.2008 -0.2713
15264TIP3    H167207   2.878   2.482  11.487  1.8067 -0.9482 -2.8677
15264TIP3    H267208   2.997   2.573  11.510  1.8815 -1.5381 -0.7810
15265TIP3   OH267209   6.183   0.137   2.565  0.1500  0.1246 -0.7094
15265TIP3    H167210   6.102   0.172   2.528 -0.0672  0.8549  0.4112
15265TIP3    H267211   6.191   0.050   2.526 -0.3252  0.6568 -2.0569
15266TIP3   OH267212   3.776   2.419  14.403  0.1966 -0.3545 -0.5636
15266TIP3    H167213   3.766   2.328  14.430 -2.9126 -0.4564 -1.5961
15266TIP3    H267214   3.706   2.432  14.339  1.1404  2.5189 -1.1397
15267TIP3   OH267215   6.373   0.131   1.011  0.5560  0.7976 -0.7614
15267TIP3    H167216   6.383   0.088   0.926 -2.1863 -0.1961 -0.6643
15267TIP3    H267217   6.282   0.159   1.014  1.1057  2.6693  1.0446
15268TIP3   OH267218   5.982   4.407  15.168 -0.0010 -0.2860 -0.6149
15268TIP3    H167219   5.978   4.502  15.165 -0.5424 -0.2932 -0.2436
15268TIP3    H267220   6.061   4.384  15.119 -0.3271  0.3043 -1.4244
15269TIP3   OH267221   2.998   2.236  15.361 -0.1867  0.1063  0.1051
15269TIP3    H167222   3.082   2.277  15.381  0.1103  0.6067 -2.0142
15269TIP3    H267223   3.020   2.161  15.305 -0.9689 -1.3225  1.5945
15270TIP3   OH267224   1.893   3.704   5.445  0.2790 -0.4552 -0.1879
15270TIP3    H167225   1.953   3.629   5.440  0.2769 -0.4274 -0.6501
15270TIP3    H267226   1.926   3.766   5.380 -0.3783 -0.5300 -0.5957
15271TIP3   OH267227   3.130   2.431  12.150  0.3195  0.3925  0.4550
15271TIP3    H167228   3.037   2.413  12.165  0.2415  0.3833 -0.0296
15271TIP3    H267229   3.171   2.345  12.143  0.0436  0.3675 -1.2640
15272TIP3   OH267230   5.637   4.107  13.728 -0.2505 -0.1456 -0.0122
15272TIP3    H167231   5.627   4.055  13.808 -1.1021 -0.6838 -0.4545
15272TIP3    H267232   5.706   4.169  13.749  0.6194 -1.2870  0.6258
15273TIP3   OH267233   4.247   5.528  12.789 -0.0245  0.1668  0.4412
15273TIP3    H167234   4.221   5.508  12.879  1.8048 -1.4089  0.6799
15273TIP3    H267235   4.277   5.445  12.754  0.0270  0.9189 -1.3950
15274TIP3   OH267236   4.790   0.713   0.818  0.2432 -0.0225  0.2610
15274TIP3    H167237   4.739   0.683   0.893 -0.2682 -1.1130 -0.5148
15274TIP3    H267238   4.814   0.633   0.771 -0.5060  0.7079 -1.4347
15275TIP3   OH267239   4.070   3.789  14.902 -0.0160  0.0940 -0.3048
15275TIP3    H167240   4.123   3.716  14.936  1.9574  1.4223 -0.3491
15275TIP3    H267241   4.081   3.784  14.807  1.0251  1.0476 -0.2528
15276TIP3   OH267242   3.581   2.421   5.881 -0.2418 -0.5051  0.5459
15276TIP3    H167243   3.555   2.331   5.902  0.5363 -0.7435  0.5239
15276TIP3    H267244   3.633   2.449   5.957 -0.8752  0.0966  0.7668
15277TIP3   OH267245   1.279   2.291   5.200  0.3197 -0.2990 -0.4360
15277TIP3    H167246   1.374   2.286   5.190  0.4007  1.6796 -1.0546
15277TIP3    H267247   1.254   2.205   5.233  2.6794  0.0595  2.8140
15278TIP3   OH267248   1.631   1.740  16.769  0.2432 -0.1947 -0.8583
15278TIP3    H167249   1.645   1.835  16.768 -0.6941 -0.0083  0.5207
15278TIP3    H267250   1.596   1.720  16.682 -0.1782  0.8349 -0.9424
15279TIP3   OH267251   2.445   3.426   5.806  0.4890 -0.0904 -0.0752
15279TIP3    H167252   2.516   3.434   5.870  1.9424 -0.8350 -1.5043
15279TIP3    H267253   2.451   3.336   5.775  0.4047  0.4736 -1.8696
15280TIP3   OH267254   3.187   1.832   2.008  0.1440 -0.1807 -0.3109
15280TIP3    H167255   3.281   1.819   2.019  0.2664 -0.6614 -1.6767
15280TIP3    H267256   3.147   1.798   2.088  1.2252  1.7679  1.1355
15281TIP3   OH267257   0.364   5.412   3.968  0.3543  0.5916 -0.1495
15281TIP3    H167258   0.301   5.484   3.971 -0.6354 -0.2238 -0.5838
15281TIP3    H267259   0.402   5.418   3.880 -1.6891 -0.9583 -1.2477
15282TIP3   OH267260   5.561   1.580   4.710  0.2274 -0.1219 -0.1722
15282TIP3    H167261   5.655   1.580   4.730  0.2058 -2.1766  0.1908
15282TIP3    H267262   5.557   1.561   4.616  0.1870  3.5687 -1.0515
15283TIP3   OH267263   0.587   3.227  16.878  0.3126  0.2920  0.6049
15283TIP3    H167264   0.641   3.148  16.882  1.1891  0.8375  0.0429
15283TIP3    H267265   0.577   3.245  16.785  1.8200  1.9239  0.6945
15284TIP3   OH267266   4.731   4.996   4.834 -0.2154 -0.1846  0.7200
15284TIP3    H167267   4.641   4.968   4.819 -0.0601 -0.4977  0.3375
15284TIP3    H267268   4.751   5.052   4.759  0.2703 -1.0206  0.2084
15285TIP3   OH267269   0.988   4.754  12.461 -0.0675  0.1741  0.3164
15285TIP3    H167270   0.969   4.844  12.435 -2.2675 -0.0751  0.8614
15285TIP3    H267271   1.054   4.763  12.530 -1.0297  1.4966  1.1307
15286TIP3   OH267272   0.807   1.898  12.714 -0.5193  0.5527 -0.4062
15286TIP3    H167273   0.723   1.875  12.753  0.1765  0.3885  1.0632
15286TIP3    H267274   0.850   1.953  12.779  0.3502  0.9818 -1.3120
15287TIP3   OH267275   3.549   2.361  14.594 -0.1695 -0.5758 -0.2523
15287TIP3    H167276   3.632   2.342  14.550  0.2692 -0.2049  0.4033
15287TIP3    H267277   3.484   2.360  14.523  0.5632  0.2969 -0.9585
15288TIP3   OH267278   5.369   1.938  16.094 -0.1257  0.3938  0.3566
15288TIP3    H167279   5.338   2.027  16.077  0.8580  0.8973  1.0804
15288TIP3    H267280   5.393   1.939  16.186 -2.3782 -1.3538  1.0487
15289TIP3   OH267281   0.005   1.701   5.111 -0.2462 -0.2606 -0.5490
15289TIP3    H167282   0.019   1.608   5.128 -0.4147 -0.5775 -1.9869
15289TIP3    H267283   0.092   1.741   5.124 -0.4344 -0.3716  1.3166
15290TIP3   OH267284   2.602   0.041   1.926 -0.3098  0.1621 -0.6585
15290TIP3    H167285   2.561  -0.008   1.854  0.7459 -1.1113 -0.4334
15290TIP3    H267286   2.666  -0.020   1.962 -0.6006  0.8954  1.1793
15291TIP3   OH267287   0.450   6.652  14.603 -0.1655 -0.2748  0.5160
15291TIP3    H167288   0.355   6.639  14.613 -0.1293 -0.2988  0.8542
15291TIP3    H267289   0.478   6.684  14.689  0.1455 -0.3459  0.4400
15292TIP3   OH267290   2.662   4.654  13.492 -0.1111  0.4928 -0.0644
15292TIP3    H167291   2.708   4.580  13.452  0.2518  0.9526 -0.5164
15292TIP3    H267292   2.730   4.721  13.501 -0.2378  0.4692  1.1477
15293TIP3   OH267293   1.386   2.234  15.650 -0.0252 -0.1828 -0.3148
15293TIP3    H167294   1.425   2.260  15.734 -2.3518  1.0347  0.4702
15293TIP3    H267295   1.399   2.139  15.647 -0.9593 -0.4738  2.0830
15294TIP3   OH267296   5.179   0.922  11.622  0.4856 -0.7688  0.3330
15294TIP3    H167297   5.087   0.940  11.604  0.7004 -1.9464 -2.5005
15294TIP3    H267298   5.178   0.838  11.668  0.1153  0.2599  2.3227
15295TIP3   OH267299   3.212   4.942  13.623  0.1065 -0.1460  0.5275
15295TIP3    H167300   3.214   4.907  13.534 -0.6423  0.8623  0.1003
15295TIP3    H267301   3.162   4.876  13.673  1.2377 -1.1246  0.4097
15296TIP3   OH267302   6.550   5.539  15.019  0.2854  0.0023 -0.4837
15296TIP3    H167303   6.615   5.539  14.949  0.9649  1.8370  0.0944
15296TIP3    H267304   6.492   5.467  14.997 -0.0690  1.0425 -3.4472
15297TIP3   OH267305   0.758   1.579   5.132  0.5497 -0.0352 -1.1910
15297TIP3    H167306   0.842   1.612   5.103  0.8767 -1.5057 -2.0178
15297TIP3    H267307   0.751   1.491   5.094 -0.1502 -1.0628  1.0616
15298TIP3   OH267308   4.704   3.865  11.620  0.1264  0.1353 -0.4019
15298TIP3    H167309   4.687   3.799  11.687  0.2006  0.8549  0.3375
15298TIP3    H267310   4.670   3.947  11.657 -2.2614  0.1132 -2.3442
15299TIP3   OH267311   5.444   3.990  13.097 -0.2063  0.3335  0.0848
15299TIP3    H167312   5.518   3.933  13.074 -0.8123 -0.7395  0.7287
15299TIP3    H267313   5.372   3.958  13.043 -1.0386 -0.7372  1.7613
15300TIP3   OH267314   3.975   2.276   4.860 -0.1488  0.5355  0.2761
15300TIP3    H167315   4.068   2.298   4.866 -0.3121  1.6728 -1.0292
15300TIP3    H267316   3.974   2.185   4.831  0.5752  0.8380 -0.7458
15301TIP3   OH267317   6.399   5.625   5.893 -0.3056  0.4563  0.3237
15301TIP3    H167318   6.359   5.615   5.980  1.5514 -0.5105  1.1459
15301TIP3    H267319   6.374   5.712   5.865 -0.4455  1.0537  2.1454
15302TIP3   OH267320   2.614   3.730   1.625 -0.2076 -0.0969 -0.8915
15302TIP3    H167321   2.524   3.710   1.599 -0.4420  2.0183 -1.8676
15302TIP3    H267322   2.668   3.702   1.551 -0.1282 -0.5735 -0.6606
15303TIP3   OH267323   1.883   6.500   1.397 -0.3986 -0.0641 -0.0345
15303TIP3    H167324   1.942   6.429   1.372 -0.6560 -0.5415  0.6749
15303TIP3    H267325   1.941   6.568   1.431 -0.2952 -1.1491  2.1604
15304TIP3   OH267326   2.887   1.083   3.995  0.0002 -0.6417  0.0751
15304TIP3    H167327   2.826   1.082   4.070  0.7095 -0.9764  0.6635
15304TIP3    H267328   2.974   1.081   4.035  0.4331  0.9474 -0.7315
15305TIP3   OH267329   6.385   3.153   3.052  0.2460 -0.3464 -0.8603
15305TIP3    H167330   6.301   3.152   3.007 -0.3189 -1.3995  0.1971
15305TIP3    H267331   6.431   3.229   3.014 -1.4926  0.7725 -0.8279
15306TIP3   OH267332   3.602   2.289   1.693  0.0508 -0.4631  0.0133
15306TIP3    H167333   3.587   2.314   1.602 -1.3580 -0.2585  0.2702
15306TIP3    H267334   3.617   2.372   1.739 -2.6058 -0.1588  0.5109
15307TIP3   OH267335   1.853   0.582  14.103  0.2953 -0.2527 -0.1964
15307TIP3    H167336   1.889   0.615  14.021 -0.5637 -0.3036 -0.6006
15307TIP3    H267337   1.784   0.644  14.126 -0.9333 -1.4080 -0.6525
15308TIP3   OH267338   3.484   3.615  15.759 -0.0058  0.9131  0.3226
15308TIP3    H167339   3.476   3.687  15.696  0.0498  1.8467  1.3653
15308TIP3    H267340   3.407   3.624  15.815 -0.4307 -0.3399 -0.0153
15309TIP3   OH267341   5.992   6.029   2.139  0.0380 -0.0611 -0.3600
15309TIP3    H167342   6.002   6.092   2.067 -0.1329  0.8506  0.3984
15309TIP3    H267343   6.054   6.058   2.206 -0.1117 -0.6475  0.0450
15310TIP3   OH267344   0.981   6.099  11.771 -0.6208 -0.7741  0.1567
15310TIP3    H167345   0.990   6.069  11.680 -0.6362 -0.0668 -0.0833
15310TIP3    H267346   1.045   6.047  11.819 -0.0773 -0.6212 -0.3865
15311TIP3   OH267347   1.751   0.480  16.705  1.3108  0.3965 -0.5291
15311TIP3    H167348   1.815   0.532  16.656  0.3925  1.3159 -0.8009
15311TIP3    H267349   1.775   0.493  16.797  1.9917  0.0771 -0.6565
15312TIP3   OH267350   0.744   3.175   0.703 -0.2610  0.0612  0.3795
15312TIP3    H167351   0.715   3.084   0.704  2.2174 -0.8650 -1.8024
15312TIP3    H267352   0.706   3.212   0.623 -0.1707  0.5609  0.5626
15313TIP3   OH267353   0.171   6.366  17.166 -0.2981 -0.5217 -0.0180
15313TIP3    H167354   0.118   6.301  17.212 -1.5887  1.1988  1.0498
15313TIP3    H267355   0.120   6.388  17.088 -0.7490  0.4751  0.5413
15314TIP3   OH267356   5.176   0.997   5.175 -0.1161  0.1983  0.0478
15314TIP3    H167357   5.203   0.910   5.204 -0.0984  1.1072  3.1450
15314TIP3    H267358   5.087   0.984   5.142  0.2127 -1.1127 -0.4119
15315TIP3   OH267359   2.515   1.509   0.572 -0.3097  0.2681  0.1207
15315TIP3    H167360   2.452   1.448   0.611 -1.1329  0.5999 -0.6379
15315TIP3    H267361   2.599   1.464   0.578 -0.9311 -1.0944 -0.6834
15316TIP3   OH267362   6.295   2.642  10.761 -0.1555  0.7113 -0.0165
15316TIP3    H167363   6.282   2.623  10.854 -1.0019 -1.1720 -0.4718
15316TIP3    H267364   6.274   2.735  10.752 -1.0365  0.6909  1.5148
15317TIP3   OH267365   5.782   6.570  16.554 -0.4345 -0.3463 -0.4888
15317TIP3    H167366   5.789   6.627  16.630  0.6105 -0.1875 -0.6975
15317TIP3    H267367   5.848   6.502  16.568 -2.8853 -2.6695  0.6874
15318TIP3   OH267368   4.743   2.730   2.354 -0.2283  0.2699  0.3654
15318TIP3    H167369   4.759   2.713   2.261  0.7338  1.2477  0.3254
15318TIP3    H267370   4.772   2.651   2.398  0.2599  0.1805 -0.1051
15319TIP3   OH267371   5.594   2.153  16.547 -0.3855  0.3978  0.1281
15319TIP3    H167372   5.635   2.067  16.537  0.5380  0.9901 -1.6057
15319TIP3    H267373   5.573   2.159  16.640  1.2323 -0.9601  0.6382
15320TIP3   OH267374   5.206   0.323   4.699 -0.1122  0.0197 -0.4904
15320TIP3    H167375   5.274   0.298   4.636  2.0103  1.8632  0.8931
15320TIP3    H267376   5.136   0.361   4.646  0.7156 -0.3152 -1.8721
15321TIP3   OH267377   5.817   1.725  14.745 -0.1092  0.5235 -0.7215
15321TIP3    H167378   5.789   1.814  14.766 -0.5146  0.0374  0.9100
15321TIP3    H267379   5.740   1.684  14.707 -0.6457  0.2044  0.6504
15322TIP3   OH267380   3.783   1.610   0.225 -0.3274 -0.3685 -0.3449
15322TIP3    H167381   3.784   1.676   0.155 -1.4656 -0.3052 -0.3281
15322TIP3    H267382   3.852   1.637   0.285  1.6575 -1.1960 -2.1212
15323TIP3   OH267383   3.662   1.109  13.950 -0.1390 -0.0252 -0.2197
15323TIP3    H167384   3.605   1.095  13.875 -1.1904  0.7607  0.4069
15323TIP3    H267385   3.692   1.021  13.975 -1.4270 -0.4978 -0.2889
15324TIP3   OH267386   1.631   4.121  14.256 -0.4021 -0.5276  0.1686
15324TIP3    H167387   1.723   4.125  14.228 -0.5087  1.6433 -0.0267
15324TIP3    H267388   1.581   4.131  14.175 -0.7533  0.8348  0.5275
15325TIP3   OH267389   1.099   1.604  13.645  0.3688  0.0645  0.3490
15325TIP3    H167390   1.175   1.609  13.587 -0.6006 -0.1234 -0.9988
15325TIP3    H267391   1.036   1.665  13.606 -0.3205 -0.0829  1.2055
15326TIP3   OH267392   6.433   5.962  10.451  0.3121 -0.4119 -0.2277
15326TIP3    H167393   6.342   5.930  10.450  0.5395 -1.1207  0.6075
15326TIP3    H267394   6.426   6.054  10.475 -0.1285 -0.7101  0.8229
15327TIP3   OH267395   1.629   5.811  14.738  0.1119 -0.1353 -0.2991
15327TIP3    H167396   1.634   5.866  14.660  0.9232 -0.4955 -0.5110
15327TIP3    H267397   1.576   5.861  14.799 -1.3559 -0.2546 -1.4137
15328TIP3   OH267398   4.088   0.798   1.025 -0.0234 -0.2609 -0.0571
15328TIP3    H167399   4.157   0.751   0.979 -2.9204 -2.4979 -2.4844
15328TIP3    H267400   4.088   0.885   0.986  0.8840 -0.4928 -0.5902
15329TIP3   OH267401   3.363   6.119  12.163 -0.3747 -0.3114 -0.3058
15329TIP3    H167402   3.290   6.105  12.222  0.3299  2.2399  1.3625
15329TIP3    H267403   3.430   6.056  12.191 -1.7261 -2.4882 -1.6875
15330TIP3   OH267404   0.118   6.422  12.480  0.2285  0.0224  0.0289
15330TIP3    H167405   0.205   6.445  12.514  0.5038 -1.3826  0.3095
15330TIP3    H267406   0.058   6.476  12.530  0.8694  0.2944  0.5220
15331TIP3   OH267407   2.745   5.407  16.803 -0.9604 -0.6971 -0.0776
15331TIP3    H167408   2.664   5.419  16.853 -1.8501 -2.7280 -0.9548
15331TIP3    H267409   2.788   5.332  16.844 -0.1378 -0.4391 -0.4469
15332TIP3   OH267410   6.593   3.584   0.468 -0.7781  0.7296  0.4046
15332TIP3    H167411   6.549   3.600   0.385 -2.3058  0.4953  1.1278
15332TIP3    H267412   6.635   3.498   0.456 -0.3724  1.0295 -0.3598
15333TIP3   OH267413   0.227   1.165  12.721 -0.4015 -0.1964  0.2477
15333TIP3    H167414   0.160   1.142  12.784 -0.0334 -1.0480  0.3487
15333TIP3    H267415   0.184   1.157  12.636 -0.8940  0.9395  0.3702
15334TIP3   OH267416   2.610   2.258  16.383 -0.2026 -0.5990  0.6804
15334TIP3    H167417   2.647   2.248  16.295  0.0116  3.2938  0.1456
15334TIP3    H267418   2.678   2.305  16.432 -2.1326  1.6807  1.3514
15335TIP3   OH267419   0.505   3.958  14.521  0.2725  0.1189 -0.2734
15335TIP3    H167420   0.554   3.907  14.585  1.0234  1.2831  0.1053
15335TIP3    H267421   0.452   4.019  14.573  0.9758  1.1512 -0.7358
15336TIP3   OH267422   4.913   1.412  11.434 -0.1958 -0.3224 -1.0515
15336TIP3    H167423   4.989   1.468  11.453  0.1399 -1.1155  0.0590
15336TIP3    H267424   4.837   1.468  11.451  0.1305  0.3513 -1.7595
15337TIP3   OH267425   0.210   0.624  16.222 -0.0180 -0.9655 -0.1755
15337TIP3    H167426   0.130   0.584  16.188 -1.7416  1.4886  0.6818
15337TIP3    H267427   0.179   0.689  16.285  2.6467  0.3861 -0.1283
15338TIP3   OH267428   2.707   3.238  14.777 -1.1393 -0.1456 -0.4306
15338TIP3    H167429   2.642   3.185  14.823 -1.1003 -0.2461 -0.4924
15338TIP3    H267430   2.666   3.324  14.769 -1.4495 -0.3348 -0.8735
15339TIP3   OH267431   0.628   2.591   3.922 -0.3184  0.0541  0.4275
15339TIP3    H167432   0.700   2.528   3.923 -0.4763 -0.1409  2.5016
15339TIP3    H267433   0.554   2.543   3.960 -1.2284  0.6358 -0.5612
15340TIP3   OH267434   6.587   4.680   1.680 -0.2833 -0.6467 -0.0714
15340TIP3    H167435   6.572   4.708   1.770 -1.7800 -1.4113 -0.0566
15340TIP3    H267436   6.677   4.646   1.680 -0.2880 -0.6825  1.1332
15341TIP3   OH267437   1.270   3.299  13.651 -0.1889  0.4140  0.5439
15341TIP3    H167438   1.267   3.238  13.578 -0.2821 -1.0608  1.7097
15341TIP3    H267439   1.181   3.333  13.658 -0.1955  0.5083  0.0244
15342TIP3   OH267440   2.862   4.615  15.900 -0.2725 -0.2093  0.1555
15342TIP3    H167441   2.938   4.571  15.938  1.6771  3.4962  1.0691
15342TIP3    H267442   2.885   4.629  15.809 -0.8531 -0.9663 -0.1159
15343TIP3   OH267443   4.626   1.934   5.273 -0.4863  0.1138  0.4067
15343TIP3    H167444   4.582   1.954   5.355 -2.3697  1.5081 -0.8759
15343TIP3    H267445   4.593   1.999   5.211  1.9973  0.0548 -1.1247
15344TIP3   OH267446   6.079   1.472   5.874 -0.2030  0.2743  0.2272
15344TIP3    H167447   6.157   1.442   5.828  0.4973  0.3039  1.3409
15344TIP3    H267448   6.101   1.461   5.967 -2.8082 -3.0911  0.6410
15345TIP3   OH267449   1.990   4.877   3.583  0.2566  0.2298  0.5168
15345TIP3    H167450   2.019   4.868   3.674  1.6386  1.5632  0.2461
15345TIP3    H267451   1.927   4.949   3.585  0.3090  0.2782  0.4062
15346TIP3   OH267452   1.010   2.804   2.012  0.0133  0.2152 -0.2857
15346TIP3    H167453   0.981   2.893   1.993 -0.2537  0.1871 -0.0264
15346TIP3    H267454   0.944   2.748   1.972 -1.4043  0.1682  1.9604
15347TIP3   OH267455   2.924   0.049  15.407  0.0459  0.5025  0.3638
15347TIP3    H167456   3.000   0.077  15.355 -0.6544  1.1766 -0.3276
15347TIP3    H267457   2.930  -0.046  15.409  0.3918  0.4950 -0.5133
15348TIP3   OH267458   0.488   5.111  17.179 -0.0303  0.0309 -0.2115
15348TIP3    H167459   0.552   5.096  17.249 -2.2459 -0.7716  1.7387
15348TIP3    H267460   0.494   5.205  17.162  0.3730  0.3007  1.2473
15349TIP3   OH267461   5.487   5.026   4.342  0.2940  0.5548  0.3412
15349TIP3    H167462   5.509   4.943   4.384 -1.1192  0.3315  0.7244
15349TIP3    H267463   5.563   5.048   4.289 -0.4669 -2.7024 -2.4757
15350TIP3   OH267464   1.977   4.253   0.070  0.7383  0.0990 -0.5342
15350TIP3    H167465   1.943   4.341   0.084  0.6959  0.1652 -1.0321
15350TIP3    H267466   1.915   4.196   0.115  1.0911  0.3558  0.3040
15351TIP3   OH267467   3.066   5.961  16.923  0.2808 -0.3705 -0.1638
15351TIP3    H167468   3.119   5.943  16.846 -1.1459 -0.7373 -1.0999
15351TIP3    H267469   3.011   5.884  16.933 -0.0639 -0.0191  0.7985
15352TIP3   OH267470   4.391   2.648  13.046 -0.3293  0.6620 -0.0894
15352TIP3    H167471   4.327   2.693  13.101 -0.9619 -2.2129  1.7422
15352TIP3    H267472   4.343   2.572  13.012  1.7618 -0.9537  0.4041
15353TIP3   OH267473   2.685   0.623  11.520  0.0985  0.8084  0.8997
15353TIP3    H167474   2.666   0.529  11.522 -0.2399  0.8489 -0.0512
15353TIP3    H267475   2.622   0.659  11.458  0.9218  1.5035  0.4463
15354TIP3   OH267476   4.084   3.634  17.117 -0.5275 -0.5788 -0.4238
15354TIP3    H167477   4.092   3.583  17.198 -0.7483 -0.6064 -0.4204
15354TIP3    H267478   3.992   3.659  17.114 -0.1831  0.8629  0.2116
15355TIP3   OH267479   6.659   1.141   0.677  0.3968  0.2442  0.0972
15355TIP3    H167480   6.626   1.106   0.760 -2.2205  0.6286 -0.6828
15355TIP3    H267481   6.627   1.231   0.676  0.9046  0.4220 -1.0837
15356TIP3   OH267482   3.615   6.535  13.268  0.0343 -0.1278 -0.1075
15356TIP3    H167483   3.589   6.602  13.331  1.0019 -0.4937  0.7007
15356TIP3    H267484   3.702   6.561  13.239  0.9396 -1.6062  1.1075
15357TIP3   OH267485   5.575   1.873  12.823  0.0053  0.2217 -0.5775
15357TIP3    H167486   5.584   1.952  12.877  1.1263  0.9195 -1.7359
15357TIP3    H267487   5.662   1.834  12.823  0.0572  0.2812 -1.9228
15358TIP3   OH267488   1.254   1.903   1.542 -0.2606  0.6219  0.7186
15358TIP3    H167489   1.179   1.963   1.545 -2.4728 -1.9708  2.2009
15358TIP3    H267490   1.246   1.860   1.457 -0.1033  0.7450  0.6414
15359TIP3   OH267491   1.669   1.407  10.869 -0.2156  0.0730  0.4305
15359TIP3    H167492   1.682   1.439  10.959  0.3314 -1.7157  1.0246
15359TIP3    H267493   1.621   1.325  10.880  0.9668 -0.8117 -0.8263
15360TIP3   OH267494   5.425   6.178   0.743  0.3638  0.2018  0.0058
15360TIP3    H167495   5.511   6.144   0.718 -0.8192 -0.8115 -3.1347
15360TIP3    H267496   5.417   6.261   0.696 -0.5623  0.0187 -0.1805
15361TIP3   OH267497   0.607   2.063   2.931 -0.3491  0.0617  0.0159
15361TIP3    H167498   0.612   1.969   2.951  0.7617  0.3025  0.9977
15361TIP3    H267499   0.623   2.106   3.015 -1.1557  1.1377 -0.3657
15362TIP3   OH267500   4.932   6.144   1.606 -0.0070  0.6275 -0.3943
15362TIP3    H167501   4.862   6.151   1.670  1.5814  2.9923  1.2643
15362TIP3    H267502   4.890   6.158   1.521 -1.5827  1.8588  0.5393
15363TIP3   OH267503   0.795   2.382  15.602  0.1755 -0.1522  0.1509
15363TIP3    H167504   0.714   2.364  15.649  1.5246 -0.7347  2.3853
15363TIP3    H267505   0.809   2.477  15.613 -1.3234  0.4442 -2.2725
15364TIP3   OH267506   1.188   0.709  13.139  0.3767 -0.0881  0.3322
15364TIP3    H167507   1.278   0.713  13.108  0.6536 -2.1152  0.7036
15364TIP3    H267508   1.174   0.616  13.160 -1.9615  0.0639 -0.2172
15365TIP3   OH267509   5.911   1.837   2.492  0.2829  0.0634  0.0619
15365TIP3    H167510   5.979   1.904   2.498 -0.2706  1.2515 -4.0074
15365TIP3    H267511   5.830   1.882   2.514  0.3017 -0.2678  0.8461
15366TIP3   OH267512   1.192   5.778   4.363 -0.0559  0.3073 -0.4611
15366TIP3    H167513   1.166   5.867   4.386 -1.4637  0.1860 -1.3845
15366TIP3    H267514   1.184   5.776   4.267  0.9345 -0.5370 -0.5421
15367TIP3   OH267515   2.755   0.100  16.410  0.3067  0.1581  0.2996
15367TIP3    H167516   2.726   0.191  16.411  1.0471  0.5126 -2.4858
15367TIP3    H267517   2.850   0.105  16.421  0.2940 -0.3340  0.6733
15368TIP3   OH267518   2.150   6.150  15.306  0.2993  0.1844 -0.2828
15368TIP3    H167519   2.086   6.215  15.335  0.9949  0.6241  0.3313
15368TIP3    H267520   2.195   6.124  15.387  0.3349 -0.7251 -0.5890
15369TIP3   OH267521   3.203   2.647  16.932  0.7632  0.3847  0.5888
15369TIP3    H167522   3.266   2.607  16.992  0.0972  0.3299  1.2743
15369TIP3    H267523   3.207   2.740  16.953  0.4671  0.3548  0.7894
15370TIP3   OH267524   2.108   1.126  15.503 -0.2174 -0.4071  0.1909
15370TIP3    H167525   2.108   1.211  15.458  0.0130 -0.1663  0.6410
15370TIP3    H267526   2.200   1.103  15.511 -0.2542 -0.4150  0.6042
15371TIP3   OH267527   0.383   0.558  14.809  0.0855  0.3260  0.1526
15371TIP3    H167528   0.436   0.589  14.735 -0.8316 -0.9986 -1.1281
15371TIP3    H267529   0.443   0.502  14.859  0.2047 -0.3509 -0.7153
15372TIP3   OH267530   6.615   6.417  14.209  0.0994 -0.1108 -0.0093
15372TIP3    H167531   6.577   6.351  14.150  0.6893 -1.0969  0.6929
15372TIP3    H267532   6.558   6.494  14.198 -2.8512 -1.8602  1.8313
15373TIP3   OH267533   4.361   5.303   2.831 -0.4659 -0.6493 -0.2352
15373TIP3    H167534   4.436   5.260   2.871  0.2796  0.1636 -0.7172
15373TIP3    H267535   4.387   5.315   2.739 -0.7255  0.6695 -0.1421
15374TIP3   OH267536   5.747   1.721  14.046  0.2884  0.1062  0.0333
15374TIP3    H167537   5.791   1.699  14.128 -1.2665 -0.6799  0.7082
15374TIP3    H267538   5.689   1.794  14.069 -0.7213 -0.6197 -0.1483
15375TIP3   OH267539   2.104   1.747  13.276 -0.3179  0.1069  0.4662
15375TIP3    H167540   2.146   1.826  13.310  0.4131 -1.1616  2.6757
15375TIP3    H267541   2.143   1.736  13.189  0.5733  1.4292  0.6580
15376TIP3   OH267542   1.258   6.552  16.029 -0.0056 -0.9757  0.1674
15376TIP3    H167543   1.203   6.608  16.084 -0.7113 -1.8762  0.3888
15376TIP3    H267544   1.337   6.537  16.081 -0.6138 -1.7204  0.8936
15377TIP3   OH267545   0.178   2.661  12.383  0.2153  0.4046 -0.0873
15377TIP3    H167546   0.184   2.617  12.298 -0.4913  1.2954 -0.6109
15377TIP3    H267547   0.176   2.754  12.362  1.0886  0.6874  0.9726
15378TIP3   OH267548   6.383   5.191   1.371  0.3562  0.1296 -0.1664
15378TIP3    H167549   6.422   5.104   1.375  2.9167  0.9916 -2.9751
15378TIP3    H267550   6.303   5.183   1.423  1.2536 -3.4161  0.9870
15379TIP3   OH267551   2.891   6.753  15.896  0.1422  0.3524 -0.2351
15379TIP3    H167552   2.859   6.740  15.985  0.2289 -2.8388 -0.5511
15379TIP3    H267553   2.814   6.740  15.840  0.8110 -1.7360 -0.7465
15380TIP3   OH267554   6.601   2.371   0.267  0.0230 -0.4717 -0.6011
15380TIP3    H167555   6.573   2.422   0.191  2.7535  3.1276  0.5018
15380TIP3    H267556   6.564   2.417   0.342  2.2117 -0.3119  0.4519
15381TIP3   OH267557   4.624   4.537  16.953 -0.2544  0.4609  0.1510
15381TIP3    H167558   4.683   4.508  17.023  1.3145  0.4411 -1.0995
15381TIP3    H267559   4.622   4.633  16.962 -2.3465  0.3244  1.9063
15382TIP3   OH267560   2.869   5.250  11.817 -0.1043  0.4320 -0.6100
15382TIP3    H167561   2.951   5.263  11.770 -0.5742  2.4328 -0.9676
15382TIP3    H267562   2.860   5.155  11.823  1.7759  0.1595 -1.3440
15383TIP3   OH267563   2.485   3.728   0.359 -0.3582 -0.4932 -0.0303
15383TIP3    H167564   2.493   3.785   0.282  1.5318  1.2172  1.2927
15383TIP3    H267565   2.399   3.687   0.351 -1.0129  1.1189 -2.0458
15384TIP3   OH267566   6.288   0.612  13.259 -0.1426 -0.1862  0.8041
15384TIP3    H167567   6.228   0.686  13.250 -1.5997 -1.5501 -3.4352
15384TIP3    H267568   6.234   0.542  13.296  0.2636 -0.0933  1.5850
15385TIP3   OH267569   0.953   5.317  12.868 -0.2535 -0.4145  0.2869
15385TIP3    H167570   0.923   5.262  12.795 -0.6818 -0.8881  0.8072
15385TIP3    H267571   0.885   5.383  12.876  0.1131  0.0250 -0.1458
15386TIP3   OH267572   4.900   1.005   4.018  0.2783 -0.3229 -0.5844
15386TIP3    H167573   4.977   0.964   3.978  1.3506 -0.8890  1.8172
15386TIP3    H267574   4.933   1.088   4.052  0.1014 -0.9164  1.1570
15387TIP3   OH267575   2.849   0.625   1.364 -0.0418  0.0816 -0.5878
15387TIP3    H167576   2.833   0.564   1.292  0.5303 -0.4722 -0.2548
15387TIP3    H267577   2.906   0.692   1.327  0.2752 -0.2177 -0.6509
15388TIP3   OH267578   5.666   1.874  16.784  0.5225 -0.6044  0.0392
15388TIP3    H167579   5.762   1.868  16.789  0.4404 -1.0583  1.5069
15388TIP3    H267580   5.647   1.967  16.798  0.8041 -0.1493 -2.1983
15389TIP3   OH267581   1.624   6.392   0.688  0.5173  0.1409  0.3078
15389TIP3    H167582   1.568   6.419   0.615  0.0878 -0.0125  0.5746
15389TIP3    H267583   1.563   6.358   0.753  0.7224  1.8271  1.4528
15390TIP3   OH267584   4.523   1.673   3.017  0.3236  0.0167 -0.1403
15390TIP3    H167585   4.524   1.679   3.112  0.2037 -0.0578 -0.1343
15390TIP3    H267586   4.532   1.580   2.998  1.4801  0.1282 -0.2262
15391TIP3   OH267587   0.928   6.316   3.365 -0.7008  0.2734  0.2534
15391TIP3    H167588   0.968   6.259   3.300 -0.0932  0.9263  0.0430
15391TIP3    H267589   0.997   6.334   3.428 -1.0778  0.2400  0.6821
15392TIP3   OH267590   6.756   5.741  15.423 -0.1027  0.0153 -0.8501
15392TIP3    H167591   6.767   5.646  15.415  0.0865  0.1013 -1.7331
15392TIP3    H267592   6.676   5.759  15.373  0.1831  0.3937 -1.1686
15393TIP3   OH267593   5.947   1.561  13.253 -0.6261  0.3655 -0.0605
15393TIP3    H167594   5.942   1.592  13.163 -2.3297  0.7957  0.1609
15393TIP3    H267595   6.001   1.627  13.297 -0.9071  0.8810 -0.4717
15394TIP3   OH267596   5.299   6.287  15.827 -0.3376  0.0328 -0.0120
15394TIP3    H167597   5.340   6.249  15.905 -2.0703  0.3552  1.1136
15394TIP3    H267598   5.340   6.373  15.818  0.9077 -0.5618 -0.3558
15395TIP3   OH267599   4.449   4.435   1.159 -0.0744 -0.4539  0.0562
15395TIP3    H167600   4.484   4.381   1.230 -0.9242 -0.6882  0.3087
15395TIP3    H267601   4.522   4.491   1.134  0.1224 -0.0367  1.4391
15396TIP3   OH267602   1.916   3.281  11.672 -0.2671  0.3740 -0.2058
15396TIP3    H167603   1.895   3.290  11.579 -0.5847  0.4306 -0.1302
15396TIP3    H267604   2.004   3.319  11.681 -0.3481  0.6165 -0.4355
15397TIP3   OH267605   4.830   1.711  16.383  0.5045  0.1641  0.0453
15397TIP3    H167606   4.892   1.732  16.453 -0.8427 -0.0798  1.3586
15397TIP3    H267607   4.747   1.696  16.428 -0.1628 -1.0885 -1.5139
15398TIP3   OH267608   1.378   6.062   0.299 -0.0203 -0.0242  0.4432
15398TIP3    H167609   1.393   6.147   0.257  0.4533  0.0860  0.8330
15398TIP3    H267610   1.284   6.047   0.290  0.1115 -0.1401 -0.9188
15399TIP3   OH267611   0.681   6.234   5.697 -0.0805  0.5669  0.4851
15399TIP3    H167612   0.661   6.266   5.609  1.5068  0.0503 -0.0980
15399TIP3    H267613   0.612   6.170   5.715  0.2878 -0.2856 -0.9487
15400TIP3   OH267614   1.992   5.575   5.583 -0.0057 -0.3150  0.4327
15400TIP3    H167615   1.949   5.644   5.532 -1.1455 -0.3744  1.2687
15400TIP3    H267616   1.983   5.603   5.674  3.2404  0.5150  0.6402
15401TIP3   OH267617   1.218   0.717   4.209 -0.4149 -0.0008 -0.7261
15401TIP3    H167618   1.285   0.736   4.275  1.3125  0.8823 -2.6249
15401TIP3    H267619   1.237   0.628   4.180 -0.1050  0.2082 -1.1827
15402TIP3   OH267620   2.421   0.147   5.211 -0.1266 -0.5866 -0.4148
15402TIP3    H167621   2.419   0.052   5.229 -2.3974 -0.5805 -0.3193
15402TIP3    H267622   2.480   0.156   5.136 -0.2063 -2.1451 -0.7060
15403TIP3   OH267623   1.764   0.036  16.396 -0.0820 -0.2940  0.7157
15403TIP3    H167624   1.682   0.079  16.422  1.1513  0.9083  2.8211
15403TIP3    H267625   1.833   0.091  16.432  1.6722 -1.6989 -0.3542
15404TIP3   OH267626   3.531   4.991   3.052  0.2527  0.3060 -0.0066
15404TIP3    H167627   3.612   5.015   3.006  1.5460 -0.3522  1.8077
15404TIP3    H267628   3.462   5.006   2.988  1.8994 -0.1705 -2.0125
15405TIP3   OH267629   6.066   3.941   2.083  0.5653 -0.5595 -0.0772
15405TIP3    H167630   6.077   4.013   2.146 -0.9295 -1.4651  1.2814
15405TIP3    H267631   6.029   3.870   2.134  0.7292 -1.8613 -1.6938
15406TIP3   OH267632   4.497   4.775  14.057  0.2363  0.5722  0.2700
15406TIP3    H167633   4.507   4.724  13.976 -0.3469  0.1032  0.4870
15406TIP3    H267634   4.540   4.723  14.124  0.8120  1.0129  0.2532
15407TIP3   OH267635   4.672   0.853   1.714  0.0150  0.3924  0.1411
15407TIP3    H167636   4.648   0.919   1.649 -1.0006  2.1110  2.1278
15407TIP3    H267637   4.728   0.900   1.777  0.9345 -1.1844  0.5662
15408TIP3   OH267638   1.153   1.379  13.803  0.3695  0.2460 -0.0893
15408TIP3    H167639   1.189   1.351  13.719 -0.2483 -1.4073  0.1477
15408TIP3    H267640   1.110   1.463  13.784 -0.7812 -0.6472 -1.7275
15409TIP3   OH267641   2.348   3.373   5.429  0.2653 -0.3989 -0.0869
15409TIP3    H167642   2.374   3.321   5.505  0.6760 -0.2252 -0.1067
15409TIP3    H267643   2.360   3.315   5.354  0.8239 -0.2411 -0.1193
15410TIP3   OH267644   2.779   2.943  12.769  0.0879  0.3125 -0.3099
15410TIP3    H167645   2.751   2.853  12.784  2.3545 -0.2423  1.0931
15410TIP3    H267646   2.711   2.996  12.811 -1.3018 -0.6943 -1.1949
15411TIP3   OH267647   6.727   2.089  11.929 -0.2935 -0.3350  0.1186
15411TIP3    H167648   6.698   2.080  12.019  0.2432 -0.7269  0.2580
15411TIP3    H267649   6.648   2.071  11.877 -0.6122 -0.0702  0.5047
15412TIP3   OH267650   5.790   4.367   3.298 -0.1548 -0.4113 -0.3476
15412TIP3    H167651   5.714   4.403   3.252 -0.5155 -0.5431  0.1423
15412TIP3    H267652   5.850   4.342   3.228 -0.0116  0.8819 -0.7132
15413TIP3   OH267653   5.075   1.082  16.908  0.1414 -0.0766  0.2390
15413TIP3    H167654   5.066   1.091  17.003 -0.4616  0.3909  0.1462
15413TIP3    H267655   5.079   1.172  16.876 -0.7307 -0.2124 -0.2696
15414TIP3   OH267656   4.729   6.526   2.158 -0.2709 -0.3673 -0.3783
15414TIP3    H167657   4.813   6.521   2.204 -1.4373 -1.3177  1.8034
15414TIP3    H267658   4.727   6.446   2.105  0.5601  0.1128 -1.1645
15415TIP3   OH267659   1.196   6.610   3.047  0.5181  0.5298  0.2352
15415TIP3    H167660   1.188   6.600   3.142 -0.0993  1.1741  0.2600
15415TIP3    H267661   1.250   6.688   3.036  1.8652 -0.4073  0.0493
15416TIP3   OH267662   6.039   3.340  16.707 -0.0165 -0.1686  0.2604
15416TIP3    H167663   6.057   3.420  16.755  1.6090  1.0897 -2.1927
15416TIP3    H267664   6.076   3.270  16.761 -0.6379  0.8068  2.0143
15417TIP3   OH267665   1.060   1.779   2.104 -0.0404  0.0277  0.1501
15417TIP3    H167666   1.060   1.686   2.127  0.5525 -0.4904 -1.8003
15417TIP3    H267667   1.131   1.788   2.040 -1.4156  1.4097 -1.2481
15418TIP3   OH267668   5.877   1.200   2.326 -1.1022  0.5578  0.1211
15418TIP3    H167669   5.900   1.109   2.309  1.2048  1.0505  0.2057
15418TIP3    H267670   5.848   1.200   2.418  1.0774  0.1825  0.8829
15419TIP3   OH267671   6.030   0.320   2.736  0.0209  0.5634 -0.2327
15419TIP3    H167672   5.993   0.405   2.712 -0.7577 -0.6121 -3.7412
15419TIP3    H267673   6.113   0.315   2.688  0.5225 -0.2974  0.6824
15420TIP3   OH267674   5.102   0.009  14.049  0.0336  0.3851  0.0641
15420TIP3    H167675   5.103  -0.084  14.070 -1.6304  0.5749  1.1943
15420TIP3    H267676   5.179   0.022  13.993 -0.0727 -1.7703 -0.6784
15421TIP3   OH267677   5.004   0.432  12.327 -0.0039  0.6370 -0.1025
15421TIP3    H167678   5.044   0.457  12.243  2.0117 -2.0670 -0.0799
15421TIP3    H267679   4.917   0.471  12.324  0.5997  2.0270 -2.7207
15422TIP3   OH267680   0.809   2.765   4.311  0.1041  0.4125  0.1887
15422TIP3    H167681   0.790   2.719   4.392 -0.6288  0.0832 -0.1566
15422TIP3    H267682   0.902   2.783   4.315  0.1825 -0.0885  0.8543
15423TIP3   OH267683   2.718   2.079   1.437 -0.4294 -0.0307  0.3374
15423TIP3    H167684   2.787   2.027   1.397 -0.0352 -0.1061  1.0966
15423TIP3    H267685   2.729   2.066   1.531 -0.5633  1.1107  0.5292
15424TIP3   OH267686   2.152   1.753   0.257  0.2870 -0.2251  0.6246
15424TIP3    H167687   2.237   1.781   0.291 -0.3094 -0.5357  2.4841
15424TIP3    H267688   2.154   1.657   0.261  0.7874 -0.3875 -1.8429
15425TIP3   OH267689   5.781   0.339   5.135  0.5446 -0.7291  0.6058
15425TIP3    H167690   5.755   0.383   5.216  0.1849  0.9834 -0.4091
15425TIP3    H267691   5.803   0.250   5.163  1.2257  0.0410  2.7137
15426TIP3   OH267692   4.349   6.036   3.429  0.5495 -0.1002 -0.1121
15426TIP3    H167693   4.393   6.040   3.344  1.0796  0.5905  0.1905
15426TIP3    H267694   4.271   6.092   3.419  0.2082 -0.6121 -0.3679
15427TIP3   OH267695   0.128   5.432   0.775 -0.7963 -0.3255  0.1295
15427TIP3    H167696   0.203   5.463   0.725 -0.8940 -2.3341 -1.3964
15427TIP3    H267697   0.151   5.448   0.866  1.3642 -0.5950 -0.3161
15428TIP3   OH267698   3.238   5.210   0.488 -0.2048 -0.1147 -0.0010
15428TIP3    H167699   3.143   5.218   0.473 -0.4845 -0.8827  1.2542
15428TIP3    H267700   3.262   5.128   0.445 -0.3597 -0.5693  0.7674
15429TIP3   OH267701   3.305   1.409   5.801  0.1062 -0.4831 -0.3695
15429TIP3    H167702   3.335   1.373   5.885 -1.1142 -3.4637 -1.0917
15429TIP3    H267703   3.249   1.483   5.826 -0.0216 -1.1290  1.4461
15430TIP3   OH267704   5.334   5.163   3.901  0.2238 -0.2471 -0.0269
15430TIP3    H167705   5.363   5.200   3.985 -0.0426 -1.2406  0.5219
15430TIP3    H267706   5.260   5.107   3.924 -0.7147  0.5088 -1.1198
15431TIP3   OH267707   1.566   1.511   0.516 -0.4310 -0.0621  0.9240
15431TIP3    H167708   1.651   1.488   0.553  0.5618  1.2319 -0.4386
15431TIP3    H267709   1.539   1.589   0.565 -0.5342 -0.1072  0.9385
15432TIP3   OH267710   5.625   3.414   5.709 -0.1604  0.1908 -0.2625
15432TIP3    H167711   5.547   3.459   5.675 -1.2544 -0.8135  0.8355
15432TIP3    H267712   5.697   3.473   5.687 -1.1227  0.8450 -1.9058
15433TIP3   OH267713   5.702   4.171  15.703  0.0265  0.1229  0.3367
15433TIP3    H167714   5.702   4.078  15.683  4.2545  0.0616 -0.2463
15433TIP3    H267715   5.743   4.212  15.627 -0.0245  2.2304  1.3662
15434TIP3   OH267716   6.088   0.329  12.243 -0.1384 -0.5273 -0.6253
15434TIP3    H167717   6.023   0.399  12.242  1.1100  0.6850 -2.2193
15434TIP3    H267718   6.063   0.271  12.170 -1.5664 -2.2207  1.1023
15435TIP3   OH267719   4.652   0.750  12.147 -0.7794  0.0969 -0.4075
15435TIP3    H167720   4.628   0.775  12.058  0.8587  1.6319 -0.4825
15435TIP3    H267721   4.743   0.779  12.156  0.5488 -3.7058  0.4354
15436TIP3   OH267722   6.336   2.073  16.633  0.0469  0.6431  0.1215
15436TIP3    H167723   6.426   2.100  16.646 -0.2506  1.2597  1.0040
15436TIP3    H267724   6.301   2.134  16.568  0.4186  0.0375 -0.6618
15437TIP3   OH267725   4.410   4.622  14.417  0.5977 -0.2501  0.5497
15437TIP3    H167726   4.361   4.606  14.498 -0.5162  0.0980 -0.0406
15437TIP3    H267727   4.479   4.684  14.442  0.8409 -0.8501  1.4181
15438TIP3   OH267728   3.198   5.100  14.546 -0.3230 -0.7024 -0.1495
15438TIP3    H167729   3.219   5.036  14.614 -0.3689 -1.1559 -0.5550
15438TIP3    H267730   3.116   5.140  14.575  1.1667  1.3395  1.6430
15439TIP3   OH267731   2.317   0.215   0.521 -0.1851 -0.0468  0.3705
15439TIP3    H167732   2.341   0.288   0.578  2.0899 -1.5852  1.5524
15439TIP3    H267733   2.249   0.167   0.570 -0.4009  0.2961  0.4064
15440TIP3   OH267734   0.420   2.726   2.283  0.1591 -0.4503  0.6280
15440TIP3    H167735   0.399   2.670   2.358 -0.3468  0.2297  1.0112
15440TIP3    H267736   0.456   2.806   2.322 -1.2054  0.3996  0.2318
15441TIP3   OH267737   1.166   4.895   2.180  0.2919  0.2653  0.3011
15441TIP3    H167738   1.176   4.902   2.275 -0.9668  0.9019  0.4115
15441TIP3    H267739   1.209   4.973   2.145 -0.8233  0.9957  0.4987
15442TIP3   OH267740   2.233   2.330   1.118  0.2480 -0.2899  0.1894
15442TIP3    H167741   2.306   2.338   1.179 -1.1109 -0.5670  1.9272
15442TIP3    H267742   2.223   2.236   1.106 -1.7151 -0.4578  2.4539
15443TIP3   OH267743   5.342   3.197   5.529 -0.4963  0.3778  0.4631
15443TIP3    H167744   5.399   3.177   5.604  0.3742  1.2263  0.0434
15443TIP3    H267745   5.296   3.115   5.513  0.4765 -0.2888  0.9344
15444TIP3   OH267746   6.772   1.177   4.148 -0.3260 -0.2186  0.2211
15444TIP3    H167747   6.742   1.233   4.219  1.5372 -0.3483  1.1693
15444TIP3    H267748   6.831   1.114   4.190  3.1823  1.4685 -1.7560
15445TIP3   OH267749   1.534   4.341   4.428 -0.2955 -0.2401 -0.1944
15445TIP3    H167750   1.479   4.406   4.472 -0.3468 -0.4566  0.0693
15445TIP3    H267751   1.624   4.372   4.441 -0.4058  1.1482 -2.2754
15446TIP3   OH267752   3.309   0.574   0.191  0.6054  0.6081  0.2442
15446TIP3    H167753   3.344   0.485   0.190 -0.0665  0.1621  3.6782
15446TIP3    H267754   3.217   0.563   0.168  0.3883  0.2639  1.1918
15447TIP3   OH267755   3.124   2.092   0.424  0.3602  0.1189 -0.1590
15447TIP3    H167756   3.097   2.161   0.485  2.1380  1.5729 -0.8956
15447TIP3    H267757   3.157   2.140   0.347 -0.3843 -1.6153 -1.6458
15448TIP3   OH267758   1.290   5.049  17.127 -0.2000  0.7860 -0.1976
15448TIP3    H167759   1.291   5.144  17.136  2.3266  0.7327  1.1120
15448TIP3    H267760   1.337   5.032  17.046  1.6131  0.6586  0.8297
15449TIP3   OH267761   6.582   4.392   3.262  0.2359  0.0616 -0.2524
15449TIP3    H167762   6.618   4.397   3.351 -1.4371  2.1897  0.3900
15449TIP3    H267763   6.588   4.482   3.229  0.2689 -0.5852 -2.0815
15450TIP3   OH267764   5.766   2.127   4.243  0.6531  0.2170  0.1613
15450TIP3    H167765   5.690   2.110   4.299 -0.6014  1.9931 -0.9293
15450TIP3    H267766   5.813   2.043   4.241 -1.5828 -1.1144  0.3750
15451TIP3   OH267767   3.002   1.898  14.085 -0.1382 -0.0772  0.5754
15451TIP3    H167768   2.985   1.819  14.136  0.3877  0.2219  1.2240
15451TIP3    H267769   2.922   1.950  14.095 -2.1737 -2.0923 -2.9808
15452TIP3   OH267770   5.885   0.420   4.001 -0.2136  0.6034  0.3742
15452TIP3    H167771   5.976   0.418   3.973 -0.2599  1.1114  0.1793
15452TIP3    H267772   5.884   0.370   4.083  0.1672  0.2754  0.1819
15453TIP3   OH267773   5.750   2.813   2.334  0.0608 -0.2462  0.4393
15453TIP3    H167774   5.747   2.903   2.365 -0.0856 -1.0423  2.9171
15453TIP3    H267775   5.726   2.819   2.241  0.0655  2.2362  0.5386
15454TIP3   OH267776   2.079   1.779   3.633 -0.0569  0.5050 -0.0992
15454TIP3    H167777   2.161   1.736   3.609 -1.5040 -1.2069 -2.4736
15454TIP3    H267778   2.046   1.728   3.708  0.7120  0.8047  0.4540
15455TIP3   OH267779   3.885   3.352   0.363 -0.6861  0.3032  0.1327
15455TIP3    H167780   3.930   3.413   0.304  1.8686 -1.8997 -0.3564
15455TIP3    H267781   3.909   3.383   0.451 -1.2255  1.2558 -0.0418
15456TIP3   OH267782   6.585   2.958  15.882 -0.1820  0.3137  0.0699
15456TIP3    H167783   6.505   2.962  15.829 -1.5175  0.0775  1.9767
15456TIP3    H267784   6.561   2.904  15.957  0.5192  3.3069  2.6428
15457TIP3   OH267785   2.735   1.668  10.264  0.3167  0.6917 -0.0624
15457TIP3    H167786   2.659   1.687  10.210  0.7833  0.4209 -0.8459
15457TIP3    H267787   2.715   1.705  10.349 -0.6455  0.7062 -0.2850
15458TIP3   OH267788   4.082   1.129   3.494  0.1060  0.1300 -0.2979
15458TIP3    H167789   4.086   1.077   3.574 -0.6023 -1.8871 -1.4970
15458TIP3    H267790   4.158   1.101   3.443 -0.4902 -0.0344 -1.1215
15459TIP3   OH267791   3.340   4.340  12.410  0.7016 -0.0875 -0.5750
15459TIP3    H167792   3.345   4.367  12.318  0.6030  0.5375 -0.4037
15459TIP3    H267793   3.395   4.402  12.457  0.1144  0.0983 -0.1125
15460TIP3   OH267794   4.552   3.076  13.007 -0.3662  0.1729 -0.6632
15460TIP3    H167795   4.511   3.121  12.933  1.9538  0.9601 -1.5602
15460TIP3    H267796   4.585   3.146  13.062 -2.2163 -0.3989  1.3210
15461TIP3   OH267797   4.829   3.271   2.009 -0.0146  0.0341  0.4740
15461TIP3    H167798   4.776   3.193   2.024  1.7703 -1.3273  0.1499
15461TIP3    H267799   4.844   3.307   2.097 -0.5094 -0.2390  0.6713
15462TIP3   OH267800   3.860   2.532   2.600 -0.5233  0.4499  0.2257
15462TIP3    H167801   3.895   2.516   2.687 -0.4615  3.5531  0.8948
15462TIP3    H267802   3.766   2.544   2.614 -1.1803 -2.6496 -0.7790
15463TIP3   OH267803   6.194   5.055   6.370 -0.1606 -0.3422 -0.1232
15463TIP3    H167804   6.241   5.138   6.374  1.6995 -1.3287 -0.5709
15463TIP3    H267805   6.157   5.045   6.458  1.4178 -0.0406  0.6057
15464TIP3   OH267806   0.680   0.153  13.155  0.2250 -0.3703 -0.0834
15464TIP3    H167807   0.707   0.217  13.088  1.3532 -1.2306 -0.4713
15464TIP3    H267808   0.659   0.074  13.106 -0.6685 -0.4736  0.4432
15465TIP3   OH267809   1.495   1.915  11.990  0.2456 -0.1193 -0.2726
15465TIP3    H167810   1.525   2.005  11.978  0.8941 -0.0645  1.4715
15465TIP3    H267811   1.401   1.922  12.003  0.1152  0.1754 -1.3152
15466TIP3   OH267812   0.331   3.380   2.717  0.2579  0.3177  0.2090
15466TIP3    H167813   0.379   3.393   2.799  2.1183  0.9239 -0.9179
15466TIP3    H267814   0.335   3.286   2.701 -1.6340 -0.0678  1.6370
15467TIP3   OH267815   5.450   6.248  16.051  0.6128  0.4216 -0.5253
15467TIP3    H167816   5.506   6.320  16.021 -1.3376  2.3403  0.1261
15467TIP3    H267817   5.457   6.250  16.147 -0.9789  1.1534 -0.3807
15468TIP3   OH267818   1.846   3.826  13.913  0.2211  0.8022 -0.3488
15468TIP3    H167819   1.942   3.830  13.907  0.5806 -0.2029  2.8240
15468TIP3    H267820   1.826   3.732  13.906 -0.3066  0.8119  0.7669
15469TIP3   OH267821   2.867   1.999  17.114  0.3611 -0.3652 -0.0305
15469TIP3    H167822   2.788   1.957  17.080  0.4727 -0.1729 -0.5438
15469TIP3    H267823   2.929   1.997  17.041  0.3440  0.7433 -0.1049
15470TIP3   OH267824   1.418   2.590  11.187  0.5566 -0.1084 -0.5560
15470TIP3    H167825   1.330   2.555  11.171  1.0631 -1.5785 -0.3183
15470TIP3    H267826   1.408   2.648  11.262 -0.2816  0.0228 -0.7620
15471TIP3   OH267827   0.441   3.093  15.314  0.6329 -0.0769  0.0339
15471TIP3    H167828   0.371   3.154  15.339 -1.2454 -1.2195 -2.0075
15471TIP3    H267829   0.498   3.145  15.258  0.2922  0.3759  0.0959
15472TIP3   OH267830   0.855   2.341   6.091  0.3462  0.1718  0.6673
15472TIP3    H167831   0.873   2.346   5.998 -0.3975  1.9829  0.5786
15472TIP3    H267832   0.941   2.342   6.132  0.6875 -0.9781  0.0119
15473TIP3   OH267833   1.616   0.880  10.349 -0.9862  0.5509 -0.3763
15473TIP3    H167834   1.638   0.790  10.370 -0.5939  0.5207 -0.8848
15473TIP3    H267835   1.526   0.892  10.381 -1.6443 -0.5107 -1.7276
15474TIP3   OH267836   0.298   5.470   1.511 -0.1901  0.0743 -0.0551
15474TIP3    H167837   0.205   5.464   1.488  0.1312  0.1905 -1.5400
15474TIP3    H267838   0.302   5.540   1.576 -1.5118 -2.1160  2.5682
15475TIP3   OH267839   0.592   4.382  14.437  0.6256  0.0377  0.5394
15475TIP3    H167840   0.504   4.388  14.473 -0.0286  0.5482 -1.0533
15475TIP3    H267841   0.612   4.472  14.409  0.7640 -0.4572 -1.0573
15476TIP3   OH267842   5.605   2.529   3.120  0.2369 -0.1157 -0.7226
15476TIP3    H167843   5.590   2.622   3.103  0.3985 -0.3536 -2.2928
15476TIP3    H267844   5.519   2.488   3.105  0.3458 -0.3123 -0.8222
15477TIP3   OH267845   0.133   0.536   2.574 -0.6414  0.4215 -0.3047
15477TIP3    H167846   0.227   0.536   2.559 -0.3174  0.7621  1.5001
15477TIP3    H267847   0.119   0.466   2.638 -1.4885  0.9546  0.1141
15478TIP3   OH267848   2.673   5.079   0.040 -0.1487 -0.1429 -0.4024
15478TIP3    H167849   2.730   5.096   0.115  0.7417 -0.4578 -0.9858
15478TIP3    H267850   2.641   5.165   0.014  0.1724  0.0587 -0.1466
15479TIP3   OH267851   6.038   5.497   4.089  0.5767 -0.3248 -0.0573
15479TIP3    H167852   6.043   5.591   4.107  1.6766  0.0343 -1.9235
15479TIP3    H267853   6.130   5.470   4.082  0.2729 -1.0825 -1.4848
15480TIP3   OH267854   1.127   0.458   3.313 -0.5070  0.0215 -0.3269
15480TIP3    H167855   1.128   0.539   3.262  1.5624  0.7323  0.7242
15480TIP3    H267856   1.216   0.424   3.306 -0.0701  0.1994  2.7989
15481TIP3   OH267857   1.641   2.103   3.152  0.2617  0.4312  0.0263
15481TIP3    H167858   1.561   2.122   3.103  0.1861  1.1210  0.4036
15481TIP3    H267859   1.638   2.162   3.227  1.1808  0.5479 -0.0137
15482TIP3   OH267860   2.567   5.765  13.882 -0.1882 -1.0655 -0.4640
15482TIP3    H167861   2.597   5.848  13.846  0.0328 -0.7387  0.4401
15482TIP3    H267862   2.490   5.741  13.829 -1.1361  0.4396  0.1865
15483TIP3   OH267863   3.066   2.510   3.942  0.3502 -0.2957  0.4329
15483TIP3    H167864   3.158   2.529   3.964  0.1587 -0.3411  1.3425
15483TIP3    H267865   3.054   2.419   3.969  0.0419 -0.2947  0.2986
15484TIP3   OH267866   3.758   1.691   1.966 -0.0606  0.6142 -0.3617
15484TIP3    H167867   3.732   1.699   2.058 -0.8153  2.7277 -0.7032
15484TIP3    H267868   3.851   1.717   1.966 -0.0751  0.6710 -0.1957
15485TIP3   OH267869   5.296   0.135  11.520 -0.2114  0.0056  0.3323
15485TIP3    H167870   5.364   0.068  11.532 -1.2385 -1.2748 -0.6823
15485TIP3    H267871   5.268   0.157  11.609  0.3536 -0.7172  0.6981
15486TIP3   OH267872   3.828   6.341   1.767 -0.6432 -0.2582 -0.4444
15486TIP3    H167873   3.835   6.260   1.716 -1.3683 -1.0466  0.6450
15486TIP3    H267874   3.860   6.317   1.854 -1.1529  0.5326 -0.0201
15487TIP3   OH267875   4.819   4.334  15.615  0.6911  0.4997  0.1542
15487TIP3    H167876   4.857   4.256  15.655  1.4606  0.7443 -0.0969
15487TIP3    H267877   4.891   4.376  15.569 -0.1677  0.1880 -1.5803
15488TIP3   OH267878   5.370   5.495   1.288  0.0567  0.2240  0.0704
15488TIP3    H167879   5.364   5.470   1.380 -1.5233 -2.2582 -0.6118
15488TIP3    H267880   5.302   5.561   1.276  0.0124  0.2739  0.6023
15489TIP3   OH267881   4.748   0.163  15.710  0.4840  0.1749  0.3120
15489TIP3    H167882   4.828   0.135  15.667  1.2076  0.7461  1.2441
15489TIP3    H267883   4.743   0.257  15.695 -0.6336 -0.0202 -0.7099
15490TIP3   OH267884   3.860   6.138   5.468 -0.5128 -0.8507  0.8895
15490TIP3    H167885   3.891   6.070   5.528  1.3749  0.5629  1.5835
15490TIP3    H267886   3.894   6.111   5.382  0.0323 -0.9096  1.1192
15491TIP3   OH267887   4.156   4.095   0.152  0.1717 -0.3014  0.2733
15491TIP3    H167888   4.164   4.015   0.099 -1.2224 -1.1405  1.2510
15491TIP3    H267889   4.074   4.135   0.123 -0.8329 -0.9839  1.9542
15492TIP3   OH267890   0.009   4.337   1.230  0.2748  0.5845  0.2671
15492TIP3    H167891   0.102   4.320   1.248 -0.5182 -2.7233  2.2207
15492TIP3    H267892  -0.027   4.251   1.210 -2.3985  1.7829 -0.4794
15493TIP3   OH267893   5.681   1.346  15.451  0.0446  0.3274 -0.0076
15493TIP3    H167894   5.650   1.258  15.433  1.2659 -0.1745  0.2639
15493TIP3    H267895   5.744   1.336  15.522 -0.0535  1.4647  0.2573
15494TIP3   OH267896   2.264   2.739   1.648  0.0345 -0.3278  0.2498
15494TIP3    H167897   2.201   2.792   1.697  0.4708  0.2454  0.1982
15494TIP3    H267898   2.275   2.785   1.565 -0.6793 -1.2817 -0.4065
15495TIP3   OH267899   1.208   4.320   5.872  0.3162 -0.2638 -0.5935
15495TIP3    H167900   1.171   4.268   5.943 -1.0695  0.6857 -0.5853
15495TIP3    H267901   1.225   4.256   5.803 -1.0142 -0.8258 -0.4427
15496TIP3   OH267902   4.928   6.737  17.129  0.0945  0.1873  0.1716
15496TIP3    H167903   4.846   6.710  17.170  0.6412  0.5319  1.5432
15496TIP3    H267904   4.939   6.676  17.056 -0.7796 -0.6196  0.6803
15497TIP3   OH267905   1.834   5.365   5.603 -0.3145  0.1575 -0.1153
15497TIP3    H167906   1.888   5.440   5.580 -0.2330  0.1393  0.0169
15497TIP3    H267907   1.854   5.299   5.537  1.8314 -0.8401  1.4372
15498TIP3   OH267908   6.041   3.828  15.582 -0.6941  0.2288  0.2710
15498TIP3    H167909   6.097   3.800  15.510 -1.4511 -0.6078 -0.0088
15498TIP3    H267910   6.066   3.919  15.597  1.5948 -0.4604  1.0022
15499TIP3   OH267911   5.346   2.590   0.988  0.1406 -0.0184 -0.5318
15499TIP3    H167912   5.281   2.641   0.940  1.1648  0.8757 -0.9964
15499TIP3    H267913   5.428   2.637   0.976  0.9041 -1.1615 -0.0148
15500TIP3   OH267914   4.208   0.875   5.895 -0.3102  0.7043 -0.1024
15500TIP3    H167915   4.198   0.953   5.948  0.4851  1.1341 -0.5681
15500TIP3    H267916   4.130   0.823   5.914 -0.6693  1.4407  0.4825
15501TIP3   OH267917   3.603   5.771   2.854  0.1111 -0.4121 -0.0346
15501TIP3    H167918   3.589   5.715   2.931 -3.1629  1.8145  1.2091
15501TIP3    H267919   3.593   5.860   2.888  2.6261  0.8982 -2.3854
15502TIP3   OH267920   1.834   0.685  12.834 -0.1458 -0.2893  0.0627
15502TIP3    H167921   1.814   0.645  12.749  0.6382  0.8259 -0.6720
15502TIP3    H267922   1.760   0.744  12.851  1.0757  1.7220 -1.3034
15503TIP3   OH267923   5.456   4.813  11.350 -0.1833 -0.3966 -0.3771
15503TIP3    H167924   5.455   4.779  11.439 -2.5838  0.9886  0.2133
15503TIP3    H267925   5.518   4.885  11.352  0.5245 -0.9987 -0.1190
15504TIP3   OH267926   5.218   6.336   2.683  0.1898  0.2565 -0.0639
15504TIP3    H167927   5.301   6.369   2.650  0.9192  0.5402  1.8756
15504TIP3    H267928   5.181   6.409   2.733 -0.6856 -0.2146  0.0069
15505TIP3   OH267929   3.193   2.222   0.185  0.2073 -0.1345 -0.0073
15505TIP3    H167930   3.258   2.292   0.180  0.7995 -0.7419 -3.5597
15505TIP3    H267931   3.109   2.267   0.177  0.4003  0.3728  0.7415
15506TIP3   OH267932   2.324   5.566   4.152 -0.1201 -0.0554  0.0584
15506TIP3    H167933   2.342   5.472   4.144  1.3609  0.2186 -0.2021
15506TIP3    H267934   2.320   5.597   4.061 -1.1133  0.0640  0.1299
15507TIP3   OH267935   5.769   5.260   3.220  0.1033 -0.2658 -0.3422
15507TIP3    H167936   5.803   5.287   3.134 -1.4469  1.6165 -0.4268
15507TIP3    H267937   5.683   5.302   3.226  0.4157  0.1768  2.3900
15508TIP3   OH267938   0.973   3.921   3.213 -0.4848 -0.0833  0.5742
15508TIP3    H167939   0.897   3.878   3.252 -0.2695 -2.4003 -1.3680
15508TIP3    H267940   0.943   3.950   3.127 -0.0853  2.1859  1.1206
15509TIP3   OH267941   3.984   0.585  14.162  0.1756 -0.4611 -0.4967
15509TIP3    H167942   4.057   0.524  14.162 -0.3531 -1.1125 -1.1072
15509TIP3    H267943   3.951   0.583  14.072  0.9255  1.6898 -0.8807
15510TIP3   OH267944   3.778   1.678   4.985 -0.0646 -0.0636 -0.4373
15510TIP3    H167945   3.873   1.660   4.987  0.3096  1.5985  2.4572
15510TIP3    H267946   3.738   1.592   4.973  1.7654 -0.8123 -1.6830
15511TIP3   OH267947   6.470   1.296  14.998  0.0877  0.5782  0.3061
15511TIP3    H167948   6.424   1.319  14.918  1.9517 -0.0271 -0.9971
15511TIP3    H267949   6.451   1.369  15.058 -1.1066  1.1790 -0.7507
15512TIP3   OH267950   2.752   3.766  13.379  0.2407  0.0165 -0.9975
15512TIP3    H167951   2.750   3.704  13.453 -1.6901  0.4520 -0.6234
15512TIP3    H267952   2.754   3.852  13.421  4.4022  0.3481 -1.5031
15513TIP3   OH267953   4.669   1.819  11.634 -0.1081 -0.6363  0.3657
15513TIP3    H167954   4.606   1.804  11.564 -0.4357 -0.4352  0.6136
15513TIP3    H267955   4.643   1.903  11.672  2.0733  0.9475 -1.4073
15514TIP3   OH267956   1.959   2.255   1.166  0.4392  0.2543 -0.1450
15514TIP3    H167957   1.967   2.231   1.074  1.5532  0.2317 -0.0611
15514TIP3    H267958   2.005   2.338   1.174  1.1309 -0.1731  0.5387
15515TIP3   OH267959   3.489   1.218  14.405 -0.2089 -0.0956  0.4755
15515TIP3    H167960   3.449   1.132  14.397  0.5263 -0.3948 -0.0399
15515TIP3    H267961   3.433   1.276  14.354 -0.5446 -0.3249  0.5846
15516TIP3   OH267962   3.252   3.836   1.975  0.0476 -0.3550  0.0372
15516TIP3    H167963   3.262   3.808   1.884 -0.0182 -0.8853  0.1932
15516TIP3    H267964   3.278   3.760   2.027 -2.1593 -0.8917  0.4688
15517TIP3   OH267965   1.990   6.712   4.102  0.0432  0.1125 -0.3493
15517TIP3    H167966   1.912   6.728   4.156  0.7400  0.0068  0.7019
15517TIP3    H267967   1.956   6.661   4.027 -0.7164 -0.9539  0.6785
15518TIP3   OH267968   6.157   2.911   5.652  0.3407 -0.0548  0.3898
15518TIP3    H167969   6.246   2.910   5.617  0.3800  0.4717  0.4741
15518TIP3    H267970   6.169   2.916   5.747  0.2962 -3.6354  0.7410
15519TIP3   OH267971   3.037   1.300  10.438  0.6597  0.0298 -0.2066
15519TIP3    H167972   3.034   1.353  10.358 -1.6464  0.9245  0.3678
15519TIP3    H267973   2.981   1.225  10.418 -1.1229  0.9796  0.9592
15520TIP3   OH267974   6.069   4.446   4.731  0.3925  0.2974 -0.0970
15520TIP3    H167975   6.058   4.358   4.766 -0.3248  1.1958  2.2081
15520TIP3    H267976   6.002   4.454   4.663 -0.1525 -0.6496  0.3099
15521TIP3   OH267977   2.669   4.190   5.124  0.2875  0.0506  0.0939
15521TIP3    H167978   2.644   4.124   5.189  0.0579  0.1672  0.1239
15521TIP3    H267979   2.711   4.259   5.175 -0.9698  0.7079  0.2853
15522TIP3   OH267980   1.383   3.195  10.997 -0.1054  0.0758 -0.7406
15522TIP3    H167981   1.394   3.100  11.004 -0.1074  0.1469  0.4147
15522TIP3    H267982   1.290   3.207  10.975 -0.4966 -0.1574  0.6669
15523TIP3   OH267983   1.443   1.779  14.288 -0.2587 -0.2623 -0.1942
15523TIP3    H167984   1.507   1.713  14.259  0.4633  0.6107 -0.6574
15523TIP3    H267985   1.409   1.816  14.206 -1.2001 -0.5551  0.0539
15524TIP3   OH267986   6.639   5.536  10.856 -0.3092  0.0957  0.2352
15524TIP3    H167987   6.654   5.521  10.763 -1.9319  1.5878 -0.3350
15524TIP3    H267988   6.656   5.451  10.898  0.8382 -0.4960 -1.3424
15525TIP3   OH267989   0.312   2.492   3.358  0.0004 -0.0991 -0.0047
15525TIP3    H167990   0.317   2.489   3.454 -1.4136 -1.2890  0.0618
15525TIP3    H267991   0.266   2.412   3.334  1.6013 -0.5454 -1.8012
15526TIP3   OH267992   5.311   0.585  15.391 -0.2570  0.2361  0.1557
15526TIP3    H167993   5.249   0.516  15.414 -0.9932  0.4436 -1.0815
15526TIP3    H267994   5.317   0.639  15.469 -1.9761  0.4360  0.2035
15527TIP3   OH267995   4.562   4.928   1.284 -0.3400  0.0546 -0.0226
15527TIP3    H167996   4.537   4.961   1.198  0.5400  1.1428  0.1191
15527TIP3    H267997   4.521   4.989   1.346  0.7494  0.5343  0.2563
15528TIP3   OH267998   5.056   3.780  15.367  0.3163  0.1820 -0.1564
15528TIP3    H167999   5.102   3.790  15.284 -0.1059  1.0212 -0.3045
15528TIP3    H268000   5.109   3.829  15.431 -0.0768  0.7043 -0.2212
15529TIP3   OH268001   0.562   5.492  13.527 -0.3871 -0.1722 -0.1409
15529TIP3    H168002   0.594   5.402  13.534  0.5731  0.1299 -0.5658
15529TIP3    H268003   0.593   5.522  13.442 -0.0875  0.8042  0.3066
15530TIP3   OH268004   6.688   3.213  11.190 -0.4381 -0.8060 -0.2329
15530TIP3    H168005   6.744   3.240  11.118  0.9039 -2.1531  0.2427
15530TIP3    H268006   6.646   3.294  11.220  1.8984  0.4393 -0.0858
15531TIP3   OH268007   1.964   4.474   2.335 -0.1043 -0.3058  0.7683
15531TIP3    H168008   1.928   4.472   2.246 -0.8257  1.4860  0.9634
15531TIP3    H268009   1.984   4.383   2.356  0.9724 -0.6804 -1.5828
15532TIP3   OH268010   5.551   2.132   6.727  0.3490 -0.0786 -0.3591
15532TIP3    H168011   5.579   2.183   6.652 -1.7659  0.4787 -0.8332
15532TIP3    H268012   5.555   2.041   6.698  2.4292 -0.1155 -0.0949
15533TIP3   OH268013   5.387   1.559   3.404 -0.1298  0.0086  0.0567
15533TIP3    H168014   5.336   1.497   3.351  0.8592 -0.3759 -0.4737
15533TIP3    H268015   5.383   1.642   3.355  2.6382 -0.8733 -1.9291
15534TIP3   OH268016   6.634   5.850  15.669  0.1487  0.3419  0.1455
15534TIP3    H168017   6.710   5.792  15.673  0.8634  1.2968  0.5999
15534TIP3    H268018   6.644   5.908  15.744 -0.4596  1.1690 -0.4042
15535TIP3   OH268019   3.014   2.622   2.945 -0.0509 -0.6258  0.1716
15535TIP3    H168020   2.964   2.684   2.998  1.1893 -0.0753  0.7292
15535TIP3    H268021   3.034   2.550   3.004  1.4357  0.0429  0.5341
15536TIP3   OH268022   5.871   5.047   5.624  0.1652  0.1946 -0.1997
15536TIP3    H168023   5.856   5.059   5.717  1.3427  0.9189 -0.0844
15536TIP3    H268024   5.788   5.012   5.590 -0.3830  0.2547  1.0459
15537TIP3   OH268025   4.466   1.756  15.044 -0.4654  0.2850 -0.5618
15537TIP3    H168026   4.524   1.811  14.992  0.4099 -0.1915 -0.1309
15537TIP3    H268027   4.378   1.787  15.025 -0.0297  1.4040 -0.8060
15538TIP3   OH268028   3.200   6.070  13.341 -0.1064 -0.4523 -0.1238
15538TIP3    H168029   3.221   5.981  13.368 -0.5709 -0.4774  0.1748
15538TIP3    H268030   3.236   6.078  13.252 -0.1264 -0.9578 -0.1795
15539TIP3   OH268031   2.265   6.085  10.842 -0.2249  0.4741  0.0313
15539TIP3    H168032   2.318   6.151  10.888  2.3481 -2.1149  1.0637
15539TIP3    H268033   2.183   6.083  10.891 -0.1815  2.4673  0.2998
15540TIP3   OH268034   0.287   0.369  13.826  0.0372 -0.7920  0.4780
15540TIP3    H168035   0.218   0.323  13.874 -0.7854  1.3977  1.5506
15540TIP3    H268036   0.299   0.450  13.875  0.3941  0.7974 -2.0604
15541TIP3   OH268037   1.872   1.700   0.113 -0.1532 -0.4405 -0.1826
15541TIP3    H168038   1.952   1.699   0.166 -0.3811  0.4925  0.1862
15541TIP3    H268039   1.811   1.755   0.161  0.7995  3.5132 -3.0163
15542TIP3   OH268040   5.614   3.954   5.268  0.5067 -0.2353  0.7959
15542TIP3    H168041   5.602   3.969   5.174  3.5261 -2.2739 -0.0277
15542TIP3    H268042   5.537   3.903   5.294 -0.0943 -0.1328 -0.6787
15543TIP3   OH268043   3.129   0.934   1.031  0.8851 -0.1794  0.1796
15543TIP3    H168044   3.158   0.858   0.980 -1.8118  0.3230 -2.3992
15543TIP3    H268045   3.183   1.006   0.999 -0.8569  0.1558 -2.3049
15544TIP3   OH268046   2.612   4.719  12.226 -0.1672  0.2372 -0.0211
15544TIP3    H168047   2.676   4.769  12.175 -0.8076  0.5791 -0.5048
15544TIP3    H268048   2.530   4.729  12.178 -0.4022 -0.9552  0.0994
15545TIP3   OH268049   0.099   2.416   5.377 -0.0955  0.2693  0.6771
15545TIP3    H168050   0.155   2.455   5.444  0.5955  0.1049  0.2024
15545TIP3    H268051   0.039   2.360   5.427  1.5775 -1.2916  1.0643
15546TIP3   OH268052   5.453   2.480  13.603 -0.5090  0.6241 -0.1697
15546TIP3    H168053   5.459   2.518  13.691 -0.1498  0.7448 -0.2409
15546TIP3    H268054   5.393   2.538  13.556  0.7053  1.6501 -0.5357
15547TIP3   OH268055   0.199   5.804   2.667 -0.4690 -0.2877  0.4055
15547TIP3    H168056   0.220   5.890   2.633  0.4590 -0.0522  1.5073
15547TIP3    H268057   0.136   5.767   2.605 -0.5646  1.0149 -0.2834
15548TIP3   OH268058   5.875   0.920  12.220  0.0171  0.3583  0.2887
15548TIP3    H168059   5.958   0.880  12.244  0.6949  1.4805 -0.1115
15548TIP3    H268060   5.849   0.875  12.139  0.2647  0.0600  0.3735
15549TIP3   OH268061   3.602   5.996  11.164  0.0132 -0.2455 -0.0356
15549TIP3    H168062   3.616   6.041  11.248  1.4054 -0.4528 -0.1318
15549TIP3    H268063   3.507   5.987  11.157 -0.0936 -1.8626  2.3987
15550TIP3   OH268064   4.680   3.091  12.543  0.3736 -0.5132  0.1111
15550TIP3    H168065   4.636   3.076  12.460  1.6679 -1.5675 -0.4208
15550TIP3    H268066   4.771   3.111  12.520  0.5044  0.3281  1.2279
15551TIP3   OH268067   2.955   6.642  11.612  0.2908  0.3151 -0.7267
15551TIP3    H168068   2.993   6.649  11.700 -0.6365  1.4725 -0.4013
15551TIP3    H268069   2.875   6.694  11.616  0.0832  0.1440 -2.1871
15552TIP3   OH268070   6.425   0.035   1.271  0.5818  0.2084 -0.4946
15552TIP3    H168071   6.359   0.043   1.339  1.6847  2.1573  0.4549
15552TIP3    H268072   6.389   0.085   1.197  0.3999  0.0947 -0.4826
15553TIP3   OH268073   4.526   5.214  16.215 -0.2932 -0.6917 -0.3337
15553TIP3    H168074   4.440   5.234  16.178 -0.5646 -0.1027  0.5925
15553TIP3    H268075   4.551   5.294  16.261  0.4242 -1.1211  0.0265
15554TIP3   OH268076   3.562   0.166   0.993  0.6476 -0.3659  0.0227
15554TIP3    H168077   3.578   0.256   0.967 -1.7368  1.0160  2.7626
15554TIP3    H268078   3.649   0.127   1.002  1.7647  1.9112 -0.3907
15555TIP3   OH268079   2.156   5.500   3.147 -0.2271  0.4155 -0.0082
15555TIP3    H168080   2.096   5.427   3.132  1.9430 -1.7182  0.9895
15555TIP3    H268081   2.169   5.539   3.061  0.3848 -1.9665 -1.0680
15556TIP3   OH268082   0.633   0.706   4.768  1.0300 -0.1486  0.2667
15556TIP3    H168083   0.692   0.642   4.807 -1.6480 -2.4217  0.8645
15556TIP3    H268084   0.548   0.688   4.807 -0.3630  2.1855 -1.4074
15557TIP3   OH268085   5.064   0.625  12.091  0.4866  0.1259  0.0088
15557TIP3    H168086   5.119   0.699  12.118  0.3963  0.3254 -0.3530
15557TIP3    H268087   5.017   0.657  12.014  1.2003 -0.6516 -0.7673
15558TIP3   OH268088   0.284   2.705  16.842  0.5957 -0.4005  0.2860
15558TIP3    H168089   0.294   2.610  16.835  0.8025 -0.2647 -2.5584
15558TIP3    H268090   0.374   2.738  16.841  0.5464 -0.1413  1.7887
15559TIP3   OH268091   5.160   1.015  11.336 -0.0722  0.6041  0.2577
15559TIP3    H168092   5.219   1.015  11.411  0.7237 -0.4097 -0.3302
15559TIP3    H268093   5.209   1.063  11.268  0.0583 -0.1744 -0.2068
15560TIP3   OH268094   6.642   2.398  10.555  0.1074 -0.3668 -0.2683
15560TIP3    H168095   6.701   2.461  10.595 -0.1308 -0.6393  0.5321
15560TIP3    H268096   6.692   2.316  10.552  0.2424 -0.2641 -0.8434
15561TIP3   OH268097   5.525   0.427  16.598  0.2068  0.9009 -0.3716
15561TIP3    H168098   5.536   0.519  16.572  2.6833  0.8629  0.3474
15561TIP3    H268099   5.604   0.384  16.567 -0.6353 -0.8773 -0.1307
15562TIP3   OH268100   5.089   3.424   3.642  0.3015 -0.0436 -0.0606
15562TIP3    H168101   5.057   3.489   3.705  2.3875  0.6741  0.3697
15562TIP3    H268102   5.103   3.473   3.561 -1.0937 -0.6739 -0.7047
15563TIP3   OH268103   6.093   1.638   3.122  0.0688 -0.5934 -0.5005
15563TIP3    H168104   6.014   1.678   3.157  0.3730  0.4591 -0.9705
15563TIP3    H268105   6.135   1.708   3.073  1.6001 -0.9724  0.2239
15564TIP3   OH268106   1.185   2.547  15.063 -0.1866  0.5051  0.0662
15564TIP3    H168107   1.198   2.453  15.050 -0.3851  0.5526 -0.4988
15564TIP3    H268108   1.225   2.566  15.148 -1.8540 -0.4484  1.1065
15565TIP3   OH268109   3.246   2.405   0.431 -0.1004  0.1739 -0.2102
15565TIP3    H168110   3.216   2.374   0.516 -1.6223  2.3489  0.1249
15565TIP3    H268111   3.318   2.465   0.451  1.3695 -1.3120 -0.7109
15566TIP3   OH268112   0.249   1.246   3.916  0.0353  0.3493  0.2951
15566TIP3    H168113   0.331   1.295   3.905 -0.4925  1.2988  0.5156
15566TIP3    H268114   0.248   1.221   4.008  0.8773 -1.1467 -0.0691
15567TIP3   OH268115   3.182   6.136   4.002  0.2320  0.1026  0.3596
15567TIP3    H168116   3.167   6.230   3.994  0.2495  0.2043  1.3086
15567TIP3    H268117   3.100   6.096   3.975 -0.0578  0.4351  0.7314
15568TIP3   OH268118   1.947   4.947  15.331 -0.1029 -0.0932 -0.9592
15568TIP3    H168119   1.929   4.964  15.424  1.1080 -2.7320 -0.1241
15568TIP3    H268120   1.862   4.926  15.293 -0.3578 -1.1923  0.1406
15569TIP3   OH268121   3.168   2.344  11.552  0.4717 -0.0862 -0.0893
15569TIP3    H168122   3.180   2.367  11.644 -1.2038  0.1407  0.0964
15569TIP3    H268123   3.077   2.365  11.533  0.0866 -2.3956 -1.1381
15570TIP3   OH268124   4.663   4.525   2.127 -0.1593 -0.3119 -0.1994
15570TIP3    H168125   4.745   4.545   2.172  0.5520 -0.8225 -1.2384
15570TIP3    H268126   4.670   4.571   2.043 -0.6887 -0.8321 -0.5326
15571TIP3   OH268127   0.254   0.082  11.279 -0.1147 -0.0985  0.0372
15571TIP3    H168128   0.177   0.061  11.332  0.1901  0.0739  0.5579
15571TIP3    H268129   0.222   0.143  11.214 -0.0679  1.4398  1.3904
15572TIP3   OH268130   6.461   4.578  16.213 -0.0296  0.0587 -0.1712
15572TIP3    H168131   6.443   4.500  16.161  0.1050  1.2122 -2.0353
15572TIP3    H268132   6.540   4.616  16.174  0.6918  0.4377  1.5445
15573TIP3   OH268133   0.696   3.266  16.238  0.0508  0.3433 -0.0672
15573TIP3    H168134   0.725   3.253  16.147  0.4310  1.5220 -0.1292
15573TIP3    H268135   0.615   3.216  16.244  0.0646  0.1826 -1.0474
15574TIP3   OH268136   0.358   4.059   2.391  0.4295 -0.1198 -0.0374
15574TIP3    H168137   0.295   4.088   2.458 -1.0304 -0.3432 -1.2700
15574TIP3    H268138   0.405   3.987   2.433  0.7831  0.8754  1.3663
15575TIP3   OH268139   5.236   2.813  16.830 -0.0443  0.2610  0.1067
15575TIP3    H168140   5.242   2.740  16.769 -0.3449  0.1971  0.1523
15575TIP3    H268141   5.327   2.832  16.853 -0.0041 -0.7237  0.8348
15576TIP3   OH268142   6.397   5.156  15.821 -0.9528 -0.1307  0.1085
15576TIP3    H168143   6.452   5.122  15.892 -1.3404  1.4252  1.2008
15576TIP3    H268144   6.423   5.248  15.812 -1.5099 -0.0809 -1.2081
15577TIP3   OH268145   2.751   5.054   3.951  0.6084  0.2779  0.3050
15577TIP3    H168146   2.702   4.992   3.897  0.6407  0.9737 -0.5532
15577TIP3    H268147   2.841   5.049   3.919  0.2486  2.2466 -1.2653
15578TIP3   OH268148   3.481   1.974  14.039 -0.0029  0.1560  0.1516
15578TIP3    H168149   3.408   2.022  14.078 -0.7490 -0.9923  0.1994
15578TIP3    H268150   3.449   1.885  14.028  1.6932 -0.6152  1.0379
15579TIP3   OH268151   1.259   4.483  14.236 -0.2267 -0.2791 -0.6267
15579TIP3    H168152   1.296   4.438  14.312  0.9302  1.0581 -0.3601
15579TIP3    H268153   1.200   4.549  14.273  0.0539  0.1294 -0.9003
15580TIP3   OH268154   0.576   1.861  12.898  0.3559 -1.0878  0.1554
15580TIP3    H168155   0.505   1.915  12.862  0.5678 -0.6091  0.4544
15580TIP3    H268156   0.531   1.789  12.943  0.0002  0.0696  1.7301
15581TIP3   OH268157   3.882   1.115   3.093  0.2587  0.2237  0.1003
15581TIP3    H168158   3.824   1.102   3.018  1.2348 -0.9722 -0.4963
15581TIP3    H268159   3.953   1.169   3.059  0.6600 -0.2519  0.1707
15582TIP3   OH268160   3.327   6.238   6.533 -0.0945 -0.5359  0.9825
15582TIP3    H168161   3.390   6.174   6.500  0.7488  0.5226  0.5005
15582TIP3    H268162   3.379   6.300   6.584 -0.8894 -0.1719  1.3767
15583TIP3   OH268163   3.150   6.409  14.807  0.4065 -0.4463  0.2278
15583TIP3    H168164   3.227   6.465  14.813 -0.5415  0.8693  0.3721
15583TIP3    H268165   3.084   6.463  14.765 -0.6396 -1.3486  0.6660
15584TIP3   OH268166   6.384   3.804  13.792 -0.1451 -0.3855  0.1156
15584TIP3    H168167   6.358   3.869  13.858  0.5605  2.0508 -1.8523
15584TIP3    H268168   6.324   3.820  13.719  0.8202 -1.1681 -0.8693
15585TIP3   OH268169   0.179   0.488   5.578 -0.0439 -0.0349  0.8465
15585TIP3    H168170   0.214   0.573   5.606 -1.4307  0.3384  1.5363
15585TIP3    H268171   0.231   0.424   5.626  0.1211  0.4795  1.3622
15586TIP3   OH268172   2.071   4.511  11.781 -0.0915  0.1440  0.0800
15586TIP3    H168173   2.035   4.592  11.745 -0.5893 -0.4106 -0.6891
15586TIP3    H268174   2.031   4.441  11.729 -0.7900 -0.6922  1.6578
15587TIP3   OH268175   3.468   1.873  15.573  0.1547 -0.0042  0.4046
15587TIP3    H168176   3.544   1.829  15.536  1.7563  3.4597 -0.9105
15587TIP3    H268177   3.433   1.811  15.636  3.0285 -2.4585 -0.1500
15588TIP3   OH268178   5.371   1.853  15.242  0.8066  0.3924  0.0631
15588TIP3    H168179   5.367   1.929  15.184  2.2908 -0.0484 -0.6397
15588TIP3    H268180   5.347   1.779  15.187 -1.2308  0.3693  0.8884
15589TIP3   OH268181   1.836   0.543   3.488  0.1506  0.2922  0.0386
15589TIP3    H168182   1.768   0.495   3.440  1.0707 -0.0518 -0.9503
15589TIP3    H268183   1.808   0.538   3.580  0.2333 -2.2127  0.0018
15590TIP3   OH268184   6.717   1.684  13.961 -0.0458  0.5739  0.4561
15590TIP3    H168185   6.772   1.690  14.039  0.3438 -0.7410  0.3026
15590TIP3    H268186   6.776   1.654  13.892 -0.7936 -0.1315  0.1046
15591TIP3   OH268187   2.456   4.224   4.221  0.0691 -0.5361 -0.0893
15591TIP3    H168188   2.437   4.131   4.207  1.8379 -0.9046 -0.2328
15591TIP3    H268189   2.516   4.225   4.295  3.6019  0.0592 -2.7406
15592TIP3   OH268190   1.961   0.771  16.997 -0.0638  0.3081  0.7272
15592TIP3    H168191   1.992   0.745  16.910 -0.9766 -2.2085  1.0499
15592TIP3    H268192   1.923   0.858  16.984 -0.0697  0.0485 -1.3729
15593TIP3   OH268193   6.711   3.349  14.510  0.4775  0.1072  0.3183
15593TIP3    H168194   6.709   3.253  14.515  3.1177 -0.1296 -1.0213
15593TIP3    H268195   6.648   3.371  14.442  1.3839 -0.9303 -0.9243
15594TIP3   OH268196   0.799   0.864   1.150  0.3566 -0.4534 -0.6484
15594TIP3    H168197   0.814   0.814   1.230  0.0764 -0.3392 -0.5225
15594TIP3    H268198   0.771   0.799   1.086 -1.3398 -0.3002 -0.1183
15595TIP3   OH268199   2.570   5.319   6.410  0.1785  0.8212  0.4314
15595TIP3    H168200   2.666   5.313   6.408  0.1652  0.3762 -2.3310
15595TIP3    H268201   2.541   5.228   6.420  0.0118  0.9782  1.5011
15596TIP3   OH268202   2.941   4.880   4.287  0.2675 -0.2418  0.0322
15596TIP3    H168203   2.922   4.973   4.275  0.1592 -0.2227  0.3495
15596TIP3    H268204   2.929   4.841   4.200 -1.0702 -0.2100  0.1950
15597TIP3   OH268205   6.670   3.854   3.006 -0.4061  0.4094  0.2160
15597TIP3    H168206   6.728   3.930   3.000 -0.5424  0.4980 -0.0047
15597TIP3    H268207   6.728   3.780   3.020 -0.2972  0.6016  0.7801
15598TIP3   OH268208   6.254   5.888  16.757 -0.2339 -0.2456 -0.2090
15598TIP3    H168209   6.171   5.865  16.798  0.1404 -0.7882  0.2581
15598TIP3    H268210   6.320   5.870  16.824  0.1297  1.8761  0.1009
15599TIP3   OH268211   3.028   1.877  15.648 -0.0050  0.0316  0.4232
15599TIP3    H168212   3.120   1.903  15.649 -0.3564  1.3863 -0.3204
15599TIP3    H268213   3.028   1.788  15.613  1.1668 -0.7253  2.2074
15600TIP3   OH268214   3.109   3.692  15.631 -0.3773  0.5762 -0.2549
15600TIP3    H168215   3.191   3.732  15.659 -0.9494  1.3453  0.3787
15600TIP3    H268216   3.052   3.767  15.610 -1.0257  0.0611 -0.3631
15601TIP3   OH268217   3.837   2.677  12.320 -0.1699 -0.0451  0.2749
15601TIP3    H168218   3.815   2.597  12.369 -0.8761  0.0345  0.0990
15601TIP3    H268219   3.776   2.677  12.246  1.2773 -0.4903 -0.9742
15602TIP3   OH268220   2.606   1.262  16.546  0.4199  0.1404  0.1619
15602TIP3    H168221   2.592   1.280  16.454  1.0640  0.1162  0.0551
15602TIP3    H268222   2.526   1.216  16.574 -0.7078  2.0076  0.1543
15603TIP3   OH268223   2.836   0.231   0.234  0.0487  0.3296  0.2107
15603TIP3    H168224   2.788   0.149   0.221 -1.4991  1.0114  1.3099
15603TIP3    H268225   2.795   0.292   0.172 -0.6576  0.9578  1.2646
15604TIP3   OH268226   6.386   1.590  10.772  0.5513  0.1664  0.4119
15604TIP3    H168227   6.449   1.564  10.705  0.4546  0.4365  0.2167
15604TIP3    H268228   6.327   1.515  10.781  1.1542 -0.2579  0.8997
15605TIP3   OH268229   2.515   4.236   4.898 -0.2613  0.1327  0.2901
15605TIP3    H168230   2.601   4.205   4.871 -1.1993 -1.9909 -0.4793
15605TIP3    H268231   2.519   4.238   4.993  0.4466 -0.6357  0.2907
15606TIP3   OH268232   3.045   4.820  15.957 -0.1218 -0.0518 -0.5517
15606TIP3    H168233   3.105   4.779  16.019 -0.3217 -1.2804 -1.1423
15606TIP3    H268234   2.976   4.755  15.944 -0.0233  0.1418 -2.1531
15607TIP3   OH268235   3.118   0.500   5.415  0.2478  0.0552 -0.1519
15607TIP3    H168236   3.090   0.552   5.490 -1.0020 -0.8184  0.0058
15607TIP3    H268237   3.037   0.476   5.370  0.7778 -1.6388 -0.2847
15608TIP3   OH268238   0.171   0.711   4.098  0.3282 -0.3514  0.0510
15608TIP3    H168239   0.084   0.750   4.089  1.0157  0.8797 -2.0396
15608TIP3    H268240   0.165   0.655   4.175 -2.0779  0.3080  0.4109
15609TIP3   OH268241   0.593   3.285  11.698 -0.1547 -0.1276  0.4225
15609TIP3    H168242   0.532   3.323  11.635 -0.6961 -1.5800  0.0342
15609TIP3    H268243   0.662   3.350  11.706 -0.9790  0.8786 -0.2976
15610TIP3   OH268244   2.373   5.821  11.874  0.0114 -0.3474 -0.1953
15610TIP3    H168245   2.366   5.885  11.946  1.2113 -0.7807  0.3260
15610TIP3    H268246   2.328   5.743  11.907  0.9958 -0.7180  0.3067
15611TIP3   OH268247   3.781   5.344  14.213 -0.2587 -0.2578 -0.3051
15611TIP3    H168248   3.699   5.339  14.165  0.9114  0.7686 -2.5805
15611TIP3    H268249   3.848   5.321  14.149  1.6311  3.4450  0.0572
15612TIP3   OH268250   2.716   5.997   3.337  0.6045  0.6464 -0.3878
15612TIP3    H168251   2.789   5.960   3.287 -0.0747 -1.8152  0.3225
15612TIP3    H268252   2.697   5.931   3.404 -1.6657  1.6516  0.0243
15613TIP3   OH268253   5.255   2.031   4.410 -0.0330 -0.4713 -0.8395
15613TIP3    H168254   5.224   1.996   4.493 -1.5955  2.0110 -0.2588
15613TIP3    H268255   5.243   1.960   4.347 -1.7212 -1.4329  0.4982
15614TIP3   OH268256   1.544   1.258   0.093  0.3501 -0.5072 -0.3136
15614TIP3    H168257   1.530   1.306   0.012  1.6062 -0.7606 -0.7109
15614TIP3    H268258   1.581   1.322   0.153  0.6238 -0.6071 -0.3695
15615TIP3   OH268259   0.758   3.260   5.896  0.3889  0.1291 -0.0286
15615TIP3    H168260   0.712   3.186   5.857 -0.1614  0.7026 -0.4903
15615TIP3    H268261   0.786   3.228   5.982 -0.1228 -0.5129 -0.0913
15616TIP3   OH268262   6.013   1.560  16.781 -0.2778  0.1961  0.1549
15616TIP3    H168263   5.917   1.557  16.790 -0.1647 -1.2758  1.2237
15616TIP3    H268264   6.038   1.636  16.834 -0.8024  0.0631  0.6144
15617TIP3   OH268265   3.887   0.129  12.126  0.4820 -0.0273 -0.1897
15617TIP3    H168266   3.982   0.116  12.137  0.6335 -0.3988 -1.7237
15617TIP3    H268267   3.868   0.207  12.178  2.1641  1.6855 -1.9219
15618TIP3   OH268268   3.500   6.146  14.128 -0.4913  0.0205  0.3599
15618TIP3    H168269   3.485   6.215  14.193  0.0822 -0.2707  0.8080
15618TIP3    H268270   3.449   6.072  14.160 -0.4837 -0.0164  0.2873
15619TIP3   OH268271   2.070   6.517   5.677 -0.2445 -0.4120  0.2268
15619TIP3    H168272   2.089   6.579   5.607 -2.1677  0.5234  0.4708
15619TIP3    H268273   1.974   6.517   5.684 -0.1238 -0.0452  3.2108
15620TIP3   OH268274   3.676   2.607  16.793 -0.0321 -0.8719  0.1897
15620TIP3    H168275   3.665   2.553  16.872 -1.4777  0.9291  1.3031
15620TIP3    H268276   3.587   2.619  16.761  0.3667  0.0432 -0.5902
15621TIP3   OH268277   3.686   1.015  13.637  0.1685 -0.3933 -0.6911
15621TIP3    H168278   3.626   0.975  13.700  0.3085  0.5493  0.0637
15621TIP3    H268279   3.773   0.995  13.672  0.2531 -0.2077 -0.7975
15622TIP3   OH268280   1.130   2.731   5.312 -0.7481 -0.1803  0.2433
15622TIP3    H168281   1.176   2.674   5.250  2.8876 -0.0400  2.4778
15622TIP3    H268282   1.143   2.820   5.277  0.3505 -0.1843  0.6092
15623TIP3   OH268283   6.019   4.893  14.009 -0.3684 -0.3752  0.3339
15623TIP3    H168284   6.108   4.869  14.036  0.0603  1.2534  0.5066
15623TIP3    H268285   6.031   4.929  13.921 -1.3136 -2.7896 -0.8738
15624TIP3   OH268286   4.696   2.251   0.292 -0.0826 -0.0725  0.4265
15624TIP3    H168287   4.627   2.295   0.342 -0.5077 -0.1765 -0.0646
15624TIP3    H268288   4.754   2.214   0.358 -1.2964 -1.2563  0.8526
15625TIP3   OH268289   3.296   0.190   0.046  0.2263 -0.4844  0.3543
15625TIP3    H168290   3.240   0.262   0.018  1.3782 -0.3959 -2.0621
15625TIP3    H268291   3.351   0.227   0.115 -0.5524  0.3328  0.5566
15626TIP3   OH268292   6.487   4.444  12.894  0.0042  0.3239 -0.6915
15626TIP3    H168293   6.564   4.489  12.858 -0.3571  3.3382  1.8760
15626TIP3    H268294   6.523   4.388  12.963  0.0710 -0.2684 -1.1928
15627TIP3   OH268295   5.194   2.479   3.905 -0.5343  0.1656  0.6038
15627TIP3    H168296   5.118   2.520   3.862 -0.3371  1.4833  1.4522
15627TIP3    H268297   5.156   2.416   3.966 -0.8432 -1.0560 -0.7977
15628TIP3   OH268298   1.939   2.947   0.118 -0.2450  0.1751  0.4642
15628TIP3    H168299   1.957   2.968   0.027 -0.7321  0.4167  0.4211
15628TIP3    H268300   1.941   2.851   0.121 -1.3826  0.1110 -0.0586
15629TIP3   OH268301   5.729   6.017  11.934  0.5345  0.4975  0.1691
15629TIP3    H168302   5.801   5.955  11.925  0.6681  0.8047 -1.0660
15629TIP3    H268303   5.687   5.994  12.017  1.0754 -0.7079  0.1218
15630TIP3   OH268304   3.922   5.806   4.782 -0.2946 -0.1437 -0.0319
15630TIP3    H168305   3.897   5.754   4.858  1.2850 -2.1993 -0.8343
15630TIP3    H268306   3.899   5.752   4.707 -0.8432  1.3876 -1.0065
15631TIP3   OH268307   5.315   2.096   5.747 -0.5490 -0.2525 -0.6251
15631TIP3    H168308   5.266   2.095   5.830 -0.6929  2.4187 -0.5892
15631TIP3    H268309   5.391   2.041   5.764 -1.6982 -1.5880  0.5090
15632TIP3   OH268310   5.205   5.716  16.019  0.7012  0.2675  0.0166
15632TIP3    H168311   5.152   5.791  15.992 -1.4270 -1.3205 -0.4884
15632TIP3    H268312   5.247   5.686  15.938  1.4616  0.8227  0.1987
15633TIP3   OH268313   0.275   2.428   3.652  0.1584  0.4326  0.1195
15633TIP3    H168314   0.213   2.475   3.708 -0.4043  1.4439 -1.2866
15633TIP3    H268315   0.223   2.356   3.615  0.3754  0.1086  0.4334
15634TIP3   OH268316   4.607   5.349  11.968 -0.6632  0.4385  0.9618
15634TIP3    H168317   4.664   5.379  12.038 -1.1942  0.8855  1.2035
15634TIP3    H268318   4.660   5.355  11.889 -0.0289 -0.1639  1.3334
15635TIP3   OH268319   5.920   6.451  16.962  0.5617 -0.1846 -0.2397
15635TIP3    H168320   6.005   6.417  16.934  0.3007 -0.3439 -0.8718
15635TIP3    H268321   5.934   6.544  16.975  0.5093  0.0763 -1.7992
15636TIP3   OH268322   5.208   0.301  16.087 -0.0773 -0.1179 -0.2165
15636TIP3    H168323   5.280   0.356  16.058 -0.1568  0.1486  0.0822
15636TIP3    H268324   5.144   0.305  16.016 -0.1682  0.3410 -0.1153
15637TIP3   OH268325   0.473   3.684  16.636  0.6112  0.2553 -0.2878
15637TIP3    H168326   0.447   3.651  16.550 -0.5968  2.4928 -0.8544
15637TIP3    H268327   0.556   3.728  16.620 -0.5812  2.4335 -0.8126
15638TIP3   OH268328   0.587   0.019   4.974 -0.1453 -0.3958 -0.2193
15638TIP3    H168329   0.492   0.021   4.978 -0.1492  0.7354 -0.4150
15638TIP3    H268330   0.615   0.096   5.023  0.5525  0.6916 -2.1924
15639TIP3   OH268331   1.861   6.139  15.682  0.3063 -0.1901 -0.1334
15639TIP3    H168332   1.880   6.164  15.591 -1.9425  1.8469 -0.1469
15639TIP3    H268333   1.888   6.215  15.734  1.1810 -1.1716  0.8910
15640TIP3   OH268334   1.906   0.921  16.591  0.5880 -0.4754  0.4004
15640TIP3    H168335   1.886   1.015  16.587 -0.7809 -0.7217  1.0100
15640TIP3    H268336   1.828   0.878  16.556  0.7177 -1.4277  1.2386
15641TIP3   OH268337   2.259   0.174   1.681  0.0394  0.4622  0.4649
15641TIP3    H168338   2.342   0.131   1.657  0.5288  0.6805  1.6998
15641TIP3    H268339   2.208   0.105   1.723 -0.5298  0.2591 -0.5407
15642TIP3   OH268340   1.231   1.230  14.413 -0.9569 -0.3681  0.5342
15642TIP3    H168341   1.183   1.279  14.480  0.6366 -0.9844  2.2038
15642TIP3    H268342   1.311   1.201  14.456  0.4972 -0.2258 -1.8529
15643TIP3   OH268343   5.403   1.436  14.862 -0.4012  0.5818 -0.3662
15643TIP3    H168344   5.315   1.452  14.828 -0.8814 -0.1890  0.4928
15643TIP3    H268345   5.404   1.344  14.886 -0.3819  1.2162  2.4553
15644TIP3   OH268346   2.916   6.345  15.676  0.2995  0.5769  0.3247
15644TIP3    H168347   2.912   6.265  15.727  0.9078  0.9393  0.9714
15644TIP3    H268348   2.836   6.393  15.698 -1.7391 -1.2009 -2.4827
15645TIP3   OH268349   2.100   2.394  15.110  0.2241  0.1391 -0.1568
15645TIP3    H168350   2.017   2.348  15.124 -0.4849  0.2071 -3.4819
15645TIP3    H268351   2.159   2.326  15.077  0.3618  0.8023 -1.3159
15646TIP3   OH268352   0.516   1.419   3.992 -0.2829 -0.6147 -0.1036
15646TIP3    H168353   0.583   1.417   3.923  0.9401  1.7513  0.9268
15646TIP3    H268354   0.479   1.507   3.988 -0.9226 -0.7644  1.6148
15647TIP3   OH268355   3.895   0.960  11.901  0.1478 -0.0235  0.1260
15647TIP3    H168356   3.852   0.941  11.817 -0.9233  0.4236  0.5558
15647TIP3    H268357   3.845   0.909  11.965  0.0611  0.7536  0.6839
15648TIP3   OH268358   6.387   1.767  13.276 -0.1790  0.4097  0.4265
15648TIP3    H168359   6.361   1.815  13.355 -0.7424 -0.4798  0.7922
15648TIP3    H268360   6.438   1.693  13.309 -2.1811 -1.1633  0.1472
15649TIP3   OH268361   0.279   6.568  12.650  0.3987 -0.2186  0.1407
15649TIP3    H168362   0.288   6.643  12.709 -3.1910  0.3241  0.2127
15649TIP3    H268363   0.365   6.559  12.610  1.1636  3.5971  0.5212
15650TIP3   OH268364   4.059   1.922   4.399  0.2425  0.2786 -0.2013
15650TIP3    H168365   4.143   1.943   4.359 -0.3821  0.1380 -1.6355
15650TIP3    H268366   4.033   1.839   4.358 -0.7316  0.4632  0.0192
15651TIP3   OH268367   1.640   3.101   3.348  0.1196 -0.1219  0.1258
15651TIP3    H168368   1.668   3.127   3.436 -0.4923 -0.8874  0.5644
15651TIP3    H268369   1.680   3.015   3.335 -0.6439 -0.4754  0.0847
15652TIP3   OH268370   2.898   0.653   1.965  0.4317  0.1266  1.0868
15652TIP3    H168371   2.879   0.737   2.008  0.3571  0.1181  1.0708
15652TIP3    H268372   2.991   0.638   1.982  0.6431  0.6087  0.4030
15653TIP3   OH268373   2.637   1.519  16.632  0.2221 -0.2017  0.0265
15653TIP3    H168374   2.610   1.433  16.601  1.4992 -0.4941 -0.3371
15653TIP3    H268375   2.603   1.523  16.722 -1.0696 -0.4898 -0.4266
15654TIP3   OH268376   4.564   4.722   2.359  0.5034  0.2943  0.1757
15654TIP3    H168377   4.596   4.793   2.303 -0.2504  1.5469  1.2653
15654TIP3    H268378   4.614   4.733   2.441  1.2327 -1.1953 -0.0404
15655TIP3   OH268379   3.139   6.390   0.369 -0.4880 -0.3019  0.4309
15655TIP3    H168380   3.164   6.479   0.346 -0.7271 -0.7055 -1.5016
15655TIP3    H268381   3.206   6.335   0.330 -1.8204 -1.1106 -0.8041
15656TIP3   OH268382   5.373   4.417   0.945  0.7370  0.2006  0.2884
15656TIP3    H168383   5.289   4.417   0.991  0.2908 -0.9521 -0.4611
15656TIP3    H268384   5.415   4.498   0.971 -0.4570  0.6268  0.9733
15657TIP3   OH268385   2.988   1.476   1.354  0.0281  0.3352  0.5050
15657TIP3    H168386   3.077   1.481   1.388 -0.2081 -0.0600  1.1826
15657TIP3    H268387   2.945   1.410   1.407 -0.7361  0.6736  0.3196
15658TIP3   OH268388   4.153   4.648   6.007 -0.2783  0.0717 -0.1714
15658TIP3    H168389   4.117   4.720   6.059 -0.2270  0.3301 -0.4893
15658TIP3    H268390   4.185   4.690   5.927  0.2549 -0.2322 -0.1167
15659TIP3   OH268391   4.739   5.241   4.616  0.0033 -0.0764 -0.1124
15659TIP3    H168392   4.792   5.184   4.560 -1.3972  1.7640 -3.6338
15659TIP3    H268393   4.649   5.211   4.602 -0.9603  3.4749 -3.1822
15660TIP3   OH268394   0.318   4.918   2.504 -0.1391  0.7348 -0.0466
15660TIP3    H168395   0.318   4.869   2.587 -1.7672  0.6174 -0.0942
15660TIP3    H268396   0.306   5.009   2.530  0.7337  0.8677 -0.0868
15661TIP3   OH268397   0.056   6.724  17.035 -0.0407 -0.5525  0.0649
15661TIP3    H168398  -0.008   6.653  17.029  1.1713 -1.5848 -1.4359
15661TIP3    H268399   0.141   6.680  17.033  0.7511  0.8542  0.8615
15662TIP3   OH268400   1.943   6.458  15.575 -0.6139 -0.1473  0.4198
15662TIP3    H168401   1.998   6.443  15.499 -2.9615 -1.4509 -1.1354
15662TIP3    H268402   1.969   6.391  15.638 -0.9525 -1.2990 -0.6330
15663TIP3   OH268403   5.970   6.043  13.047  0.0029 -0.1697  0.0228
15663TIP3    H168404   5.920   6.005  12.974  0.2836 -0.4720 -0.0127
15663TIP3    H268405   5.923   6.123  13.069 -1.1003 -0.9837  0.6874
15664TIP3   OH268406   5.615   6.760  16.405  0.7087  0.3795 -0.2309
15664TIP3    H168407   5.525   6.743  16.432  0.9254  0.3874  0.5051
15664TIP3    H268408   5.668   6.698  16.455  1.1031  0.2446 -0.7996
15665TIP3   OH268409   1.294   2.265   1.945  0.2926 -0.0022  0.3303
15665TIP3    H168410   1.359   2.199   1.967 -0.5553 -0.8547  0.3867
15665TIP3    H268411   1.300   2.330   2.015  2.0814  0.7300 -0.4499
15666TIP3   OH268412   1.667   1.423   5.251  0.1465 -0.5567 -0.1807
15666TIP3    H168413   1.680   1.330   5.231  1.2362 -0.2258 -1.1289
15666TIP3    H268414   1.573   1.435   5.248 -0.1978 -2.0157  1.8572
15667TIP3   OH268415   4.932   1.916  13.605 -0.4919  0.6667  0.1119
15667TIP3    H168416   4.981   1.928  13.523  0.0800  1.5162  0.5634
15667TIP3    H268417   4.943   1.823  13.625 -0.7970  0.4032 -0.8700
15668TIP3   OH268418   3.729   4.488  13.942 -0.4192  0.4625  0.4247
15668TIP3    H168419   3.721   4.402  13.982  0.4363 -0.9031 -2.1281
15668TIP3    H268420   3.799   4.531  13.992 -1.6846  0.2290  2.5094
15669TIP3   OH268421   4.286   0.932  12.764  0.1125 -0.0129  0.1308
15669TIP3    H168422   4.356   0.950  12.701 -0.8960  1.9759 -0.5141
15669TIP3    H268423   4.235   1.013  12.766 -0.6433 -0.4703  2.5597
15670TIP3   OH268424   2.799   5.886   4.675  0.0908  0.5423  0.1627
15670TIP3    H168425   2.781   5.877   4.582 -2.3328  0.2480  0.5800
15670TIP3    H268426   2.777   5.801   4.712 -0.2394  1.0329  1.1403
15671TIP3   OH268427   4.636   3.725  15.340  0.3819  0.3621  0.2615
15671TIP3    H168428   4.600   3.701  15.425 -0.4391 -1.0747 -0.4595
15671TIP3    H268429   4.662   3.642  15.300  0.5214  0.9823 -0.9948
15672TIP3   OH268430   2.357   4.141  14.328  0.1401 -0.3721  0.1392
15672TIP3    H168431   2.366   4.236  14.333 -1.1868 -0.1804 -0.7088
15672TIP3    H268432   2.413   4.116  14.254  0.6875 -0.2872  0.5209
15673TIP3   OH268433   3.631   6.113  13.896  0.4202  0.7073 -0.4780
15673TIP3    H168434   3.583   6.138  13.975  0.7631  0.2315 -0.1072
15673TIP3    H268435   3.705   6.062  13.929 -0.8306 -1.7483 -1.2179
15674TIP3   OH268436   4.507   1.838  17.092  0.1235  0.1910 -0.1436
15674TIP3    H168437   4.432   1.853  17.149  1.0153 -0.1821  1.1810
15674TIP3    H268438   4.515   1.918  17.040  0.4156  1.3483  1.6087
15675TIP3   OH268439   6.476   2.268   5.498  0.1926 -0.3218  0.3519
15675TIP3    H168440   6.443   2.351   5.533  1.1479  0.1007  0.2827
15675TIP3    H268441   6.569   2.269   5.519  0.7031 -0.2703 -1.7407
15676TIP3   OH268442   2.423   1.396  13.102  0.4947  0.4354 -0.1172
15676TIP3    H168443   2.451   1.367  13.188  0.0200 -0.7211 -0.3332
15676TIP3    H268444   2.368   1.473  13.119 -2.3711 -1.6631  0.9684
15677TIP3   OH268445   1.928   3.965   3.458  0.5547  0.1073 -0.1805
15677TIP3    H168446   2.005   3.983   3.512 -0.3460 -1.1949  1.6694
15677TIP3    H268447   1.864   3.928   3.520 -1.3339  0.5387 -1.7627
15678TIP3   OH268448   1.978   4.995   6.421 -0.4978 -0.0380  0.1661
15678TIP3    H168449   1.968   4.921   6.480  0.3697 -0.0599  0.3095
15678TIP3    H268450   2.060   4.977   6.375 -0.0254  1.0585  0.5491
15679TIP3   OH268451   0.160   3.394  14.618  0.7307  0.2997 -0.1864
15679TIP3    H168452   0.077   3.378  14.573 -0.3148  1.3369  1.2770
15679TIP3    H268453   0.213   3.442  14.555  0.0169  0.1103 -0.9431
15680TIP3   OH268454   3.796   6.321  14.019  0.0807 -0.8438 -1.2080
15680TIP3    H168455   3.884   6.282  14.023 -0.4518 -1.9783  1.1248
15680TIP3    H268456   3.746   6.260  13.964  0.4180 -0.9461 -1.4040
15681TIP3   OH268457   1.920   1.979   6.496 -0.2272 -0.0835  0.1738
15681TIP3    H168458   1.929   1.884   6.493 -2.0307 -0.2647 -2.7681
15681TIP3    H268459   1.842   1.998   6.444 -0.4042  2.9882  1.3433
15682TIP3   OH268460   4.229   6.605   2.041  0.2832 -0.4754  0.3767
15682TIP3    H168461   4.179   6.524   2.041  0.6912 -0.7340  0.8889
15682TIP3    H268462   4.197   6.653   2.118 -1.4857  0.8287 -1.0977
15683TIP3   OH268463   0.784   0.761   2.361 -0.0075  0.1136  0.4688
15683TIP3    H168464   0.731   0.838   2.384 -2.5926 -1.4636  0.2654
15683TIP3    H268465   0.738   0.722   2.286  1.9473 -0.9498 -0.2471
15684TIP3   OH268466   6.039   4.060  14.141 -0.0339  0.4775 -0.1628
15684TIP3    H168467   6.107   4.097  14.084 -0.0033 -1.1670 -1.2363
15684TIP3    H268468   5.961   4.112  14.121  0.4005  1.0414 -0.4264
15685TIP3   OH268469   6.595   5.544   3.678 -0.2609 -0.6044  0.2132
15685TIP3    H168470   6.556   5.488   3.612  0.2316 -0.6051 -0.0809
15685TIP3    H268471   6.524   5.602   3.707 -0.8953 -1.6755  0.8535
15686TIP3   OH268472   1.312   2.141  17.111  0.1035  0.3521 -0.7386
15686TIP3    H168473   1.313   2.049  17.082 -0.9009  0.3751 -0.8737
15686TIP3    H268474   1.263   2.187  17.043 -2.8463  0.3173  1.1907
15687TIP3   OH268475   2.678   1.534   2.380  0.1044  0.8394 -0.1143
15687TIP3    H168476   2.646   1.548   2.291  2.0587 -0.0972 -1.0354
15687TIP3    H268477   2.639   1.450   2.406 -0.9691  1.4159  0.1839
15688TIP3   OH268478   6.577   2.177  13.777  0.5585  0.3960 -0.1725
15688TIP3    H168479   6.596   2.094  13.820  1.1607 -0.5170 -2.0853
15688TIP3    H268480   6.502   2.212  13.825  0.1887 -1.3201  0.5882
15689TIP3   OH268481   3.954   0.814   1.282  0.1666  0.1952 -0.0670
15689TIP3    H168482   4.016   0.765   1.335  2.3519  0.7643 -1.8928
15689TIP3    H268483   4.009   0.856   1.215 -2.1397  1.3576 -1.3471
15690TIP3   OH268484   2.919   1.379  11.765  0.1845  0.2215 -0.0086
15690TIP3    H168485   2.918   1.285  11.750 -0.4052  0.3153 -0.5693
15690TIP3    H268486   2.998   1.410  11.721 -0.1976  0.1379 -0.7685
15691TIP3   OH268487   0.900   3.702   0.294 -0.1222 -0.5348  0.2058
15691TIP3    H168488   0.902   3.649   0.374  1.0284 -2.7329 -1.1723
15691TIP3    H268489   0.988   3.740   0.289 -0.1989 -0.3824  0.0227
15692TIP3   OH268490   5.783   6.609  15.806 -0.2713  0.3219 -0.2523
15692TIP3    H168491   5.714   6.583  15.745 -0.5635 -0.9388  0.5673
15692TIP3    H268492   5.864   6.578  15.764 -0.5100 -0.9272  0.1547
15693TIP3   OH268493   2.691   4.980   3.015  0.5450 -0.3219  0.4735
15693TIP3    H168494   2.623   4.944   3.073  1.6913 -1.2504  1.2865
15693TIP3    H268495   2.705   5.069   3.047  0.5090 -0.5135  1.0321
15694TIP3   OH268496   3.815   3.014  11.345 -0.2495 -0.4745 -0.1093
15694TIP3    H168497   3.728   2.974  11.347 -0.1221 -0.7313  1.2479
15694TIP3    H268498   3.868   2.960  11.403  0.7518 -0.1498 -0.6974
15695TIP3   OH268499   5.080   1.519  13.355 -0.5838  0.6922 -0.3473
15695TIP3    H168500   5.143   1.522  13.283 -1.1863 -0.0171 -0.9190
15695TIP3    H268501   5.094   1.601  13.402  1.4933  0.0850  0.1713
15696TIP3   OH268502   6.509   3.987   5.202  0.0864 -0.0017 -0.0253
15696TIP3    H168503   6.599   3.968   5.175 -0.2896 -1.0239 -0.5988
15696TIP3    H268504   6.509   4.081   5.220  0.9883  0.2272 -1.1352
15697TIP3   OH268505   0.387   2.137   6.108 -0.0512 -0.3729  0.7175
15697TIP3    H168506   0.328   2.062   6.117 -0.3359 -0.1687  0.5255
15697TIP3    H268507   0.330   2.212   6.094  0.1970  0.0186  1.7308
15698TIP3   OH268508   2.396   3.198  16.852 -0.0140 -0.3465 -0.2350
15698TIP3    H168509   2.436   3.267  16.800 -0.4393  0.3482  0.3308
15698TIP3    H268510   2.302   3.204  16.833 -0.1299 -0.3259  0.3293
15699TIP3   OH268511   3.189   0.384   5.760  0.1816  0.2052  0.1154
15699TIP3    H168512   3.191   0.333   5.840  1.1861 -1.1728 -0.7447
15699TIP3    H268513   3.129   0.338   5.702  0.9666  0.0622 -0.6109
15700TIP3   OH268514   4.704   5.820   0.913 -0.2436  0.5537  0.5869
15700TIP3    H168515   4.794   5.851   0.925 -0.4751  1.5410 -0.0907
15700TIP3    H268516   4.710   5.725   0.919  0.6264  0.6677  1.9821
15701TIP3   OH268517   1.266   5.671   0.316 -0.2991  0.4512 -0.0879
15701TIP3    H168518   1.235   5.591   0.360  0.6239 -0.8343 -1.6374
15701TIP3    H268519   1.310   5.721   0.385  0.4303 -1.1189  0.6500
15702TIP3   OH268520   1.101   3.361   2.571 -0.4410 -0.2964 -0.0283
15702TIP3    H168521   1.165   3.292   2.593 -0.4818 -0.1807  0.4543
15702TIP3    H268522   1.078   3.343   2.480  0.8258  0.0840 -0.4582
15703TIP3   OH268523   2.797   6.639   4.404 -0.3477 -0.0908 -0.2735
15703TIP3    H168524   2.830   6.550   4.393  0.2670  0.0329  0.4276
15703TIP3    H268525   2.806   6.656   4.498 -0.4880  0.6957 -0.3944
15704TIP3   OH268526   5.740   4.391  11.301  0.1558  0.6020  0.4338
15704TIP3    H168527   5.731   4.473  11.254 -0.6498  0.6057  0.5738
15704TIP3    H268528   5.666   4.338  11.270  1.7238 -0.8157 -1.1141
15705TIP3   OH268529   2.833   1.660  15.256 -0.3642 -0.3943  0.4719
15705TIP3    H168530   2.849   1.678  15.163  0.5397  1.2978  0.9119
15705TIP3    H268531   2.740   1.639  15.259 -0.5168 -0.0418 -0.7725
15706TIP3   OH268532   4.449   0.723   0.856  0.1915  0.6389  0.5603
15706TIP3    H168533   4.378   0.660   0.847  0.1317  0.6392  1.0146
15706TIP3    H268534   4.466   0.753   0.766  2.3958 -2.3706 -0.1886
15707TIP3   OH268535   2.793   3.714   6.774  0.2094  0.0512  0.0351
15707TIP3    H168536   2.779   3.764   6.855  0.3664 -0.1781  0.2043
15707TIP3    H268537   2.881   3.739   6.745  1.1442 -1.6790  1.2374
15708TIP3   OH268538   1.123   0.257   3.558  0.1286  0.0948 -0.3098
15708TIP3    H168539   1.121   0.311   3.479  2.0947  0.0098 -0.4727
15708TIP3    H268540   1.138   0.168   3.526  1.2666  0.1064  0.1497
15709TIP3   OH268541   0.185   0.744  13.100 -1.1961 -0.1778  0.4107
15709TIP3    H168542   0.097   0.713  13.080 -1.4557  0.1147  1.0867
15709TIP3    H268543   0.239   0.665  13.103 -1.7158 -0.5091  1.4150
15710TIP3   OH268544   0.706   3.896  13.768  0.1396  0.2695 -0.3714
15710TIP3    H168545   0.670   3.913  13.855 -0.1781 -1.3128 -0.1768
15710TIP3    H268546   0.791   3.855  13.785  0.3859  0.5826 -0.8213
15711TIP3   OH268547   5.163   2.390  17.143  0.1054 -0.0901  0.3962
15711TIP3    H168548   5.199   2.420  17.060  0.2803 -1.4852 -0.0652
15711TIP3    H268549   5.160   2.295  17.134 -2.6883 -0.1133  0.8428
15712TIP3   OH268550   4.526   6.483  13.811 -0.4184  0.4626  0.5672
15712TIP3    H168551   4.452   6.530  13.772 -0.1881 -1.2910 -2.2984
15712TIP3    H268552   4.589   6.551  13.832 -2.2106  1.8684  1.7562
15713TIP3   OH268553   0.828   4.505  16.469  0.1618 -0.4459 -0.1444
15713TIP3    H168554   0.790   4.425  16.432  0.5077 -0.3714 -0.6817
15713TIP3    H268555   0.830   4.566  16.396  1.7027 -0.5900 -0.2617
15714TIP3   OH268556   3.115   1.424  15.498 -0.6258  0.2814  0.6108
15714TIP3    H168557   3.150   1.464  15.578 -0.1407 -0.2116  0.6430
15714TIP3    H268558   3.122   1.330  15.512  0.7998  0.1805 -0.5882
15715TIP3   OH268559   3.148   6.076  12.333 -1.1177 -0.1559 -0.2863
15715TIP3    H168560   3.069   6.115  12.296 -0.9816  0.8012  0.4211
15715TIP3    H268561   3.116   6.017  12.401 -1.2195  0.4511  0.2009
15716TIP3   OH268562   6.086   0.766   5.487 -0.3640 -0.4739 -0.0941
15716TIP3    H168563   6.177   0.792   5.499 -0.0739 -0.7439 -1.4822
15716TIP3    H268564   6.043   0.844   5.452 -0.3223 -0.7697 -0.8202
15717TIP3   OH268565   5.632   6.482  16.979 -0.4669 -0.0326  0.8817
15717TIP3    H168566   5.602   6.393  16.998 -0.0624 -0.0898  1.2916
15717TIP3    H268567   5.727   6.473  16.969 -0.1928  0.5851  2.5486
15718TIP3   OH268568   5.916   4.425  11.526  0.3126  0.0153  0.4736
15718TIP3    H168569   5.927   4.330  11.533  2.3332  0.1528 -0.3027
15718TIP3    H268570   5.842   4.436  11.467  0.3448 -1.0707  0.2029
15719TIP3   OH268571   1.705   1.363  15.499 -0.2950 -0.1750 -0.0794
15719TIP3    H168572   1.649   1.362  15.576 -1.2142  0.1085 -0.7289
15719TIP3    H268573   1.644   1.359  15.425  0.5907 -1.1641 -0.7891
15720TIP3   OH268574   4.708   1.763   4.854 -0.2894 -0.4662 -0.0030
15720TIP3    H168575   4.721   1.784   4.762 -0.9143  0.4008  0.0942
15720TIP3    H268576   4.796   1.751   4.889 -0.0341 -0.3855 -0.6188
15721TIP3   OH268577   5.839   0.231   3.750 -0.0359  0.0760 -0.2315
15721TIP3    H168578   5.928   0.216   3.783  0.1525  0.1401 -0.6899
15721TIP3    H268579   5.790   0.263   3.825  0.0177 -1.1004  0.3280
15722TIP3   OH268580   4.167   3.086  13.581  0.1019  0.0116  0.3912
15722TIP3    H168581   4.259   3.095  13.559  0.2458 -1.3359  0.3503
15722TIP3    H268582   4.164   3.015  13.646 -1.0893 -1.8774 -1.5664
15723TIP3   OH268583   4.045   5.094   4.740  0.2414  0.0851  0.8461
15723TIP3    H168584   4.042   5.011   4.691  0.4001 -0.7135  2.1450
15723TIP3    H268585   4.038   5.161   4.672  0.2854 -0.9789 -0.2632
15724TIP3   OH268586   1.544   4.478  16.471  0.1755 -0.3228  0.2952
15724TIP3    H168587   1.460   4.495  16.427 -0.0708  0.8741  1.1421
15724TIP3    H268588   1.547   4.544  16.541  1.6281 -0.6398  0.5611
15725TIP3   OH268589   5.484   3.501   6.599 -0.8331 -0.1513 -0.1359
15725TIP3    H168590   5.410   3.441   6.607 -1.2587  0.4549  0.5834
15725TIP3    H268591   5.447   3.581   6.561 -0.6044  0.2416  0.4516
15726TIP3   OH268592   1.348   0.620   5.163  0.2811 -0.2273 -0.2714
15726TIP3    H168593   1.293   0.697   5.147  0.6865 -0.0128 -0.6614
15726TIP3    H268594   1.396   0.641   5.243  0.8707  0.2074 -0.7301
15727TIP3   OH268595   4.825   4.272  13.491  0.6271  0.0324  0.8923
15727TIP3    H168596   4.793   4.232  13.411 -0.0101 -0.9226  1.5917
15727TIP3    H268597   4.827   4.366  13.473  1.8810 -0.2614 -0.6964
15728TIP3   OH268598   1.838   0.225   3.401 -0.5828 -0.8116 -0.5593
15728TIP3    H168599   1.922   0.242   3.445 -1.3925 -0.6042  0.9673
15728TIP3    H268600   1.849   0.263   3.314  0.9553 -0.9022 -0.4455
15729TIP3   OH268601   5.268   3.641  11.026 -0.7900 -0.8988 -0.2542
15729TIP3    H168602   5.217   3.563  11.008 -2.8153  0.5283 -1.0147
15729TIP3    H268603   5.267   3.691  10.945 -1.3092  0.8619  0.7757
15730TIP3   OH268604   3.300   5.176   4.672  0.1377  0.4950  0.2186
15730TIP3    H168605   3.357   5.106   4.641 -0.9898 -0.0992 -0.6257
15730TIP3    H268606   3.319   5.184   4.765 -0.8252 -2.1039  0.7344
15731TIP3   OH268607   2.317   3.881  12.664  0.2441 -0.5494  0.3424
15731TIP3    H168608   2.284   3.898  12.576 -0.5433 -0.2491  0.6883
15731TIP3    H268609   2.341   3.788  12.664  1.1007 -0.3471 -0.4513
15732TIP3   OH268610   2.267   5.421  13.449 -0.7520  0.2861 -0.0204
15732TIP3    H168611   2.352   5.452  13.480  0.2866 -0.3312 -2.0383
15732TIP3    H268612   2.236   5.362  13.518 -0.2383  1.6030  1.3893
15733TIP3   OH268613   4.101   3.179  16.934  0.0316 -0.0028 -0.1563
15733TIP3    H168614   4.040   3.252  16.932 -0.0340 -0.0265  0.6656
15733TIP3    H268615   4.078   3.131  17.013 -0.5033 -1.4119 -1.1123
15734TIP3   OH268616   3.952   4.160   5.594  0.6571  0.9947  0.3259
15734TIP3    H168617   3.959   4.246   5.637 -0.8176  0.8284  0.9384
15734TIP3    H268618   3.955   4.097   5.667 -1.1704  0.6767  0.1674
15735TIP3   OH268619   2.366   3.130   3.612  0.0748  0.1553 -0.1533
15735TIP3    H168620   2.360   3.074   3.690  1.8602  2.0938  1.4916
15735TIP3    H268621   2.320   3.081   3.544 -0.3105 -2.2969  1.7314
15736TIP3   OH268622   5.085   6.316  14.604  0.2612  0.7024  0.0177
15736TIP3    H168623   5.003   6.365  14.596  0.3892  0.7652 -1.0310
15736TIP3    H268624   5.074   6.241  14.546  0.9078  0.6514 -0.0468
15737TIP3   OH268625   5.973   6.621  14.542 -0.0852  0.1854 -0.2659
15737TIP3    H168626   5.922   6.693  14.578  0.9598  1.3073 -0.9423
15737TIP3    H268627   6.037   6.663  14.485  0.6043 -1.2829 -0.6327
15738TIP3   OH268628   1.989   0.439  12.303  0.2551 -0.0314  0.1668
15738TIP3    H168629   2.048   0.449  12.377 -0.3302  0.1342  0.6172
15738TIP3    H268630   1.979   0.344  12.293 -2.5722 -0.1591  2.7065
15739TIP3   OH268631   5.040   4.942  16.406 -0.1799  0.2446  0.5387
15739TIP3    H168632   5.126   4.903  16.394 -0.1825  0.3769  0.0600
15739TIP3    H268633   5.057   5.035  16.416 -0.1107  0.0683  2.4493
15740TIP3   OH268634   0.877   0.098  13.351  0.4198 -0.2937  0.1262
15740TIP3    H168635   0.940   0.168  13.369  1.2723 -0.7781 -0.8667
15740TIP3    H268636   0.818   0.134  13.285 -0.3938  0.1642  1.0641
15741TIP3   OH268637   2.442   6.389  15.730 -0.2531 -0.1591 -0.4393
15741TIP3    H168638   2.485   6.304  15.725 -0.9084 -0.5234 -0.0131
15741TIP3    H268639   2.377   6.379  15.800  1.8076  1.6637  1.9282
15742TIP3   OH268640   3.562   3.124  13.860  0.1179 -0.0017  0.4174
15742TIP3    H168641   3.526   3.212  13.851 -1.0566 -0.4704  0.3461
15742TIP3    H268642   3.581   3.115  13.954  0.7319  0.5034  0.3457
15743TIP3   OH268643   2.071   4.138  12.476  0.1338  0.5764 -0.1061
15743TIP3    H168644   2.144   4.146  12.537  0.8318 -0.9474 -0.6964
15743TIP3    H268645   2.041   4.048  12.487 -1.7466  1.1827  0.1863
15744TIP3   OH268646   1.648   1.456  16.319  0.1496 -0.0012 -0.1121
15744TIP3    H168647   1.571   1.512  16.308  0.4545  0.3103 -0.6836
15744TIP3    H268648   1.661   1.452  16.413 -0.3142  0.2910 -0.0304
15745TIP3   OH268649   5.746   3.587   0.783 -0.0951  0.3805 -0.1386
15745TIP3    H168650   5.656   3.598   0.813 -0.0619  0.7832 -0.1917
15745TIP3    H268651   5.785   3.674   0.787  0.3532  0.1770  0.0686
15746TIP3   OH268652   4.130   2.238  15.788  0.2469 -0.6008 -0.2928
15746TIP3    H168653   4.223   2.256  15.773  0.4018 -0.7512  0.4617
15746TIP3    H268654   4.129   2.168  15.854 -0.4105  0.2835  0.6677
15747TIP3   OH268655   4.264   1.435  13.947  0.7379  0.8113 -0.0506
15747TIP3    H168656   4.308   1.518  13.967 -0.4513  2.0283 -2.1102
15747TIP3    H268657   4.336   1.374  13.929  1.6350  1.7828  0.1037
15748TIP3   OH268658   5.926   6.058   2.473 -0.2444  0.3186 -0.1295
15748TIP3    H168659   5.963   6.012   2.549 -0.8555 -1.1547 -0.6810
15748TIP3    H268660   6.001   6.071   2.415  0.0288  0.4730  0.2470
15749TIP3   OH268661   6.513   2.658  16.454 -0.3103  0.4577 -0.2026
15749TIP3    H168662   6.425   2.626  16.437 -0.0432  0.0652 -0.8431
15749TIP3    H268663   6.557   2.586  16.499 -0.0850  0.3660 -0.5626
15750TIP3   OH268664   6.498   2.190   4.433  0.0669  0.8306 -0.6440
15750TIP3    H168665   6.449   2.218   4.356 -0.3236  2.8190  0.2619
15750TIP3    H268666   6.505   2.269   4.487  0.8205 -0.3614  1.1006
15751TIP3   OH268667   4.962   2.216   3.737 -0.5242  0.0741  0.1413
15751TIP3    H168668   5.008   2.232   3.654 -0.0474  2.2952  0.7701
15751TIP3    H268669   4.930   2.302   3.763  1.1938 -0.1177  3.3381
15752TIP3   OH268670   4.270   3.144  11.758 -0.0544 -0.2225 -0.2660
15752TIP3    H168671   4.334   3.190  11.703 -0.6066  1.0734  0.1453
15752TIP3    H268672   4.297   3.162  11.848 -0.9032  0.2287 -0.0889
15753TIP3   OH268673   0.820   2.419   1.442  0.0785  0.2134 -0.2825
15753TIP3    H168674   0.839   2.472   1.365  0.4217  0.6621  0.1030
15753TIP3    H268675   0.791   2.482   1.508  1.3434  0.0428  0.4617
15754TIP3   OH268676   3.938   1.702  14.687  0.3060 -0.5814 -0.0698
15754TIP3    H168677   3.874   1.765  14.719  1.3611  0.7042 -0.4264
15754TIP3    H268678   3.894   1.657  14.616 -0.4483 -0.2305  0.1671
15755TIP3   OH268679   1.838   5.366   0.761  0.8365 -0.5575  0.0117
15755TIP3    H168680   1.883   5.408   0.688 -1.1033  1.0067 -0.3751
15755TIP3    H268681   1.754   5.413   0.768  0.8038 -0.8386  3.0455
15756TIP3   OH268682   3.696   5.172   3.614  0.3961 -0.5926 -0.0019
15756TIP3    H168683   3.681   5.264   3.636 -1.8526 -0.5648 -1.3143
15756TIP3    H268684   3.768   5.145   3.671 -1.0893  1.0411  2.8683
15757TIP3   OH268685   3.654   2.293  14.841 -0.7431 -0.4155 -0.4508
15757TIP3    H168686   3.664   2.349  14.764 -1.6251 -0.5366 -0.6723
15757TIP3    H268687   3.657   2.354  14.915  1.5174 -0.4527 -0.4620
15758TIP3   OH268688   3.842   1.904   3.110  0.0292 -0.0393  0.6462
15758TIP3    H168689   3.837   1.997   3.089  1.3021 -0.4475 -1.8631
15758TIP3    H268690   3.776   1.863   3.053 -0.5107 -0.6921  1.7143
15759TIP3   OH268691   3.235   2.795   2.875 -0.9080  0.0507  0.2468
15759TIP3    H168692   3.168   2.734   2.907  0.7845 -1.3787  1.2518
15759TIP3    H268693   3.292   2.810   2.950  2.1936 -2.0042 -1.4446
15760TIP3   OH268694   4.866   6.067   5.773  0.3104 -0.2128  0.4865
15760TIP3    H168695   4.824   6.149   5.747  0.5258  0.0832  1.0612
15760TIP3    H268696   4.796   6.001   5.766 -0.4956  0.3955  2.1672
15761TIP3   OH268697   0.705   5.365  12.012 -0.0350  1.0116  0.7067
15761TIP3    H168698   0.666   5.431  11.954  2.0027  2.3228  0.7213
15761TIP3    H268699   0.754   5.416  12.077  1.3270 -0.5045  0.9407
15762TIP3   OH268700   4.386   2.060  15.087 -0.0696 -0.0512 -0.4077
15762TIP3    H168701   4.343   2.008  15.156 -2.0903 -0.0081 -1.5601
15762TIP3    H268702   4.316   2.113  15.050  0.9804  0.0310 -2.4119
15763TIP3   OH268703   3.643   5.383  13.496  0.3556 -0.7292 -0.3135
15763TIP3    H168704   3.556   5.346  13.506 -0.1317  0.7383  1.4159
15763TIP3    H268705   3.631   5.461  13.442  0.6769 -0.8007 -0.4920
15764TIP3   OH268706   6.626   4.967   3.920  0.0634  0.5577  0.2500
15764TIP3    H168707   6.576   5.020   3.982 -0.2843  1.7605 -0.9915
15764TIP3    H268708   6.609   4.877   3.945  0.1328  1.0079  2.0345
15765TIP3   OH268709   2.005   6.050   0.453  0.1193 -0.0727  0.2933
15765TIP3    H168710   2.069   6.026   0.520 -0.4395 -0.9199  0.5317
15765TIP3    H268711   1.943   6.107   0.499 -2.1032 -3.1558  1.4401
15766TIP3   OH268712   1.674   6.391   1.528  0.4751 -0.4832  0.0522
15766TIP3    H168713   1.736   6.425   1.463  1.8043  1.0906  2.0507
15766TIP3    H268714   1.727   6.339   1.588 -0.5064 -0.8231  0.6533
15767TIP3   OH268715   5.355   0.588   4.462 -0.3600 -0.0779 -0.2441
15767TIP3    H168716   5.376   0.607   4.370 -0.0043 -1.7212 -0.5378
15767TIP3    H268717   5.266   0.621   4.473  0.1005  1.4481 -0.7418
15768TIP3   OH268718   1.370   4.948   0.741 -0.2812 -0.0905  0.0882
15768TIP3    H168719   1.401   5.035   0.767 -1.4254  0.1354  0.7333
15768TIP3    H268720   1.323   4.915   0.817 -1.9107 -0.2815 -0.9600
15769TIP3   OH268721   2.802   5.075   5.927  0.3519  0.3739  0.1084
15769TIP3    H168722   2.848   5.152   5.961  0.4662  0.3494  0.0061
15769TIP3    H268723   2.863   5.003   5.939  0.5830  0.4493 -0.6051
15770TIP3   OH268724   6.139   1.075  14.493  0.0023  0.2982 -0.3100
15770TIP3    H168725   6.218   1.087  14.546 -1.0535 -0.9027  1.6684
15770TIP3    H268726   6.115   1.164  14.467  0.8712  0.8946  0.8097
15771TIP3   OH268727   4.899   5.994  11.953  0.7544 -0.7788 -0.6782
15771TIP3    H168728   4.873   6.082  11.927  3.0898  0.2081  0.0438
15771TIP3    H268729   4.905   5.946  11.870  1.2839  0.2970 -1.2845
15772TIP3   OH268730   1.103   3.878  13.662  0.3068  0.0656 -0.4993
15772TIP3    H168731   1.193   3.847  13.646  0.2749  0.2227 -0.9956
15772TIP3    H268732   1.083   3.933  13.586 -1.1520 -2.0269 -1.7333
15773TIP3   OH268733   1.987   3.082  14.629 -0.7723 -0.2765  0.0222
15773TIP3    H168734   2.018   3.133  14.705  0.6949 -2.1971  0.7999
15773TIP3    H268735   1.895   3.106  14.620 -0.3304  1.9605  0.7656
15774TIP3   OH268736   3.528   1.608   0.661 -0.1389  0.3693  0.2413
15774TIP3    H168737   3.609   1.660   0.660  1.3775 -1.8372 -0.4605
15774TIP3    H268738   3.537   1.551   0.737 -1.5765  0.8088  0.7656
15775TIP3   OH268739   1.196   3.256   1.122 -0.5160  0.1131  0.1737
15775TIP3    H168740   1.247   3.190   1.170 -1.7777 -1.2007 -0.2181
15775TIP3    H268741   1.116   3.268   1.173 -1.8888 -1.3158 -1.4868
15776TIP3   OH268742   5.726   2.066  14.664 -0.3008 -0.2507  0.2032
15776TIP3    H168743   5.770   2.061  14.749 -0.9888 -0.2653  0.5595
15776TIP3    H268744   5.784   2.120  14.610  1.7348 -2.6906 -0.2957
15777TIP3   OH268745   3.995   6.177   2.902 -0.1727 -0.1831 -0.5278
15777TIP3    H168746   4.017   6.130   2.822  1.6015 -0.0642 -0.1494
15777TIP3    H268747   3.994   6.270   2.877 -0.2483 -0.1865 -0.5385
15778TIP3   OH268748   5.367   5.236  11.238 -0.0797  0.1654 -0.1305
15778TIP3    H168749   5.296   5.191  11.284 -0.8138 -0.7104 -2.0042
15778TIP3    H268750   5.428   5.166  11.215 -0.3663  0.3706 -1.5680
15779TIP3   OH268751   4.519   4.896   3.698  0.3780  0.1176 -0.0958
15779TIP3    H168752   4.461   4.820   3.699  0.1348  0.2941  1.3536
15779TIP3    H268753   4.501   4.939   3.615  1.1720 -1.8656 -1.3834
15780TIP3   OH268754   0.729   1.434   1.142  0.0161 -0.1154  0.2151
15780TIP3    H168755   0.762   1.455   1.229 -0.4841  1.4390  0.0729
15780TIP3    H268756   0.664   1.365   1.156 -0.4006  0.4472  1.1394
15781TIP3   OH268757   5.156   4.585  13.436 -0.6122  0.0101  0.0588
15781TIP3    H168758   5.213   4.530  13.489  0.0769  0.0702 -0.6052
15781TIP3    H268759   5.114   4.525  13.374 -0.6473  0.0819  0.0123
15782TIP3   OH268760   1.694   3.331  12.244  0.2093  0.0408 -0.2030
15782TIP3    H168761   1.635   3.370  12.179 -1.3623 -1.1667  0.4467
15782TIP3    H268762   1.666   3.368  12.327  2.4423  1.8473 -0.1579
15783TIP3   OH268763   4.660   0.134  12.296 -0.2329 -0.2384  0.3019
15783TIP3    H168764   4.627   0.211  12.342 -0.9302 -1.5362  2.1080
15783TIP3    H268765   4.754   0.148  12.289 -0.7547  2.9313 -3.7543
15784TIP3   OH268766   2.123   3.353  13.927 -0.7696  0.1326  0.0357
15784TIP3    H168767   2.215   3.334  13.912 -0.6192  1.2877 -0.6238
15784TIP3    H268768   2.076   3.279  13.887 -0.1493 -0.1543 -0.1686
15785TIP3   OH268769   1.831   3.323  15.777 -0.6163  0.7044  0.6272
15785TIP3    H168770   1.743   3.313  15.814 -0.5433  0.3183  0.7056
15785TIP3    H268771   1.817   3.343  15.685 -0.7895  0.8508  0.6852
15786TIP3   OH268772   2.335   3.879   5.441 -0.1207 -0.4395  0.4856
15786TIP3    H168773   2.318   3.949   5.504 -0.9091 -0.0229 -0.1650
15786TIP3    H268774   2.251   3.865   5.398  0.5825 -0.1498 -1.0372
15787TIP3   OH268775   2.405   5.477  13.734  0.0260  0.0926  0.1744
15787TIP3    H168776   2.381   5.562  13.699 -0.0596  1.1200  2.5895
15787TIP3    H268777   2.322   5.437  13.760  0.2601  0.4451  1.5330
15788TIP3   OH268778   0.749   1.736  16.452  0.5038  0.2995  0.4219
15788TIP3    H168779   0.739   1.664  16.390 -0.0971  0.3613  0.4480
15788TIP3    H268780   0.693   1.806  16.418 -0.2071  0.1632  1.2839
15789TIP3   OH268781   4.362   4.928  15.689 -0.0518  0.2481  0.2829
15789TIP3    H168782   4.274   4.959  15.710  0.9642  2.6741  1.3145
15789TIP3    H268783   4.398   4.902  15.774  0.6782  0.5700  0.0712
15790TIP3   OH268784   5.647   4.449  15.358 -0.2587  0.5053 -0.1111
15790TIP3    H168785   5.729   4.403  15.341 -0.9311 -0.4292 -0.9884
15790TIP3    H268786   5.584   4.379  15.377 -0.9003  1.1944  0.3588
15791TIP3   OH268787   1.090   5.382  14.462 -0.5062  0.1972 -0.5912
15791TIP3    H168788   1.005   5.410  14.495 -0.3893 -1.8635  1.7751
15791TIP3    H268789   1.076   5.292  14.430  0.7022 -0.0952 -0.3735
15792TIP3   OH268790   6.237   6.635  12.048 -0.0384  0.0149  0.3248
15792TIP3    H168791   6.240   6.581  11.969 -1.9248  1.4248 -0.7918
15792TIP3    H268792   6.289   6.713  12.025 -0.4493  0.3535  0.5377
15793TIP3   OH268793   4.095   0.414  16.104 -0.0317  0.1243 -0.3160
15793TIP3    H168794   4.125   0.336  16.056  0.0384 -0.4434  0.6306
15793TIP3    H268795   4.023   0.382  16.158  0.6170  0.5038  0.7981
15794TIP3   OH268796   3.056   1.267   1.084 -0.0512  0.4451  0.3731
15794TIP3    H168797   2.984   1.235   1.139  1.1451  0.2815  1.9244
15794TIP3    H268798   3.135   1.237   1.129  0.9932  0.2881 -1.4900
15795TIP3   OH268799   4.971   5.800  16.197  0.4256 -0.4377  0.8583
15795TIP3    H168800   4.995   5.866  16.263 -1.7872  1.1985  0.1665
15795TIP3    H268801   5.053   5.780  16.152  1.5202  0.3676  2.4054
15796TIP3   OH268802   4.823   4.077   0.197 -0.1737  0.3898  0.2491
15796TIP3    H168803   4.899   4.032   0.159 -0.7484  1.0968 -1.8232
15796TIP3    H268804   4.787   4.013   0.259  0.2771 -1.1904 -1.0427
15797TIP3   OH268805   0.756   3.712   3.226 -0.1087 -0.1606  0.2840
15797TIP3    H168806   0.673   3.747   3.193  1.4881  2.7104 -1.1446
15797TIP3    H268807   0.736   3.681   3.314 -2.2935  2.6044  0.9201
15798TIP3   OH268808   2.102   4.730  15.997  0.1314 -0.2700 -0.1544
15798TIP3    H168809   2.096   4.785  15.919 -0.8848 -0.2110 -0.0498
15798TIP3    H268810   2.176   4.766  16.047 -0.4662  0.9563 -0.1255
15799TIP3   OH268811   1.781   6.577   3.314  0.2402 -0.0183 -0.3254
15799TIP3    H168812   1.769   6.633   3.391  0.8861  0.5449 -0.6161
15799TIP3    H268813   1.842   6.510   3.343  1.9753  1.2724 -0.8383
15800TIP3   OH268814   0.611   3.979   0.190 -0.2931  0.6848 -0.4149
15800TIP3    H168815   0.554   3.903   0.203 -0.1421 -0.1475 -3.6853
15800TIP3    H268816   0.560   4.037   0.132  1.2780  0.9371 -1.6125
15801TIP3   OH268817   2.520   1.668   6.028 -0.6830 -0.2304  0.6257
15801TIP3    H168818   2.474   1.706   5.953  1.8711 -1.7865 -1.9319
15801TIP3    H268819   2.567   1.741   6.067 -2.7383  0.7764  1.3797
15802TIP3   OH268820   0.658   0.496   0.382 -0.0783 -0.1928  0.7195
15802TIP3    H168821   0.674   0.491   0.476 -0.3900 -0.3517  0.7653
15802TIP3    H268822   0.590   0.432   0.366 -2.4838  2.1257  0.9374
15803TIP3   OH268823   2.465   6.177   1.848  0.6040  0.0650 -0.4101
15803TIP3    H168824   2.530   6.246   1.838  1.7688 -0.9260  0.1758
15803TIP3    H268825   2.492   6.109   1.786 -0.5811  0.1483 -1.0502
15804TIP3   OH268826   0.628   3.287   3.262 -0.5819  0.4916 -0.0622
15804TIP3    H168827   0.717   3.306   3.233 -0.5245  0.3204 -0.0017
15804TIP3    H268828   0.636   3.279   3.357 -0.8111  1.2807  0.0292
15805TIP3   OH268829   0.648   1.877  15.157  0.4379 -0.1177  0.5127
15805TIP3    H168830   0.677   1.923  15.236 -1.1258 -0.7628  1.5031
15805TIP3    H268831   0.645   1.945  15.089 -0.5390  0.9703  1.6092
15806TIP3   OH268832   1.567   0.528  16.032  0.1080  0.2401  0.4356
15806TIP3    H168833   1.527   0.458  16.084  0.3596 -0.2330  0.0069
15806TIP3    H268834   1.660   0.506  16.030 -0.0840 -0.6206 -1.4621
15807TIP3   OH268835   0.946   3.732  15.673 -0.0882  0.0526  0.3754
15807TIP3    H168836   0.902   3.694  15.596  1.6603  1.9039 -1.6847
15807TIP3    H268837   0.895   3.809  15.695  0.6254  0.7680 -0.3951
15808TIP3   OH268838   0.490   2.971   0.755  0.0942 -0.0672 -0.0458
15808TIP3    H168839   0.518   2.943   0.668  0.3026 -1.0954  0.3421
15808TIP3    H268840   0.470   2.890   0.801  0.8389  0.4067  1.1490
15809TIP3   OH268841   0.747   6.734   0.916 -0.5529 -0.3512  0.3789
15809TIP3    H168842   0.800   6.694   0.985  0.2469 -0.4798 -0.2994
15809TIP3    H268843   0.700   6.806   0.960 -0.5588 -0.8451  1.1892
15810TIP3   OH268844   0.995   1.088  14.311  0.0998 -0.0338 -0.2151
15810TIP3    H168845   1.086   1.115  14.321  0.0586 -0.3526  1.0918
15810TIP3    H268846   0.955   1.160  14.261  0.3702  1.5964  1.7659
15811TIP3   OH268847   0.714   2.326  15.169 -0.0197  0.3399  0.2049
15811TIP3    H168848   0.708   2.249  15.225  0.5472 -0.0261 -0.2302
15811TIP3    H268849   0.781   2.381  15.211 -0.1271  0.4058  0.2903
15812TIP3   OH268850   1.070   5.969   1.140 -0.4170  0.8469 -0.1562
15812TIP3    H168851   1.069   5.962   1.045 -2.0028 -0.7801 -0.0656
15812TIP3    H268852   0.995   6.025   1.161  1.4407  3.4384  0.0836
15813TIP3   OH268853   4.456   5.032  17.180 -0.1206 -0.4543  0.4393
15813TIP3    H168854   4.499   4.956  17.139 -1.4182 -1.4462  0.8454
15813TIP3    H268855   4.376   4.996  17.218 -0.2119  0.9253  1.6262
15814TIP3   OH268856   2.413   3.542  13.323 -0.3272 -0.2444 -0.2488
15814TIP3    H168857   2.449   3.533  13.411 -3.5744 -1.4370  1.1254
15814TIP3    H268858   2.469   3.606  13.280  1.6597  0.0400  2.5188
15815TIP3   OH268859   4.545   2.543  12.310  0.2566  0.0891  0.3827
15815TIP3    H168860   4.474   2.604  12.333  0.7671  0.4517  1.0144
15815TIP3    H268861   4.564   2.497  12.392 -0.2524 -1.0772 -0.1288
15816TIP3   OH268862   4.421   6.183  12.607 -0.4290 -0.2102 -0.5208
15816TIP3    H168863   4.399   6.090  12.611 -1.1129 -0.0716 -1.0838
15816TIP3    H268864   4.345   6.225  12.569 -0.2836  0.6435  0.0964
15817TIP3   OH268865   6.162   3.006   4.912  0.3186  0.6734  0.0664
15817TIP3    H168866   6.197   2.927   4.872 -1.5850 -0.7179  1.0052
15817TIP3    H268867   6.154   3.068   4.839  1.2165 -0.1889 -0.7984
15818TIP3   OH268868   4.589   6.200  11.880  0.3429 -0.3637 -0.0696
15818TIP3    H168869   4.649   6.271  11.905 -1.0462  0.2252  1.8295
15818TIP3    H268870   4.511   6.245  11.848  0.1863 -1.0768 -0.6978
15819TIP3   OH268871   0.621   5.804   1.364  0.3508  0.6076  0.3844
15819TIP3    H168872   0.531   5.807   1.333 -0.1116 -2.3305  1.1168
15819TIP3    H268873   0.669   5.764   1.291  0.3359 -1.1058  1.2734
15820TIP3   OH268874   4.311   6.679   5.045 -0.4460  0.5871 -0.1451
15820TIP3    H168875   4.348   6.650   5.129  0.4780 -1.1804 -1.1037
15820TIP3    H268876   4.388   6.691   4.989 -0.9428  3.0710 -0.4213
15821TIP3   OH268877   3.002   5.327   3.945 -0.3146 -0.4934 -0.1635
15821TIP3    H168878   2.976   5.407   3.898 -2.2352 -0.3565  1.0136
15821TIP3    H268879   3.027   5.266   3.876 -3.1583 -0.3554 -1.4601
15822TIP3   OH268880   0.089   5.465  14.021  0.3090  0.1897 -0.1489
15822TIP3    H168881   0.147   5.538  14.041  0.0526  0.1394  0.8365
15822TIP3    H268882   0.006   5.489  14.064  0.6617 -1.3647  1.5420
15823TIP3   OH268883   4.228   1.270  11.751 -0.4306 -0.0050  0.3816
15823TIP3    H168884   4.286   1.234  11.818 -0.7073 -0.9876  0.1091
15823TIP3    H268885   4.265   1.238  11.668 -1.8631 -1.4382  0.2533
15824TIP3   OH268886   5.846   6.499  12.200  0.4755  0.3835 -0.3548
15824TIP3    H168887   5.905   6.510  12.126  0.8758  1.6184  0.1365
15824TIP3    H268888   5.803   6.415  12.183  1.7153 -0.1191 -1.1641
15825TIP3   OH268889   6.005   5.367   5.024  0.1155 -0.2801 -0.8507
15825TIP3    H168890   5.927   5.415   5.050  1.1008  2.1227 -2.0290
15825TIP3    H268891   6.060   5.366   5.102  0.0501  0.4500 -0.7904
15826TIP3   OH268892   0.403   5.944   5.045  0.5732  0.1083  0.2682
15826TIP3    H168893   0.333   5.996   5.085  0.4775  0.4963 -0.3775
15826TIP3    H268894   0.361   5.861   5.023  0.6693 -0.1697  1.1064
15827TIP3   OH268895   4.215   6.661   4.767 -0.4064  0.0794  0.3977
15827TIP3    H168896   4.269   6.739   4.773  0.6727 -0.3879 -2.2916
15827TIP3    H268897   4.182   6.660   4.677  0.3649 -3.0061  0.0348
15828TIP3   OH268898   3.614   1.653  12.525  0.0131 -0.3309  0.0050
15828TIP3    H168899   3.638   1.735  12.482 -0.6689  0.1906  0.6040
15828TIP3    H268900   3.695   1.602  12.525  0.1900 -0.0916 -1.3021
15829TIP3   OH268901   2.790   3.760   5.653  0.1159  0.1078  0.3395
15829TIP3    H168902   2.848   3.759   5.576  0.3889  1.5995  0.4845
15829TIP3    H268903   2.802   3.674   5.693 -0.3329 -0.8514 -1.4864
15830TIP3   OH268904   2.786   2.721   4.946  0.2428  0.0796 -0.3277
15830TIP3    H168905   2.803   2.667   5.023 -0.8344 -1.3666 -1.0401
15830TIP3    H268906   2.795   2.661   4.872  0.4286  1.2347 -1.2762
15831TIP3   OH268907   3.796   4.594  12.991 -0.6641 -0.0765  0.5432
15831TIP3    H168908   3.842   4.514  13.018 -0.3353 -0.7174 -1.6929
15831TIP3    H268909   3.823   4.607  12.900 -1.8151  1.8174  0.4257
15832TIP3   OH268910   4.506   3.076   1.718 -0.6732  0.4536  0.0409
15832TIP3    H168911   4.491   3.169   1.701 -0.0547  0.0844 -3.3435
15832TIP3    H268912   4.601   3.067   1.717 -0.7375 -0.3320 -0.8431
15833TIP3   OH268913   0.074   6.121  12.971 -0.3043  0.0985  0.5820
15833TIP3    H168914   0.054   6.089  13.059  1.1735  1.2228  1.3736
15833TIP3    H268915   0.159   6.084  12.951 -1.3913 -1.6188 -1.1819
15834TIP3   OH268916   6.790   3.959   5.138 -0.5003  0.7397 -0.4603
15834TIP3    H168917   6.793   3.999   5.225  0.1637 -0.4807  0.1059
15834TIP3    H268918   6.880   3.931   5.122 -1.3128 -2.7105  0.2677
15835TIP3   OH268919   3.744   3.340  12.110  0.3139 -0.1803  0.3818
15835TIP3    H168920   3.808   3.411  12.120 -0.2441  0.3248  0.4880
15835TIP3    H268921   3.667   3.383  12.072 -0.5292 -0.4354  1.7147
15836TIP3   OH268922   3.300   5.857   3.917 -0.5096  0.4096 -0.2824
15836TIP3    H168923   3.284   5.885   3.827 -0.3636 -0.1131 -0.4726
15836TIP3    H268924   3.214   5.862   3.959 -0.5449  0.8367 -0.3945
15837TIP3   OH268925   6.381   2.135  14.792 -0.6043 -0.1687 -0.8460
15837TIP3    H168926   6.384   2.040  14.788  0.2176 -0.2750  1.0740
15837TIP3    H268927   6.472   2.161  14.805 -0.9521  0.7744 -0.1710
15838TIP3   OH268928   0.700   2.322  14.322  0.2799  0.0158  0.3307
15838TIP3    H168929   0.792   2.328  14.297 -0.2435  3.3427 -1.3737
15838TIP3    H268930   0.697   2.357  14.411  0.5034  2.0964 -0.4136
15839TIP3   OH268931   3.250   0.630   2.697  0.4091 -0.2124 -0.1951
15839TIP3    H168932   3.209   0.643   2.782  0.8084  0.3293 -0.0793
15839TIP3    H268933   3.337   0.594   2.717 -0.2284 -2.0162 -0.4604
15840TIP3   OH268934   4.468   2.482  14.114 -0.0060 -0.7930 -0.2846
15840TIP3    H168935   4.434   2.458  14.200  1.7567  0.2002  0.7503
15840TIP3    H268936   4.475   2.398  14.067 -1.4654 -1.2883  0.3213
15841TIP3   OH268937   5.031   0.168   0.273  0.0234 -0.2885  0.3601
15841TIP3    H168938   5.065   0.235   0.332  0.6438  0.6060 -0.9673
15841TIP3    H268939   4.968   0.214   0.217 -0.7969 -1.1866  0.5193
15842TIP3   OH268940   4.087   6.592  17.165 -0.7085  0.8510  0.3262
15842TIP3    H168941   4.155   6.578  17.099 -0.5625  1.6395  0.3078
15842TIP3    H268942   4.133   6.632  17.239 -1.0067  0.6386  0.6323
15843TIP3   OH268943   5.379   4.405  14.631  0.1036  0.3167  0.2932
15843TIP3    H168944   5.326   4.378  14.706 -2.2531  3.5644 -0.0112
15843TIP3    H268945   5.403   4.495  14.650 -2.4310  2.0738 -3.6465
15844TIP3   OH268946   2.776   3.959   4.503 -0.1386 -0.3531  0.3302
15844TIP3    H168947   2.824   4.038   4.476 -0.4937  0.2301  1.3632
15844TIP3    H268948   2.820   3.930   4.582  0.2297 -1.4363 -0.2495
15845TIP3   OH268949   3.536   1.146   0.982 -0.9405 -0.2604 -0.1954
15845TIP3    H168950   3.621   1.172   1.017  0.2254 -1.7862 -1.7426
15845TIP3    H268951   3.474   1.204   1.026  1.0568  2.3005 -0.5108
15846TIP3   OH268952   6.340   4.253  11.601 -0.5284 -0.6178 -0.0563
15846TIP3    H168953   6.281   4.288  11.667 -0.1177  0.6146 -0.3284
15846TIP3    H268954   6.411   4.213  11.651 -0.9908 -1.0777  0.2500
15847TIP3   OH268955   1.914   6.696  10.796  0.3467  0.1542  0.0166
15847TIP3    H168956   1.955   6.782  10.797 -1.6656  1.1599 -0.0384
15847TIP3    H268957   1.982   6.638  10.761  2.1168  1.4774  1.0529
15848TIP3   OH268958   6.415   1.975  10.651  0.3171 -0.1508 -0.5018
15848TIP3    H168959   6.488   1.913  10.649 -0.1218 -0.6813 -0.3222
15848TIP3    H268960   6.399   1.997  10.560  1.1510  0.5072 -0.4979
15849TIP3   OH268961   1.421   3.188   0.606  0.2459 -0.3522  0.3641
15849TIP3    H168962   1.419   3.199   0.510  0.1081  0.9526  0.4972
15849TIP3    H268963   1.417   3.094   0.619  0.1426 -0.5489 -0.9228
15850TIP3   OH268964   4.498   0.903   2.941 -0.3807  0.1108  0.4996
15850TIP3    H168965   4.408   0.925   2.916  0.0920  0.7477 -0.7630
15850TIP3    H268966   4.549   0.979   2.911  0.5720 -0.2493  1.1946
15851TIP3   OH268967   4.946   1.301  13.452 -0.2200 -0.0342 -0.5647
15851TIP3    H168968   4.995   1.372  13.411 -0.6696  3.4299  4.0474
15851TIP3    H268969   4.857   1.310  13.417  0.3318 -0.2458 -2.1011
15852TIP3   OH268970   2.879   4.579   3.843 -0.2869 -0.1641  0.7822
15852TIP3    H168971   2.896   4.628   3.924 -1.1057  0.3006  0.6825
15852TIP3    H268972   2.885   4.487   3.870  2.5200 -0.1045  0.7168
15853TIP3   OH268973   4.707   2.104   2.314  0.4348  0.6572 -0.4735
15853TIP3    H168974   4.628   2.093   2.366  0.8037  2.2867  0.5429
15853TIP3    H268975   4.762   2.029   2.336 -0.6127 -0.2353 -0.8329
15854TIP3   OH268976   0.204   4.301   0.933 -0.2685 -0.8132 -0.2593
15854TIP3    H168977   0.199   4.396   0.923  0.2722 -0.8422 -0.8443
15854TIP3    H268978   0.283   4.286   0.984  0.8865 -1.0513 -2.0392
15855TIP3   OH268979   2.081   3.129   3.535  0.0010  0.0893 -0.1224
15855TIP3    H168980   2.117   3.206   3.580 -0.3782  0.1450  0.0888
15855TIP3    H268981   1.987   3.145   3.532 -0.4149 -1.5186  2.1869
15856TIP3   OH268982   6.077   5.126   4.913  0.0397 -0.3452  0.0284
15856TIP3    H168983   6.061   5.215   4.944 -1.9047  0.3276 -2.5882
15856TIP3    H268984   6.172   5.115   4.922  0.2404  1.7002  1.0883
15857TIP3   OH268985   5.321   0.448  11.475 -0.1428  0.5910  0.2854
15857TIP3    H168986   5.301   0.396  11.397  1.3273 -0.4719  0.5737
15857TIP3    H268987   5.287   0.397  11.548 -0.2810  0.9069  0.4433
15858TIP3   OH268988   6.758   0.386  14.723  0.1168 -0.2321  0.1566
15858TIP3    H168989   6.697   0.351  14.788  0.4939 -0.2100  0.5297
15858TIP3    H268990   6.727   0.475  14.706 -0.0685 -0.2886  0.1974
15859TIP3   OH268991   4.522   1.420   2.134  0.3462  0.1072  0.5196
15859TIP3    H168992   4.533   1.420   2.039 -1.8106 -0.8442  0.2167
15859TIP3    H268993   4.577   1.346   2.164  2.3491  1.4108  0.2738
15860TIP3   OH268994   2.146   5.695   1.196  0.6110  0.0493 -0.3047
15860TIP3    H168995   2.171   5.604   1.180 -0.1592 -0.1356 -0.4739
15860TIP3    H268996   2.054   5.691   1.224  1.3233  0.5184  2.4097
15861TIP3   OH268997   4.846   4.405   4.014  0.2260 -0.1808 -0.6602
15861TIP3    H168998   4.846   4.311   4.030  1.4262 -0.4113 -1.8343
15861TIP3    H268999   4.767   4.437   4.057 -1.0769 -1.9574 -1.6502
15862TIP3   OH269000   0.042   6.621   1.616  0.2036 -0.4509 -0.7389
15862TIP3    H169001   0.105   6.597   1.684  1.9216 -0.8958 -2.4250
15862TIP3    H269002   0.069   6.707   1.587 -1.0778  0.1356 -0.2952
15863TIP3   OH269003   5.834   2.238   5.281  1.2896  0.2159 -0.2760
15863TIP3    H169004   5.806   2.172   5.344 -0.2326  0.7104 -0.3988
15863TIP3    H269005   5.861   2.313   5.335  2.8685 -0.4017 -0.1439
15864TIP3   OH269006   0.176   4.478   4.579 -0.0988  0.2643 -0.2386
15864TIP3    H169007   0.231   4.445   4.508 -0.8185 -1.6584  0.0477
15864TIP3    H269008   0.089   4.484   4.541 -0.3988 -0.3364  0.3308
15865TIP3   OH269009   4.411   0.605  12.628  0.9769  0.1381 -0.3103
15865TIP3    H169010   4.493   0.558  12.639  1.0339  0.4883  0.8636
15865TIP3    H269011   4.430   0.694  12.657  0.0741  0.1146  0.3848
15866TIP3   OH269012   0.640   4.432  16.843  0.2255 -0.0753 -0.0746
15866TIP3    H169013   0.627   4.397  16.755  1.1133  0.0139 -0.2485
15866TIP3    H269014   0.699   4.506  16.831  2.2481 -1.4439  0.8270
15867TIP3   OH269015   6.507   0.062   2.310 -0.0364 -0.6152  0.0352
15867TIP3    H169016   6.481   0.122   2.380 -1.6014 -0.0284 -0.9943
15867TIP3    H269017   6.581   0.014   2.346  2.2722  2.8989  0.3872
15868TIP3   OH269018   1.197   2.716   6.820 -0.5171 -0.2022 -0.7967
15868TIP3    H169019   1.131   2.675   6.763 -1.7014  0.2781  0.1961
15868TIP3    H269020   1.225   2.646   6.879  0.4128 -0.5931 -1.6690
15869TIP3   OH269021   1.997   2.002   5.657  0.4890  0.4264  0.0669
15869TIP3    H169022   1.994   1.976   5.749  0.5298  1.1247  0.2722
15869TIP3    H269023   1.955   2.088   5.655 -1.0822 -0.3233 -0.8432
15870TIP3   OH269024   6.190   5.542  14.936  0.1584  0.4727 -0.0910
15870TIP3    H169025   6.263   5.480  14.940 -1.1976 -1.1212  0.7020
15870TIP3    H269026   6.217   5.606  14.869  1.5464 -0.9984 -1.0046
15871TIP3   OH269027   0.657   3.943   1.155  0.6409  0.5067  0.1314
15871TIP3    H169028   0.631   3.893   1.232  1.8809  0.4819  0.5462
15871TIP3    H269029   0.751   3.928   1.146  0.5997  0.8506 -1.1385
15872TIP3   OH269030   5.038   5.981   6.047 -0.0537 -0.2610 -0.0216
15872TIP3    H169031   5.070   5.973   5.957  1.7589  3.2618  0.1253
15872TIP3    H269032   5.117   5.980   6.100 -0.6225  2.0387  1.0252
15873TIP3   OH269033   0.952   2.733  11.191  0.3863  0.1126 -0.1789
15873TIP3    H169034   0.947   2.812  11.137 -2.4932  1.1391  1.3591
15873TIP3    H269035   0.947   2.766  11.281 -0.8347 -1.7724  0.5053
15874TIP3   OH269036   3.923   2.243   3.992 -0.0491 -0.1947 -0.7883
15874TIP3    H169037   3.907   2.337   3.977 -1.2561 -0.4901 -1.4892
15874TIP3    H269038   3.878   2.224   4.074  0.7885 -0.0339 -0.2739
15875TIP3   OH269039   3.877   0.741   3.652 -0.1806  0.2788 -0.0505
15875TIP3    H169040   3.970   0.760   3.639  0.5713 -2.0138  1.3856
15875TIP3    H269041   3.841   0.734   3.564  1.3729 -0.3344 -0.6607
15876TIP3   OH269042   4.509   2.592   4.027 -0.5997  0.5362 -0.6769
15876TIP3    H169043   4.484   2.664   3.969  0.8882  0.3120 -1.6355
15876TIP3    H269044   4.499   2.514   3.973 -0.6581  0.1741 -0.1458
15877TIP3   OH269045   0.403   1.885   4.954  0.1469 -0.5329  0.3379
15877TIP3    H169046   0.375   1.911   5.041 -1.7410 -0.8659 -0.1048
15877TIP3    H269047   0.475   1.944   4.932 -1.0677  1.3435  1.0995
15878TIP3   OH269048   1.975   2.857  16.726  0.0105 -0.4043 -0.1004
15878TIP3    H169049   2.069   2.846  16.711 -0.2825  0.0204 -2.9016
15878TIP3    H269050   1.952   2.935  16.675 -1.7818 -0.1982  0.9434
15879TIP3   OH269051   3.877   3.181   1.076  0.3085 -0.7300  0.1956
15879TIP3    H169052   3.842   3.092   1.071 -1.1442 -0.2606  1.2347
15879TIP3    H269053   3.870   3.214   0.987 -0.6316 -1.1306  0.1089
15880TIP3   OH269054   2.159   4.728   2.606 -0.8689 -0.0030 -0.0859
15880TIP3    H169055   2.065   4.717   2.590 -1.9739  1.5298  4.0132
15880TIP3    H269056   2.168   4.819   2.634  1.1140 -0.9638  2.9021
15881TIP3   OH269057   0.048   1.711  14.212 -0.4735 -0.1826  0.2316
15881TIP3    H169058   0.028   1.797  14.249 -0.5086  0.3325 -0.9455
15881TIP3    H269059   0.142   1.699  14.228  0.0364  1.0823 -1.5258
15882TIP3   OH269060   0.615   2.698   2.567 -0.3317  0.2916  0.3260
15882TIP3    H169061   0.691   2.727   2.617 -0.1100 -0.8123  0.6576
15882TIP3    H269062   0.587   2.775   2.518 -0.2118  1.2549  1.7158
15883TIP3   OH269063   3.831   5.806   1.738  0.3029 -0.5491  0.4980
15883TIP3    H169064   3.826   5.896   1.708 -2.8937 -0.9606 -0.5704
15883TIP3    H269065   3.896   5.764   1.682  1.8048  1.0060  0.9970
15884TIP3   OH269066   1.346   5.373   0.131  0.1753  0.1152  0.2660
15884TIP3    H169067   1.384   5.449   0.174  1.7506  0.5838 -1.8208
15884TIP3    H269068   1.416   5.307   0.132 -0.6339 -0.7671  0.6558
15885TIP3   OH269069   1.961   2.270   6.327 -0.1996 -0.2013 -0.3158
15885TIP3    H169070   1.896   2.203   6.304  1.2701 -1.4185 -1.1590
15885TIP3    H269071   2.027   2.263   6.258  1.0397  0.6865  0.7355
15886TIP3   OH269072   5.759   6.322   3.764 -0.2022 -0.0055  0.5341
15886TIP3    H169073   5.826   6.385   3.789 -1.3072  1.1117  0.8133
15886TIP3    H269074   5.801   6.237   3.771  1.6174  0.7309 -0.6934
15887TIP3   OH269075   0.059   1.414   4.831 -0.0892  0.2331 -0.3298
15887TIP3    H169076  -0.008   1.345   4.831 -0.1047  0.2387  0.3196
15887TIP3    H269077   0.071   1.435   4.924 -0.7133  1.7221 -0.5602
15888TIP3   OH269078   1.811   4.951  12.166  0.2911  0.1573 -0.0465
15888TIP3    H169079   1.881   4.886  12.162  0.7594  0.6984 -2.5195
15888TIP3    H269080   1.731   4.900  12.153  0.6913  0.0478 -2.4651
15889TIP3   OH269081   3.991   0.392  14.682 -0.6770 -0.0325 -0.5315
15889TIP3    H169082   3.978   0.369  14.591 -0.9341 -3.0472  0.1673
15889TIP3    H269083   3.902   0.404  14.717 -0.6388 -0.1130 -0.4037
15890TIP3   OH269084   0.782   4.882  14.745  0.2214  0.0453 -0.9533
15890TIP3    H169085   0.853   4.854  14.688  0.6566  0.0444 -0.4218
15890TIP3    H269086   0.820   4.951  14.800 -0.1578 -0.0165 -0.6017
15891TIP3   OH269087   0.658   5.157  12.978 -0.1516 -0.0946 -0.1783
15891TIP3    H169088   0.620   5.146  12.891 -1.4845 -0.7085  0.4586
15891TIP3    H269089   0.733   5.215  12.964 -0.7185  0.3298 -1.6300
15892TIP3   OH269090   5.917   4.808  10.537 -0.3742  0.3625 -0.0885
15892TIP3    H169091   5.899   4.715  10.524 -1.6207  0.5341  0.2580
15892TIP3    H269092   5.972   4.811  10.615  0.2789 -0.1201 -0.5166
15893TIP3   OH269093   1.628   1.667  11.734 -0.0070  0.2677  0.0639
15893TIP3    H169094   1.683   1.603  11.780 -0.1278  0.4839  0.5141
15893TIP3    H269095   1.657   1.752  11.768  0.8158  0.5373 -1.2276
15894TIP3   OH269096   3.395   2.421  12.077  0.1439 -0.2609 -0.0714
15894TIP3    H169097   3.486   2.449  12.067  0.0823  0.0452  0.1850
15894TIP3    H269098   3.353   2.494  12.123  0.0204 -0.8640  0.8092
15895TIP3   OH269099   3.930   4.114  16.279  0.5900  0.4017  0.4840
15895TIP3    H169100   3.843   4.121  16.318  0.5198 -1.1948  0.6913
15895TIP3    H269101   3.918   4.056  16.204  1.7443 -1.2160  1.4858
15896TIP3   OH269102   6.627   5.907  17.146  0.1938  0.0582  0.4523
15896TIP3    H169103   6.532   5.901  17.135  0.2731  0.2122 -0.3890
15896TIP3    H269104   6.663   5.853  17.076  0.7282 -0.6020  1.2137
15897TIP3   OH269105   0.090   0.171   4.885 -0.3170  0.4244  0.9404
15897TIP3    H169106   0.042   0.186   4.967 -1.7904 -0.5913  0.3068
15897TIP3    H269107   0.097   0.257   4.844 -0.4890  0.7742  1.6408
15898TIP3   OH269108   4.884   1.932  16.762  0.3757  0.1491  0.1424
15898TIP3    H169109   4.870   1.897  16.674 -1.8019  0.2995  0.3653
15898TIP3    H269110   4.836   2.014  16.762  2.2387  1.3022  0.8209
15899TIP3   OH269111   0.607   4.797  12.319  0.1956 -0.3721 -0.0944
15899TIP3    H169112   0.518   4.784  12.286 -0.7450  0.7676  1.8352
15899TIP3    H269113   0.662   4.794  12.240 -1.6453 -0.1313 -1.4657
15900TIP3   OH269114   4.626   1.964  12.121 -0.0353  0.2000  0.3101
15900TIP3    H169115   4.697   1.903  12.103  1.3951  1.6322  0.7816
15900TIP3    H269116   4.666   2.032  12.176 -2.0247  0.5626  1.4147
15901TIP3   OH269117   6.304   2.314  14.987 -0.0106  0.8081 -0.5371
15901TIP3    H169118   6.333   2.253  15.056 -1.6596 -0.7254 -1.1287
15901TIP3    H269119   6.338   2.276  14.906 -1.9938 -0.0373 -1.0375
15902TIP3   OH269120   4.094   3.795  12.264  0.0922  0.8654  0.6249
15902TIP3    H169121   4.000   3.788  12.247  0.3555  1.0089 -0.9909
15902TIP3    H269122   4.121   3.875  12.219  0.9963  0.8652  1.1295
15903TIP3   OH269123   5.685   0.961  14.497 -0.2391  0.6660 -0.3630
15903TIP3    H169124   5.671   1.004  14.413 -1.8377  1.3140  0.1800
15903TIP3    H269125   5.702   0.870  14.476  3.1755  1.4444 -1.5556
15904TIP3   OH269126   1.044   4.760   5.951 -0.7775 -0.2387 -0.3310
15904TIP3    H169127   1.092   4.821   6.007 -1.2602  0.2509 -0.4484
15904TIP3    H269128   1.111   4.723   5.894 -0.6987  1.3414 -1.3198
15905TIP3   OH269129   6.146   5.163  14.187  0.0985  0.0313 -0.2354
15905TIP3    H169130   6.229   5.159  14.139 -0.5684  3.2670 -1.9623
15905TIP3    H269131   6.079   5.161  14.119 -1.0896  0.6096  0.8776
15906TIP3   OH269132   4.749   0.718  11.350  0.6502 -0.8570  0.0846
15906TIP3    H169133   4.820   0.763  11.303 -0.2428  0.8420  0.3178
15906TIP3    H269134   4.669   0.746  11.306  0.0825 -2.8594 -0.2584
15907TIP3   OH269135   5.917   1.147   3.862  0.3338 -0.0390 -0.3825
15907TIP3    H169136   5.961   1.218   3.908 -1.3178  0.6883  0.1721
15907TIP3    H269137   5.984   1.079   3.851  1.6127  1.0952  0.1892
15908TIP3   OH269138   0.533   2.948   2.438 -0.3396 -0.1095  0.0805
15908TIP3    H169139   0.584   3.017   2.481  0.0990 -0.6454  0.4310
15908TIP3    H269140   0.446   2.953   2.478 -0.3068  0.2241  0.1153
15909TIP3   OH269141   4.018   3.826  11.151 -0.0063  0.5112 -0.0242
15909TIP3    H169142   3.970   3.747  11.128  0.6978  0.1559 -0.3119
15909TIP3    H269143   3.966   3.898  11.115  0.3973  0.0436 -1.6160
15910TIP3   OH269144   4.193   1.727   5.776 -0.1197 -0.2663 -0.7562
15910TIP3    H169145   4.121   1.682   5.820  0.5369 -0.3042  0.3146
15910TIP3    H269146   4.223   1.793   5.839  1.1832 -0.6653 -0.9157
15911TIP3   OH269147   1.808   5.889   3.606 -0.8648 -0.3104  0.3437
15911TIP3    H169148   1.830   5.866   3.697 -0.9029 -0.5601  0.2915
15911TIP3    H269149   1.734   5.949   3.614  0.9856  2.0592  0.6088
15912TIP3   OH269150   5.181   5.573  11.905  0.4950 -0.0125  0.3025
15912TIP3    H169151   5.229   5.549  11.826 -1.0308 -0.4238 -0.5351
15912TIP3    H269152   5.190   5.498  11.963  0.7125 -0.1595  0.0789
15913TIP3   OH269153   4.133   5.486  11.133 -0.8690 -0.1241  0.2779
15913TIP3    H169154   4.071   5.419  11.105 -1.6993  0.2417  1.1887
15913TIP3    H269155   4.080   5.564  11.146 -0.0845  0.4214  0.2980
15914TIP3   OH269156   0.633   4.196   1.290 -0.1239 -0.1131 -0.6844
15914TIP3    H169157   0.675   4.121   1.249  0.9954  0.3582 -0.4371
15914TIP3    H269158   0.583   4.237   1.220 -1.0024 -1.2465 -0.7497
15915TIP3   OH269159   0.133   4.272   1.501 -0.0863 -0.2765  0.5550
15915TIP3    H169160   0.187   4.310   1.570 -1.3390  3.2666 -0.2413
15915TIP3    H269161   0.185   4.282   1.421 -0.8811  0.8273  0.1656
15916TIP3   OH269162   1.411   0.776   2.442  0.0150  0.8062 -0.3176
15916TIP3    H169163   1.497   0.813   2.464  0.1574 -0.0624  0.6337
15916TIP3    H269164   1.390   0.814   2.357  2.1381 -0.3026 -1.3993
15917TIP3   OH269165   4.375   5.345   1.040 -0.1028  0.1697 -0.1171
15917TIP3    H169166   4.382   5.440   1.043  0.1786  0.1351  0.2840
15917TIP3    H269167   4.301   5.329   0.980  0.7432  0.6033 -1.3098
15918TIP3   OH269168   5.556   5.736  14.993  0.2284  0.7508 -0.5406
15918TIP3    H169169   5.549   5.831  14.995  0.9731  0.8012 -0.3654
15918TIP3    H269170   5.586   5.716  14.904 -1.1794  0.5831 -1.0096
15919TIP3   OH269171   2.572   3.662  15.978 -0.0840 -1.1563 -0.2404
15919TIP3    H169172   2.537   3.725  16.041 -0.0272  0.2933 -1.5834
15919TIP3    H269173   2.507   3.659  15.908  0.7326 -1.2304 -1.0293
15920TIP3   OH269174   1.480   2.713   6.784 -0.0469  0.0215  0.4608
15920TIP3    H169175   1.386   2.732   6.786  0.0927  1.7473 -2.8230
15920TIP3    H269176   1.486   2.627   6.743 -0.1894  0.3495 -0.2595
15921TIP3   OH269177   1.011   4.230   4.266  0.0239 -0.4764  0.8250
15921TIP3    H169178   1.075   4.273   4.209  0.4740 -1.2505  0.7361
15921TIP3    H269179   0.934   4.217   4.210 -0.0506  0.0456  0.8027
15922TIP3   OH269180   5.669   3.428  13.705  0.1998  0.2141 -0.2272
15922TIP3    H169181   5.638   3.369  13.636  1.1396  0.7955 -1.1885
15922TIP3    H269182   5.681   3.372  13.782 -1.5687 -0.3207 -0.2927
15923TIP3   OH269183   0.008   1.718   2.834  0.1762  0.3180  0.0450
15923TIP3    H169184   0.067   1.650   2.865 -0.0083  0.3395  0.4450
15923TIP3    H269185  -0.059   1.725   2.901  0.6391  1.4657  0.4162
15924TIP3   OH269186   5.561   3.044   2.793  0.3016  0.2189 -0.0972
15924TIP3    H169187   5.646   3.001   2.796 -0.5680 -1.7168  4.3797
15924TIP3    H269188   5.499   2.975   2.769 -0.5470  0.1293  2.1456
15925TIP3   OH269189   1.795   4.348   0.298  0.1194  0.0490  0.2537
15925TIP3    H169190   1.702   4.332   0.286  0.6711 -2.7709 -1.0287
15925TIP3    H269191   1.817   4.300   0.378  0.9720 -1.8944 -1.0861
15926TIP3   OH269192   5.483   2.338   4.245  0.2839 -0.2234  0.1785
15926TIP3    H169193   5.517   2.250   4.262 -0.2663 -0.1701  1.6863
15926TIP3    H269194   5.394   2.324   4.213  0.0410 -0.2065  0.8398
15927TIP3   OH269195   6.551   0.642  12.784 -0.0588 -0.3442 -0.0587
15927TIP3    H169196   6.504   0.603  12.857  1.8159 -0.8157  0.9609
15927TIP3    H269197   6.484   0.691  12.736 -1.4570 -0.5033  1.6275
15928TIP3   OH269198   5.895   1.718   5.924 -0.6039 -0.5425  0.3070
15928TIP3    H169199   5.986   1.689   5.918 -0.0349  1.3277 -0.8831
15928TIP3    H269200   5.892   1.773   6.002 -0.5115  0.0231 -0.0829
15929TIP3   OH269201   4.264   5.565   3.561  0.5102  0.2682 -0.5144
15929TIP3    H169202   4.244   5.658   3.552  1.4859  0.3521 -2.3645
15929TIP3    H269203   4.301   5.540   3.477  0.4345 -1.7771 -0.0063
15930TIP3   OH269204   3.801   2.527  12.549 -0.0846 -0.4425 -0.1936
15930TIP3    H169205   3.706   2.536  12.540 -0.5618 -2.9853  1.3420
15930TIP3    H269206   3.813   2.470  12.626  2.7750  1.9300  1.3596
15931TIP3   OH269207   6.104   1.797  15.210 -0.0403  0.4622 -0.0204
15931TIP3    H169208   6.059   1.736  15.150 -1.0981  0.4345  0.7643
15931TIP3    H269209   6.060   1.881  15.196  1.7195  1.2074 -1.4304
15932TIP3   OH269210   0.945   5.869   4.574 -0.0969  0.5166 -0.4893
15932TIP3    H169211   0.908   5.807   4.511 -0.9604  0.6239 -0.1072
15932TIP3    H269212   0.959   5.818   4.654 -0.4592  0.7185 -0.2918
15933TIP3   OH269213   1.643   2.183   4.604  0.2500  0.3635 -0.2199
15933TIP3    H169214   1.691   2.102   4.585  1.1270  0.5831  0.9014
15933TIP3    H269215   1.595   2.202   4.524  1.3341 -0.3764 -1.0846
15934TIP3   OH269216   2.634   0.393  16.159  0.2098  0.0907 -0.0665
15934TIP3    H169217   2.539   0.376  16.156  0.4124 -1.5477  1.2228
15934TIP3    H269218   2.668   0.356  16.078 -0.1899  0.2198 -0.2972
15935TIP3   OH269219   6.038   5.334  12.630  0.9716 -0.2294 -0.2368
15935TIP3    H169220   6.022   5.398  12.699  1.1589  0.2001 -0.5856
15935TIP3    H269221   6.097   5.270  12.670  0.4589 -0.4094  0.2385
15936TIP3   OH269222   2.841   2.802   0.427 -0.3766  0.3020  0.6055
15936TIP3    H169223   2.787   2.874   0.396 -1.7566 -0.6011  0.8358
15936TIP3    H269224   2.880   2.765   0.348  0.1621  1.1496  0.4688
15937TIP3   OH269225   4.164   5.368  16.302  0.3644  0.1798 -0.6682
15937TIP3    H169226   4.210   5.321  16.233  0.0684  0.3630 -0.9917
15937TIP3    H269227   4.149   5.455  16.267  1.2992  0.6687  0.0972
15938TIP3   OH269228   5.491   5.340   2.750 -0.1266 -0.0345  0.1845
15938TIP3    H169229   5.508   5.384   2.666 -2.8823  0.1169 -0.3737
15938TIP3    H269230   5.490   5.410   2.814  0.6703  0.0209  0.1449
15939TIP3   OH269231   5.064   1.005   5.755 -0.4426  0.1646 -0.0718
15939TIP3    H169232   5.027   0.920   5.780  0.0796  0.1415  0.6725
15939TIP3    H269233   5.016   1.030   5.676 -0.8913 -0.6265 -0.0631
15940TIP3   OH269234   2.131   2.329   2.977 -0.1091 -0.1622 -0.0909
15940TIP3    H169235   2.041   2.313   3.003 -0.4799 -0.4821 -1.4767
15940TIP3    H269236   2.134   2.423   2.956 -0.2333 -0.2487 -0.4880
15941TIP3   OH269237   3.180   3.332   2.506 -0.0039  0.5927 -0.8006
15941TIP3    H169238   3.190   3.283   2.425 -1.7684  0.5263 -1.0145
15941TIP3    H269239   3.230   3.281   2.571  0.9187  0.3266 -1.6879
15942TIP3   OH269240   4.740   1.397  14.277 -0.0671  0.0530  0.3516
15942TIP3    H169241   4.758   1.491  14.276 -1.5628  0.3755  1.0676
15942TIP3    H269242   4.649   1.389  14.251  0.9328 -1.5102 -3.2469
15943TIP3   OH269243   0.079   1.432  11.547 -0.2060  0.3416  0.1618
15943TIP3    H169244   0.053   1.514  11.507  0.5193  0.7790  0.5525
15943TIP3    H269245  -0.002   1.393  11.578 -0.3492  2.3643  2.7094
15944TIP3   OH269246   2.200   2.577   5.246  0.2368  0.5642  0.6014
15944TIP3    H169247   2.236   2.493   5.274  1.1332  0.2170 -1.3872
15944TIP3    H269248   2.274   2.638   5.251 -0.3519  1.2208  1.8258
15945TIP3   OH269249   6.249   6.228   4.167 -0.4532  0.4732  0.3076
15945TIP3    H169250   6.331   6.183   4.188  0.0106  0.4658 -1.4069
15945TIP3    H269251   6.205   6.236   4.251  0.3664 -1.3523  0.9722
15946TIP3   OH269252   1.443   5.947   5.515  0.1611  0.1685 -0.2808
15946TIP3    H169253   1.472   5.923   5.604 -1.0421  1.4595  0.4909
15946TIP3    H269254   1.369   5.889   5.498  0.7760 -0.5116 -0.7259
15947TIP3   OH269255   0.891   1.152   3.333 -0.0195  0.3989  0.2788
15947TIP3    H169256   0.971   1.121   3.377  0.6200  1.1319 -0.3343
15947TIP3    H269257   0.884   1.244   3.358 -0.3964  0.4658 -0.0747
15948TIP3   OH269258   1.518   1.665  10.590  0.3930  0.3855  0.5009
15948TIP3    H169259   1.562   1.736  10.637  1.9902 -0.6716  0.6761
15948TIP3    H269260   1.532   1.686  10.497  2.1530 -0.4385  0.5572
15949TIP3   OH269261   3.845   0.265   1.880  0.0181  0.2512 -0.0506
15949TIP3    H169262   3.920   0.250   1.937 -1.4823  0.8991  2.2492
15949TIP3    H269263   3.872   0.336   1.822  0.5282  1.9155  2.1170
15950TIP3   OH269264   3.921   1.881  11.993  0.2529 -0.1251 -0.1360
15950TIP3    H169265   3.904   1.794  12.028 -2.3980  0.2031 -0.3949
15950TIP3    H269266   3.994   1.914  12.045 -0.7781 -1.2800  2.1898
15951TIP3   OH269267   3.819   2.993  16.176  0.1431  0.6065  0.4352
15951TIP3    H169268   3.895   3.034  16.136 -1.2537  1.1850 -1.8363
15951TIP3    H269269   3.789   2.930  16.111 -1.6611  0.8205  0.9936
15952TIP3   OH269270   5.943   4.588   2.840  0.6088  0.1064 -0.2959
15952TIP3    H169271   5.975   4.658   2.784  2.5665  1.1238  1.9338
15952TIP3    H269272   5.998   4.513   2.820  1.9901  0.7615  0.8810
15953TIP3   OH269273   4.444   3.920   1.521 -0.9141  0.0388  0.2128
15953TIP3    H169274   4.350   3.926   1.502 -0.8003  1.2513 -0.0544
15953TIP3    H269275   4.485   3.973   1.453 -0.0894  0.0944  0.7475
15954TIP3   OH269276   5.025   0.944   4.909  0.3607 -0.2551  0.8954
15954TIP3    H169277   5.093   0.902   4.856 -0.7747 -0.9770 -0.0288
15954TIP3    H269278   5.027   1.036   4.883  1.4687 -0.1147  1.4227
15955TIP3   OH269279   5.443   0.285   6.521  0.4057  0.1952  0.6390
15955TIP3    H169280   5.373   0.228   6.490  1.2237  0.3470 -1.7129
15955TIP3    H269281   5.402   0.370   6.534 -0.1044 -0.0485  0.6128
15956TIP3   OH269282   0.370   0.039  13.465  0.5068  0.0505 -0.2780
15956TIP3    H169283   0.408   0.029  13.552  1.0378 -0.1087 -0.5257
15956TIP3    H269284   0.296  -0.021  13.464  1.2318 -0.8620 -0.3532
15957TIP3   OH269285   1.215   5.835  16.269 -0.5770  0.0576  0.2506
15957TIP3    H169286   1.211   5.745  16.301 -0.6751 -0.1582 -0.3588
15957TIP3    H269287   1.273   5.831  16.193  0.2683  0.7021  0.8436
15958TIP3   OH269288   6.239   0.812   5.012  0.0039 -0.4832 -0.1071
15958TIP3    H169289   6.239   0.840   5.103  0.0395  0.5161 -0.4085
15958TIP3    H269290   6.159   0.760   5.003 -0.7964  0.6662  0.1300
15959TIP3   OH269291   2.318   2.811  11.683  0.4621  0.3570  0.2359
15959TIP3    H169292   2.352   2.743  11.741 -1.2963 -0.1349  0.7568
15959TIP3    H269293   2.293   2.764  11.603 -0.7173  0.3652  0.5803
15960TIP3   OH269294   1.485   0.806  15.062  0.3147  0.3574  0.5888
15960TIP3    H169295   1.442   0.733  15.016 -0.4088  0.9077  0.3803
15960TIP3    H269296   1.435   0.816  15.143 -1.7658  2.7631 -0.8552
15961TIP3   OH269297   3.002   4.792  16.714 -0.2412  0.0837  0.4111
15961TIP3    H169298   3.048   4.717  16.751 -0.2622 -0.0915  0.0869
15961TIP3    H269299   3.071   4.849  16.680 -0.1088  1.0706  2.2124
15962TIP3   OH269300   4.615   3.511  13.207  0.5619  0.3119  0.4497
15962TIP3    H169301   4.673   3.438  13.183 -1.2720 -1.5987  1.4480
15962TIP3    H269302   4.551   3.471  13.266 -1.4583  2.4071 -0.1899
15963TIP3   OH269303   3.029   5.806  13.564  0.0476  0.0533  0.2430
15963TIP3    H169304   3.084   5.786  13.639 -0.9084  0.1323  0.9740
15963TIP3    H269305   2.958   5.743  13.568  0.4648 -0.5513 -1.1326
15964TIP3   OH269306   1.338   5.031   5.677  0.1254 -0.8851 -0.5247
15964TIP3    H169307   1.430   5.013   5.694 -0.0806 -2.3473 -0.7902
15964TIP3    H269308   1.296   4.945   5.678 -1.6049 -0.1453  1.5954
15965TIP3   OH269309   3.362   6.439  14.000 -0.4089  0.0291  0.1180
15965TIP3    H169310   3.371   6.345  14.020  1.0084  0.5172  2.0395
15965TIP3    H269311   3.271   6.459  14.022 -0.5165 -0.7361  0.4029
15966TIP3   OH269312   0.034   2.887   1.299  0.7146  0.0453 -0.0229
15966TIP3    H169313   0.094   2.814   1.284  0.2824 -0.2291 -0.4597
15966TIP3    H269314   0.017   2.886   1.393  1.3521  0.1023  0.1008
15967TIP3   OH269315   3.786   4.184  12.750  0.1668 -0.1105 -0.3471
15967TIP3    H169316   3.811   4.277  12.757 -1.3085  0.1946  2.1619
15967TIP3    H269317   3.694   4.185  12.726 -0.2391 -0.8650  1.0908
15968TIP3   OH269318   1.942   0.590   3.134  0.4890 -0.4813  0.8117
15968TIP3    H169319   1.854   0.557   3.155  0.5969 -1.1948  0.1878
15968TIP3    H269320   1.927   0.668   3.082  0.2255  0.3291  2.0592
15969TIP3   OH269321   0.203   6.380   1.531 -0.3785 -0.1473 -0.1717
15969TIP3    H169322   0.133   6.332   1.575  1.0076 -0.4463  1.8498
15969TIP3    H269323   0.161   6.419   1.455 -2.4160 -1.4311  0.2036
15970TIP3   OH269324   1.650   0.203  11.819 -0.0618 -0.1869 -0.1394
15970TIP3    H169325   1.600   0.157  11.886 -3.5282 -0.7480 -2.8341
15970TIP3    H269326   1.650   0.294  11.848 -1.2819 -0.4368  0.7470
15971TIP3   OH269327   1.194   4.784   6.346  0.1391  0.1314  0.3207
15971TIP3    H169328   1.198   4.766   6.440 -0.3531  1.7469  0.6797
15971TIP3    H269329   1.283   4.808   6.322  0.1514  0.2502  0.4857
15972TIP3   OH269330   5.157   2.668  15.784 -0.2527 -0.5193 -0.8628
15972TIP3    H169331   5.128   2.627  15.702 -0.0716 -1.5824 -0.4184
15972TIP3    H269332   5.089   2.732  15.805 -0.9013 -1.0780 -1.2334
15973TIP3   OH269333   1.537   3.920  13.196 -0.9985 -0.0773  0.0576
15973TIP3    H169334   1.622   3.957  13.172 -1.6966  1.1727 -0.5757
15973TIP3    H269335   1.546   3.826  13.177 -0.1950  0.2317 -1.2626
15974TIP3   OH269336   0.874   5.108   2.046  0.0892 -0.7562 -0.3006
15974TIP3    H169337   0.817   5.032   2.035  0.3358 -0.8139 -1.2410
15974TIP3    H269338   0.911   5.124   1.959  1.0612 -0.3622  0.1677
15975TIP3   OH269339   2.617   0.291  10.666  0.3049  0.0789  0.0374
15975TIP3    H169340   2.638   0.382  10.646 -1.0916  0.2303 -0.9100
15975TIP3    H269341   2.522   0.291  10.679  0.2830 -1.2512 -0.0074
15976TIP3   OH269342   6.119   4.081  15.395 -0.2109  0.0045 -0.0404
15976TIP3    H169343   6.105   3.995  15.354 -1.3088 -0.1267  0.5838
15976TIP3    H269344   6.176   4.127  15.333  1.8966 -1.7804  0.4130
15977TIP3   OH269345   3.753   2.921   5.971 -0.6691  0.3334  0.4724
15977TIP3    H169346   3.764   2.976   6.049  2.4117  1.0813 -0.3291
15977TIP3    H269347   3.809   2.845   5.987 -1.2370 -0.2882 -0.3684
15978TIP3   OH269348   4.011   6.257   5.100  0.0839  0.0328  0.0232
15978TIP3    H169349   4.064   6.294   5.030 -1.5522 -0.2855 -1.4442
15978TIP3    H269350   3.996   6.330   5.160  1.0648  0.4480 -0.2184
15979TIP3   OH269351   0.401   6.375  16.713  0.0117 -0.4914 -0.3645
15979TIP3    H169352   0.436   6.372  16.624  1.1138 -0.5948  0.0628
15979TIP3    H269353   0.449   6.307  16.759 -0.9376 -0.8070  0.1883
15980TIP3   OH269354   1.264   1.974   1.206  0.0487  0.5547 -0.3572
15980TIP3    H169355   1.202   2.017   1.265 -0.3032  0.5163 -0.6941
15980TIP3    H269356   1.345   2.024   1.215  0.5999 -0.5968  1.5971
15981TIP3   OH269357   4.122   1.763  11.449  0.4532  0.0409 -0.2730
15981TIP3    H169358   4.140   1.758  11.356  0.4315 -0.3637 -0.2573
15981TIP3    H269359   4.166   1.687  11.486 -0.0307 -0.1237 -0.0316
15982TIP3   OH269360   5.543   4.361   4.915  0.3672  0.4256  0.3069
15982TIP3    H169361   5.494   4.301   4.859  0.8692 -0.5048  0.8267
15982TIP3    H269362   5.629   4.320   4.925  0.1689  0.3316  2.0627
15983TIP3   OH269363   0.206   4.392  15.346 -0.1557  0.2508 -0.3864
15983TIP3    H169364   0.162   4.458  15.292  1.9291 -0.1818 -2.8296
15983TIP3    H269365   0.270   4.442  15.396 -0.2079  0.3556 -0.4234
15984TIP3   OH269366   4.788   0.434  14.267  0.7970 -0.4456 -0.4801
15984TIP3    H169367   4.801   0.513  14.214  0.6948  0.2527  0.4920
15984TIP3    H269368   4.720   0.385  14.221  0.7940  0.0813 -1.0510
15985TIP3   OH269369   3.872   3.670   0.177  0.0894  0.1599 -0.0209
15985TIP3    H169370   3.954   3.622   0.188  0.0052 -0.0435 -0.2727
15985TIP3    H269371   3.862   3.679   0.082  0.1052  0.6774  0.0229
15986TIP3   OH269372   5.214   2.735   5.906 -0.2478  0.1452 -0.6617
15986TIP3    H169373   5.129   2.737   5.950 -0.2577 -0.9219 -0.6068
15986TIP3    H269374   5.273   2.780   5.966  0.0796 -2.6103  1.2662
15987TIP3   OH269375   0.252   5.817  11.185  0.0508  0.0457 -0.2266
15987TIP3    H169376   0.263   5.723  11.166  0.5366 -0.1021  0.7121
15987TIP3    H269377   0.290   5.861  11.109 -0.5395 -0.5187 -0.8569
15988TIP3   OH269378   0.499   0.884  11.774 -0.1521 -0.2579 -0.4713
15988TIP3    H169379   0.594   0.895  11.768 -0.1410  1.0011  1.2104
15988TIP3    H269380   0.465   0.973  11.788 -1.2700 -0.9524  1.8984
15989TIP3   OH269381   3.247   1.716  14.477 -0.2384  0.0955 -1.0430
15989TIP3    H169382   3.322   1.687  14.528 -0.3551 -0.3012 -1.0921
15989TIP3    H269383   3.171   1.690  14.529 -0.3647 -0.5923 -1.5622
15990TIP3   OH269384   1.564   2.952   1.739  0.3391  0.1795  0.0608
15990TIP3    H169385   1.546   2.859   1.722 -3.4366  0.5791  0.9538
15990TIP3    H269386   1.538   2.996   1.658 -1.0517  0.6590  0.7377
15991TIP3   OH269387   3.153   5.479  12.626  0.6743  0.3417 -0.2767
15991TIP3    H169388   3.103   5.398  12.637  0.8147  0.4360  1.2486
15991TIP3    H269389   3.178   5.504  12.715  0.6096  2.0757 -0.7123
15992TIP3   OH269390   5.759   0.329   4.433 -0.0474 -0.0689  0.1141
15992TIP3    H169391   5.830   0.390   4.416 -1.3213  1.2243 -0.7843
15992TIP3    H269392   5.768   0.306   4.526  0.2726  1.7774  0.5724
15993TIP3   OH269393   4.440   1.082   0.367  0.3310 -0.3417  0.0113
15993TIP3    H169394   4.510   1.021   0.342  0.6361 -0.6796  1.6189
15993TIP3    H269395   4.481   1.168   0.365  0.5969 -0.4623  0.2475
15994TIP3   OH269396   0.195   4.509   3.632 -0.2663  0.4322 -0.1891
15994TIP3    H169397   0.171   4.446   3.700 -1.7735  1.2456  0.0668
15994TIP3    H269398   0.287   4.490   3.614 -0.0618 -0.3632  1.4803
15995TIP3   OH269399   3.447   5.600   0.566 -0.1854 -0.3001  0.0777
15995TIP3    H169400   3.486   5.661   0.504 -0.0200  0.7566  1.1799
15995TIP3    H269401   3.366   5.643   0.594 -0.4397 -0.9226  0.3111
15996TIP3   OH269402   5.265   2.987   3.124 -0.0758  0.3417  0.0205
15996TIP3    H169403   5.313   3.069   3.128  0.3509  0.1719 -1.1436
15996TIP3    H269404   5.262   2.956   3.214  0.2196  1.3655  0.3960
15997TIP3   OH269405   5.491   0.510   3.383 -0.9980 -0.0722  0.3100
15997TIP3    H169406   5.462   0.557   3.462 -1.4302  0.7883 -0.3506
15997TIP3    H269407   5.559   0.451   3.415  1.3114  2.6490  0.8526
15998TIP3   OH269408   3.143   3.673  16.253  0.9787 -0.8336  0.1772
15998TIP3    H169409   3.193   3.704  16.328  0.1330 -1.3693  0.9940
15998TIP3    H269410   3.092   3.599  16.287  1.2884 -1.7047 -1.1649
15999TIP3   OH269411   6.684   1.347  11.226 -0.2377  0.3599  0.3389
15999TIP3    H169412   6.669   1.271  11.282  1.9948 -0.0004  0.5396
15999TIP3    H269413   6.674   1.314  11.137 -1.2517  0.3234  0.4598
16000TIP3   OH269414   4.291   0.176   0.043  0.5316 -0.0089 -0.2365
16000TIP3    H169415   4.237   0.121   0.100  2.0422  0.4287  1.7476
16000TIP3    H269416   4.357   0.117   0.007  0.2334 -0.0841 -0.6594
16001TIP3   OH269417   5.936   2.651   4.331  0.8640 -0.2284 -0.1333
16001TIP3    H169418   5.874   2.629   4.261  0.5731  0.0630  0.0255
16001TIP3    H269419   6.008   2.589   4.320  0.8276 -0.1773 -0.6989
16002TIP3   OH269420   4.892   1.962  12.249  0.2251  0.6282 -0.1700
16002TIP3    H169421   4.946   1.897  12.204 -0.3367  0.8202 -1.1450
16002TIP3    H269422   4.892   1.933  12.341  0.2862 -0.5458 -0.5199
16003TIP3   OH269423   1.435   2.929   3.700 -0.1751 -0.2174 -0.4604
16003TIP3    H169424   1.433   2.835   3.717 -2.7806 -0.4977 -1.8580
16003TIP3    H269425   1.358   2.964   3.746  0.8160  1.2866  0.1533
16004TIP3   OH269426   5.131   4.730   1.396 -0.5232  0.0163 -0.3260
16004TIP3    H169427   5.210   4.783   1.383 -0.7366 -0.0882 -2.5588
16004TIP3    H269428   5.107   4.744   1.487  1.5188  0.8166  0.1416
16005TIP3   OH269429   6.192   1.121  13.995 -0.4936 -0.6263 -0.2033
16005TIP3    H169430   6.199   1.064  14.072  0.4519  0.9466  0.9359
16005TIP3    H269431   6.108   1.099  13.957 -0.1384 -2.8145  0.1511
16006TIP3   OH269432   0.994   4.030   2.730 -0.3981  0.1622  0.1394
16006TIP3    H169433   0.942   3.959   2.692 -3.6869  1.4554  1.8134
16006TIP3    H269434   0.973   4.107   2.677 -0.8134  0.8616  1.2671
16007TIP3   OH269435   4.291   1.411   4.096 -0.6316 -0.4758 -0.5558
16007TIP3    H169436   4.232   1.461   4.040 -1.1508  1.3804  1.4882
16007TIP3    H269437   4.365   1.470   4.110 -0.1115 -1.2498  0.0050
16008TIP3   OH269438   2.779   1.796   4.328  0.1603 -0.0931  0.3671
16008TIP3    H169439   2.818   1.728   4.382  1.1373 -0.1153 -0.3418
16008TIP3    H269440   2.835   1.873   4.343 -1.0604  0.6508  1.3389
16009TIP3   OH269441   1.352   2.488   4.498 -0.6638 -0.2819 -0.0089
16009TIP3    H169442   1.409   2.530   4.562 -0.8389 -0.0739  0.0123
16009TIP3    H269443   1.371   2.532   4.416 -0.0985 -0.8693 -0.1997
16010TIP3   OH269444   5.519   4.124   0.296  0.3599  0.8426  0.2144
16010TIP3    H169445   5.578   4.061   0.256 -1.5172 -0.0097 -1.3663
16010TIP3    H269446   5.482   4.173   0.222 -2.4413 -0.0583  0.8945
16011TIP3   OH269447   2.417   2.818   0.955  0.3803  0.1644  0.0270
16011TIP3    H169448   2.413   2.766   1.035 -0.4339  0.7519  0.3934
16011TIP3    H269449   2.326   2.821   0.924  0.3313  1.6770  0.2463
16012TIP3   OH269450   1.016   6.083  15.161  0.1265 -0.0276 -0.4195
16012TIP3    H169451   1.083   6.140  15.199 -0.5128 -1.0480  2.4776
16012TIP3    H269452   0.942   6.142  15.143  0.5367  0.5280 -0.3177
16013TIP3   OH269453   2.029   6.105  16.681  0.4416  0.0374 -0.5343
16013TIP3    H169454   2.027   6.189  16.727  0.5248  1.2921 -2.6894
16013TIP3    H269455   1.939   6.073  16.688  0.0929  0.9231 -0.7217
16014TIP3   OH269456   6.702   4.341  11.605  0.1490  0.2221  0.3134
16014TIP3    H169457   6.759   4.350  11.681 -2.3199  0.1218  2.2870
16014TIP3    H269458   6.629   4.399  11.622 -0.6789 -0.1004 -1.8389
16015TIP3   OH269459   1.725   6.038  14.926 -0.1710  0.0019 -0.1124
16015TIP3    H169460   1.774   5.957  14.920 -0.4419 -0.2487  0.8470
16015TIP3    H269461   1.787   6.101  14.965 -0.3407 -0.0922  0.3204
16016TIP3   OH269462   5.385   1.535  17.201  0.1037  0.2271 -0.1791
16016TIP3    H169463   5.415   1.444  17.192 -1.3871 -0.8750  4.0305
16016TIP3    H269464   5.359   1.560  17.112  1.8700 -2.9378 -1.7507
16017TIP3   OH269465   2.268   5.279  16.489  0.4582 -0.4365 -0.4201
16017TIP3    H169466   2.290   5.372  16.497  0.5867 -0.5684  0.9454
16017TIP3    H269467   2.351   5.233  16.499  0.3196 -0.7227 -0.5713
16018TIP3   OH269468   5.808   3.867   0.739 -0.3402  0.2508  0.3626
16018TIP3    H169469   5.888   3.891   0.786  0.6593 -0.4174 -0.9314
16018TIP3    H269470   5.793   3.939   0.678  1.4559 -1.2462 -2.0202
16019TIP3   OH269471   5.585   1.004   0.045  0.1820 -0.1856 -0.0578
16019TIP3    H169472   5.643   1.037  -0.024  0.1250 -0.3692 -0.1945
16019TIP3    H269473   5.644   0.959   0.106  0.0910 -1.1557 -0.6562
16020TIP3   OH269474   6.006   0.257  11.677  0.2587  0.0318 -0.5890
16020TIP3    H169475   5.966   0.291  11.597 -0.7700 -1.5916 -0.8232
16020TIP3    H269476   6.098   0.281  11.670 -0.1603  1.5443 -1.3361
16021TIP3   OH269477   2.188   4.025  16.096 -0.6541 -0.2540  0.0457
16021TIP3    H169478   2.097   4.009  16.122 -0.3406 -0.4181  1.0819
16021TIP3    H269479   2.188   4.017  16.000 -2.2635  2.3510 -0.2729
16022TIP3   OH269480   0.164   3.743  14.167 -0.5615  0.3560  0.7430
16022TIP3    H169481   0.122   3.802  14.104 -0.1822  0.6492  0.7633
16022TIP3    H269482   0.257   3.763  14.161 -0.3321 -0.7609  0.2103
16023TIP3   OH269483   0.299   4.632  16.317  0.1496 -0.7874  0.5052
16023TIP3    H169484   0.387   4.598  16.302  0.0237 -1.3070  0.9264
16023TIP3    H269485   0.250   4.557  16.352 -0.2278 -0.2644  1.0971
16024TIP3   OH269486   1.185   0.432   0.772 -0.1251  0.1301  0.1064
16024TIP3    H169487   1.257   0.490   0.795  0.1303  0.6409 -1.7715
16024TIP3    H269488   1.163   0.456   0.682 -1.1826 -1.5047 -0.1147
16025TIP3   OH269489   6.625   6.652   5.438 -0.5592  0.3750  0.3198
16025TIP3    H169490   6.620   6.589   5.366  0.0182  1.2055 -0.4690
16025TIP3    H269491   6.594   6.734   5.400  0.6809  1.0582  0.7330
16026TIP3   OH269492   6.536   0.234   4.040 -0.8146  0.2206  0.2226
16026TIP3    H169493   6.558   0.194   4.123  1.1814  0.4556 -0.1535
16026TIP3    H269494   6.531   0.161   3.978 -2.1268  0.0655  0.4784
16027TIP3   OH269495   5.601   1.199   5.639  0.2014 -0.1517 -0.7035
16027TIP3    H169496   5.637   1.113   5.617  0.0356  0.1351 -2.2154
16027TIP3    H269497   5.669   1.261   5.614  0.0821  0.1991 -0.1812
16028TIP3   OH269498   3.507   2.350  12.786  0.0519  0.3936  0.3370
16028TIP3    H169499   3.434   2.402  12.752 -0.2636 -0.9090 -1.0638
16028TIP3    H269500   3.561   2.330  12.710 -0.4548 -2.2910  0.5865
16029TIP3   OH269501   1.681   3.445  13.136 -0.2252  0.0312 -0.3996
16029TIP3    H169502   1.776   3.432  13.145 -0.1991  1.0819  1.4791
16029TIP3    H269503   1.646   3.421  13.222 -1.8606 -1.4871 -1.4077
16030TIP3   OH269504   1.873   1.949  14.109  0.1257 -0.4125 -0.3102
16030TIP3    H169505   1.881   1.862  14.148 -0.0267 -1.2149 -2.0020
16030TIP3    H269506   1.963   1.977  14.093  0.2820  0.5558  1.8240
16031TIP3   OH269507   3.275   4.533  14.221 -0.3844 -0.0906  0.3388
16031TIP3    H169508   3.185   4.502  14.231  0.0101 -1.0192  1.1846
16031TIP3    H269509   3.276   4.617  14.266 -0.6494 -0.4313  0.9899
16032TIP3   OH269510   2.804   5.622  15.725 -0.1516 -0.2786 -0.0513
16032TIP3    H169511   2.896   5.597  15.725  0.9082  3.0444  1.1791
16032TIP3    H269512   2.783   5.637  15.817 -1.2443  0.9964 -0.4681
16033TIP3   OH269513   3.359   2.188   4.655  0.1484  0.3399 -0.4756
16033TIP3    H169514   3.417   2.116   4.630  1.0413  1.3243 -1.3340
16033TIP3    H269515   3.378   2.203   4.747 -0.7962 -1.1709  0.0061
16034TIP3   OH269516   2.946   4.406   3.243 -0.0300  0.2677 -0.2254
16034TIP3    H169517   2.903   4.462   3.307 -2.0073 -2.0270  0.6212
16034TIP3    H269518   2.883   4.399   3.171 -0.2240 -1.4247  0.0478
16035TIP3   OH269519   5.277   2.632  12.641  0.1666  0.3010 -0.3234
16035TIP3    H169520   5.341   2.702  12.632  0.0991  0.3488 -0.4341
16035TIP3    H269521   5.279   2.610  12.734 -0.1822  0.8098 -0.1879
16036TIP3   OH269522   6.296   3.938   5.568  0.6454 -0.0157  0.2153
16036TIP3    H169523   6.260   4.016   5.609 -0.2255  1.0039 -2.2977
16036TIP3    H269524   6.221   3.899   5.522  1.1730 -2.0760  0.9996
16037TIP3   OH269525   4.155   2.058  14.578  0.0740  0.7242 -0.0712
16037TIP3    H169526   4.072   2.058  14.627  0.4801 -1.1746  0.6935
16037TIP3    H269527   4.172   1.966  14.559  1.8510  1.1023 -0.4921
16038TIP3   OH269528   2.081   4.577   2.043 -0.0965  0.1971  0.2323
16038TIP3    H169529   2.124   4.660   2.024 -1.0629  0.4728 -0.8589
16038TIP3    H269530   1.999   4.580   1.993 -0.7247 -0.8961  1.1378
16039TIP3   OH269531   0.418   2.480   4.747  0.1904 -0.3880 -0.6547
16039TIP3    H169532   0.430   2.390   4.716  1.4399 -0.6887  0.5980
16039TIP3    H269533   0.380   2.526   4.672 -0.4652 -1.9458 -1.3269
16040TIP3   OH269534   0.809   5.191   3.370 -0.1187  0.3788  0.7445
16040TIP3    H169535   0.743   5.130   3.404 -0.3895  0.8674  1.1004
16040TIP3    H269536   0.880   5.135   3.340 -0.3811 -0.1163  1.0398
16041TIP3   OH269537   6.745   3.572   2.510  0.4062  0.3870 -0.9324
16041TIP3    H169538   6.795   3.580   2.591  0.4206 -0.3850 -0.8578
16041TIP3    H269539   6.663   3.619   2.527  0.2999  0.0112 -0.3692
16042TIP3   OH269540   0.915   1.267  12.325  0.5212 -0.4711  1.0330
16042TIP3    H169541   0.922   1.331  12.395 -1.1142  0.0485  0.7616
16042TIP3    H269542   0.958   1.308  12.250  0.3898 -0.1108  1.1525
16043TIP3   OH269543   0.798   2.358   5.235  0.2722  0.5337  0.3326
16043TIP3    H169544   0.837   2.271   5.236 -1.2642 -0.2058  0.7072
16043TIP3    H269545   0.861   2.413   5.190  0.7829 -1.0166 -0.9297
16044TIP3   OH269546   0.452   1.216   5.496 -0.9033 -0.1292  0.1177
16044TIP3    H169547   0.394   1.151   5.455 -0.6392 -1.1398  1.2870
16044TIP3    H269548   0.526   1.166   5.528 -0.4222  0.8427  0.5764
16045TIP3   OH269549   5.761   0.349  17.134  0.9412 -0.4488 -0.2453
16045TIP3    H169550   5.741   0.397  17.053 -1.0690 -0.6922  0.0558
16045TIP3    H269551   5.785   0.416  17.197 -0.5673  0.0530 -0.1866
16046TIP3   OH269552   6.065   2.992   6.633  0.9366 -0.0640 -0.1224
16046TIP3    H169553   6.055   3.065   6.693  2.4141 -0.0013  0.0652
16046TIP3    H269554   6.102   3.030   6.553  1.0447 -0.4896 -0.2818
16047TIP3   OH269555   5.966   4.077  11.144  0.3454 -0.0540  0.3891
16047TIP3    H169556   6.037   4.013  11.149  0.7494  0.3572 -0.0080
16047TIP3    H269557   5.890   4.032  11.182  0.8284 -0.4760  0.8734
16048TIP3   OH269558   0.275   2.663  12.005  0.3207 -0.2354 -0.1556
16048TIP3    H169559   0.280   2.637  11.913 -0.9861  0.4505 -0.4524
16048TIP3    H269560   0.290   2.757  12.004 -0.5752 -0.0776  0.2159
16049TIP3   OH269561   5.688   0.638   5.600 -0.3282  0.2652  0.3578
16049TIP3    H169562   5.616   0.601   5.650 -0.0417  1.0781  1.4203
16049TIP3    H269563   5.703   0.576   5.529 -1.5552 -0.2987  0.5705
16050TIP3   OH269564   3.079   6.642   5.592  0.5011  0.4460 -0.4213
16050TIP3    H169565   3.093   6.722   5.643 -0.0081  0.4980 -0.3563
16050TIP3    H269566   3.108   6.571   5.649 -0.3162  0.4817  0.0526
16051TIP3   OH269567   0.567   5.122   2.403 -1.0711  0.0017 -0.6787
16051TIP3    H169568   0.581   5.210   2.438  0.3103 -0.3000 -0.4202
16051TIP3    H269569   0.480   5.097   2.434 -1.1885  1.0044 -0.1778
16052TIP3   OH269570   0.125   6.362   3.984 -0.3153 -0.1083  0.2221
16052TIP3    H169571   0.147   6.455   3.983 -0.7596  0.0187  1.1348
16052TIP3    H269572   0.136   6.336   4.075 -0.0655 -0.9876 -0.0534
16053TIP3   OH269573   4.746   4.725  12.317  0.3803 -0.9440 -0.4603
16053TIP3    H169574   4.834   4.688  12.310  1.2279  0.7945  0.4539
16053TIP3    H269575   4.688   4.655  12.287  2.0079 -2.3906 -0.3650
16054TIP3   OH269576   1.255   0.233   0.030  0.4775  0.2879 -0.1583
16054TIP3    H169577   1.213   0.163  -0.019  1.5284  0.4738 -1.3476
16054TIP3    H269578   1.342   0.199   0.052 -0.1992 -0.0862  2.2757
16055TIP3   OH269579   4.667   0.547  11.958  0.5235  0.1135 -0.1702
16055TIP3    H169580   4.608   0.476  11.985  0.8166 -0.2975 -0.5830
16055TIP3    H269581   4.611   0.606  11.907  0.0846  0.6379  0.8967
16056TIP3   OH269582   5.610   0.364  11.843 -0.3246  1.0809  0.1976
16056TIP3    H169583   5.585   0.276  11.816  1.0504  0.4198  0.9517
16056TIP3    H269584   5.682   0.387  11.786  0.2533  1.1209  0.9259
16057TIP3   OH269585   5.241   1.514   6.167 -0.1335  0.4304  0.2755
16057TIP3    H169586   5.257   1.608   6.160 -1.0080  0.6531  1.0559
16057TIP3    H269587   5.152   1.503   6.133  0.4673 -0.3331 -1.1352
16058TIP3   OH269588   4.205   6.706  12.728  0.6922  0.1984 -0.3034
16058TIP3    H169589   4.255   6.626  12.712  1.7013  0.9193 -0.8766
16058TIP3    H269590   4.113   6.679  12.723  1.0222 -0.9456 -0.3280
16059TIP3   OH269591   1.221   0.044   0.257 -0.2427 -0.3789  0.4672
16059TIP3    H169592   1.130   0.056   0.286  0.3223 -0.0626  2.2633
16059TIP3    H269593   1.246   0.129   0.220 -1.1689 -0.9658 -1.6513
16060TIP3   OH269594   0.756   4.740  15.702 -0.4395 -0.1197  0.4112
16060TIP3    H169595   0.794   4.701  15.624 -3.1749  0.1415 -1.1780
16060TIP3    H269596   0.782   4.832  15.699  0.0370 -0.2617  0.2061
16061TIP3   OH269597   1.487   6.707   6.235 -0.1586  0.6234  0.2719
16061TIP3    H169598   1.430   6.631   6.225  0.5319  0.2770 -1.4494
16061TIP3    H269599   1.430   6.782   6.220 -0.1852  0.2687 -1.7195
16062TIP3   OH269600   1.458   6.291  15.396 -0.1323 -0.1154  0.2267
16062TIP3    H169601   1.507   6.211  15.418  0.0190 -0.4210 -1.1425
16062TIP3    H269602   1.520   6.362  15.410  0.0410 -0.3162  0.4985
16063TIP3   OH269603   5.662   4.543   3.675 -0.5722  0.6666 -0.3617
16063TIP3    H169604   5.705   4.602   3.613 -1.4387  0.0191 -1.6172
16063TIP3    H269605   5.599   4.599   3.721 -1.7204  0.6788 -1.8679
16064TIP3   OH269606   3.948   0.489  15.534 -0.0565  0.4388 -0.0347
16064TIP3    H169607   3.975   0.559  15.594 -0.3434  0.7240 -0.2327
16064TIP3    H269608   3.854   0.481  15.547 -0.1728  0.7187 -0.6615
16065TIP3   OH269609   4.485   5.129   6.622  0.2769 -0.5332  0.2449
16065TIP3    H169610   4.441   5.108   6.705 -1.1372  1.2245 -0.0068
16065TIP3    H269611   4.471   5.051   6.568 -0.5906 -0.9035  0.9650
16066TIP3   OH269612   6.491   5.276   0.323  0.0119  0.9595 -0.0041
16066TIP3    H169613   6.491   5.209   0.254  0.6806  0.7051  0.2326
16066TIP3    H269614   6.469   5.357   0.277 -0.5470  0.6269 -0.3402
16067TIP3   OH269615   0.161   3.537  12.304 -0.3468  0.4155  0.4245
16067TIP3    H169616   0.162   3.628  12.334 -0.0641  0.2535  0.9177
16067TIP3    H269617   0.085   3.498  12.349 -1.6274  0.8712 -1.2309
16068TIP3   OH269618   0.801   5.772  15.584  0.0764 -0.6230 -0.2727
16068TIP3    H169619   0.737   5.747  15.517  0.1909  1.0559 -1.0680
16068TIP3    H269620   0.749   5.815  15.652  0.2873  0.5536 -0.8212
16069TIP3   OH269621   1.911   5.971   5.648 -0.6092  0.0485 -0.1984
16069TIP3    H169622   1.983   5.925   5.692 -1.1300  0.4315  1.1235
16069TIP3    H269623   1.838   5.964   5.710 -0.6324  2.8722  0.2131
16070TIP3   OH269624   1.638   0.142   6.212 -0.3910 -0.1389  0.2334
16070TIP3    H169625   1.556   0.099   6.233 -0.0954  0.3686  2.7626
16070TIP3    H269626   1.612   0.226   6.175 -1.1243  0.6437  2.3460
16071TIP3   OH269627   1.330   3.936   4.227  0.3285  1.0901  0.0910
16071TIP3    H169628   1.308   3.988   4.150 -0.0091  2.4629  1.0703
16071TIP3    H269629   1.271   3.968   4.295 -0.9795 -1.7014  0.3556
16072TIP3   OH269630   5.021   5.229  13.239  0.1336  0.4282 -0.6983
16072TIP3    H169631   5.082   5.156  13.249 -0.4794  0.1718  2.0233
16072TIP3    H269632   5.075   5.307  13.251  0.5161  0.3948 -2.0365
16073TIP3   OH269633   0.983   1.493   4.391  0.3321 -0.1840 -0.3170
16073TIP3    H169634   0.936   1.410   4.382 -0.7095  0.4911 -1.3780
16073TIP3    H269635   0.915   1.558   4.405  1.2473  0.2856  2.6332
16074TIP3   OH269636   6.764   3.643  12.709  0.0755  0.1066 -0.1341
16074TIP3    H169637   6.718   3.562  12.730 -0.2545  0.6556  1.3988
16074TIP3    H269638   6.698   3.696  12.663 -0.5821  0.5155  1.2118
16075TIP3   OH269639   0.960   5.501  16.305 -0.4491 -0.2196 -0.2753
16075TIP3    H169640   0.866   5.483  16.302 -0.9070  1.8283 -0.0369
16075TIP3    H269641   0.984   5.485  16.396 -0.9718  0.8557  0.0773
16076TIP3   OH269642   2.645   1.693  10.974  0.6839  0.3339  0.1858
16076TIP3    H169643   2.664   1.763  11.036  1.9729 -0.6869  0.9985
16076TIP3    H269644   2.664   1.732  10.888 -1.9480  2.0276  0.2774
16077TIP3   OH269645   1.442   6.692  11.769 -0.9128 -0.1432  0.7358
16077TIP3    H169646   1.495   6.649  11.702  0.2960  3.2998 -0.7021
16077TIP3    H269647   1.352   6.665  11.749 -0.2342 -2.2630  0.2363
16078TIP3   OH269648   2.153   3.416   4.338  0.2225 -0.5102  0.0792
16078TIP3    H169649   2.169   3.475   4.411 -0.9570 -0.1869  0.0858
16078TIP3    H269650   2.235   3.417   4.288  0.0976  1.4569 -0.1548
16079TIP3   OH269651   6.188   3.104  14.609 -0.1570  0.6183 -0.1353
16079TIP3    H169652   6.158   3.109  14.700 -1.9438  1.3739 -0.7197
16079TIP3    H269653   6.153   3.020  14.577  0.9958  0.0599  0.0316
16080TIP3   OH269654   1.237   1.117   2.891 -0.1418  0.0563  0.2526
16080TIP3    H169655   1.199   1.124   2.979  1.4891  0.6042  0.9575
16080TIP3    H269656   1.313   1.061   2.902  1.4262  1.9700 -0.3059
16081TIP3   OH269657   4.044   1.598  14.897  0.2943 -0.4324  0.0176
16081TIP3    H169658   4.007   1.585  14.809  1.0975 -2.1000 -0.1137
16081TIP3    H269659   4.104   1.671  14.887  0.1438 -0.4006 -0.7494
16082TIP3   OH269660   3.796   0.015  11.474 -0.4085  0.2484 -0.6460
16082TIP3    H169661   3.790   0.104  11.507  0.6347 -0.0926  0.5512
16082TIP3    H269662   3.742  -0.037  11.535 -0.5145 -0.0274 -0.9707
16083TIP3   OH269663   5.210   4.393  11.919  0.3133  0.0625  0.3560
16083TIP3    H169664   5.292   4.360  11.957  1.0756  1.7603  0.2693
16083TIP3    H269665   5.175   4.451  11.986 -0.1088  0.4083 -0.1642
16084TIP3   OH269666   5.781   1.082   2.940  0.0750 -0.3092  0.2128
16084TIP3    H169667   5.854   1.031   2.907  0.9777  2.3094 -2.2320
16084TIP3    H269668   5.818   1.168   2.960 -1.9236  0.4027  1.1864
16085TIP3   OH269669   0.787   1.757   5.711  0.1471  0.1014 -0.1599
16085TIP3    H169670   0.831   1.705   5.644 -0.5497 -0.5799 -0.0992
16085TIP3    H269671   0.853   1.770   5.779  0.6440  0.1962 -0.6557
16086TIP3   OH269672   5.575   0.067  11.862  0.0210  0.2544  0.4069
16086TIP3    H169673   5.563   0.067  11.957  0.6021  1.1509  0.4949
16086TIP3    H269674   5.668   0.086  11.850  0.3955 -1.7446 -0.3230
16087TIP3   OH269675   6.050   3.638   4.545 -0.2532 -0.4045  0.3358
16087TIP3    H169676   5.975   3.587   4.578 -0.7898  1.5424  2.3447
16087TIP3    H269677   6.125   3.579   4.555 -1.1560 -1.5428  0.5985
16088TIP3   OH269678   0.285   3.139  12.485  0.4746  0.8252 -0.0063
16088TIP3    H169679   0.351   3.125  12.553  0.8632  0.5811 -0.4336
16088TIP3    H269680   0.255   3.229  12.500  0.5025  0.7526  0.5310
16089TIP3   OH269681   2.300   1.165   3.352  0.1833  0.5408  0.0972
16089TIP3    H169682   2.295   1.173   3.257 -1.3357  1.3539  0.2155
16089TIP3    H269683   2.370   1.101   3.367  0.8761  0.8642 -1.5343
16090TIP3   OH269684   3.744   5.575   6.103 -0.6218  0.0900  0.1161
16090TIP3    H169685   3.774   5.520   6.175 -1.1542 -1.3945 -0.7482
16090TIP3    H269686   3.655   5.601   6.128 -0.6330 -0.0332  0.2046
16091TIP3   OH269687   3.131   0.021   5.099 -0.0260 -0.2486  0.3605
16091TIP3    H169688   3.128   0.054   5.189 -0.4383 -0.4116  0.4056
16091TIP3    H269689   3.181  -0.060   5.105  0.1268 -0.1510  0.4094
16092TIP3   OH269690   5.884   4.171   5.422  0.1178 -0.0565  0.6014
16092TIP3    H169691   5.798   4.191   5.383 -0.7555 -1.5955  1.6201
16092TIP3    H269692   5.909   4.253   5.465 -0.5778  0.5862 -0.1609
16093TIP3   OH269693   6.639   2.950  12.686 -0.4058  0.2676  0.2494
16093TIP3    H169694   6.614   2.871  12.734  0.4991 -0.5582 -0.5844
16093TIP3    H269695   6.632   3.020  12.751  1.6790 -0.9246  1.9421
16094TIP3   OH269696   1.859   5.584   4.434 -0.1890 -0.1522 -0.4679
16094TIP3    H169697   1.812   5.526   4.374 -0.4416  0.4967 -0.9095
16094TIP3    H269698   1.842   5.547   4.521 -2.0164  0.3845 -0.5576
16095TIP3   OH269699   5.029   4.843   2.352 -0.6314 -0.0670  0.2794
16095TIP3    H169700   5.058   4.767   2.403 -0.0263 -0.3679 -0.4866
16095TIP3    H269701   5.050   4.820   2.261 -1.8652  0.3756 -0.1325
16096TIP3   OH269702   4.462   4.702   5.745  0.7013  0.2988 -0.4163
16096TIP3    H169703   4.553   4.676   5.756  0.6229 -0.2278 -0.9790
16096TIP3    H269704   4.428   4.644   5.677  0.0191  0.6652 -0.3993
16097TIP3   OH269705   1.961   6.559  16.353 -0.3877  0.5337  0.5592
16097TIP3    H169706   1.927   6.648  16.343 -0.2094  0.3726 -2.5395
16097TIP3    H269707   1.883   6.506  16.369 -0.8608  0.9509 -0.2625
16098TIP3   OH269708   4.468   5.059   0.813  0.2535 -0.4939  0.0969
16098TIP3    H169709   4.397   5.061   0.749  1.0905 -0.1064 -0.8419
16098TIP3    H269710   4.424   5.047   0.898 -0.8918 -0.6413 -0.5053
16099TIP3   OH269711   2.697   4.502   2.746  0.5311  0.1721  0.2038
16099TIP3    H169712   2.697   4.543   2.832  0.6049  0.7176 -0.0530
16099TIP3    H269713   2.688   4.575   2.684  2.8606  0.0457 -0.3716
16100TIP3   OH269714   6.774   4.476   5.369 -0.7249  0.3671 -0.2918
16100TIP3    H169715   6.742   4.422   5.297  0.7842 -0.2815 -0.5122
16100TIP3    H269716   6.809   4.554   5.326  0.1728 -0.0183 -0.2843
16101TIP3   OH269717   5.237   2.958   5.031 -0.3670  0.1326 -0.0025
16101TIP3    H169718   5.264   2.869   5.007  0.7086  0.2291  0.7897
16101TIP3    H269719   5.305   3.014   4.994 -0.2498  0.5047  0.7645
16102TIP3   OH269720   3.143   1.851   4.551  0.3983  0.3098 -0.2617
16102TIP3    H169721   3.113   1.875   4.463 -3.1958 -0.1668  0.7089
16102TIP3    H269722   3.069   1.807   4.591  1.9761  0.3377  3.0089
16103TIP3   OH269723   6.184   4.143  16.966 -0.0466 -0.3177  0.1139
16103TIP3    H169724   6.181   4.076  16.898  1.4989 -2.2435  1.8395
16103TIP3    H269725   6.276   4.169  16.970 -0.4030  1.0040  0.3596
16104TIP3   OH269726   3.267   1.038  16.094 -0.3714 -0.5558 -0.5771
16104TIP3    H169727   3.194   1.100  16.098 -1.4152 -1.7867  0.4271
16104TIP3    H269728   3.229   0.958  16.058  0.8406 -0.7778 -1.4155
16105TIP3   OH269729   5.301   5.027   4.139  0.6274 -0.2815  0.3148
16105TIP3    H169730   5.358   5.015   4.214  0.2249  1.2030  0.8948
16105TIP3    H269731   5.335   4.968   4.072  1.8620 -0.5665  1.1851
16106TIP3   OH269732   4.189   4.917  16.265 -0.0301  0.8248  0.1996
16106TIP3    H169733   4.281   4.943  16.266  0.0575  0.5519 -0.5313
16106TIP3    H269734   4.189   4.825  16.239 -0.5503  0.9998 -0.4352
16107TIP3   OH269735   4.541   0.527   1.267  1.0546 -0.2092  0.1859
16107TIP3    H169736   4.528   0.453   1.327  1.7448  0.0886  0.7072
16107TIP3    H269737   4.466   0.584   1.283 -0.3127 -1.4929 -1.2919
16108TIP3   OH269738   3.855   5.734   6.351  0.1951 -0.0606  0.4554
16108TIP3    H169739   3.779   5.786   6.325  1.3440  1.5294  0.0546
16108TIP3    H269740   3.849   5.654   6.299 -0.6973  0.4624 -0.2695
16109TIP3   OH269741   3.352   1.180  11.011 -0.2472 -0.4692 -0.1047
16109TIP3    H169742   3.260   1.203  11.000  0.3147  1.2419 -1.8932
16109TIP3    H269743   3.368   1.112  10.945 -0.4227 -1.4066  0.8097
16110TIP3   OH269744   1.824   5.092  12.387 -0.2789 -0.2471 -0.0725
16110TIP3    H169745   1.840   5.027  12.319  3.3631  1.2367 -0.8766
16110TIP3    H269746   1.765   5.156  12.346  0.9879  0.0505 -1.5307
16111TIP3   OH269747   3.017   5.620   1.730  0.6186 -0.0251 -0.0667
16111TIP3    H169748   3.044   5.683   1.662 -1.7802 -0.3973 -1.4696
16111TIP3    H269749   2.929   5.593   1.704 -0.9128  0.6552  3.8626
16112TIP3   OH269750   0.469   2.791  15.558  0.2598  0.1749 -0.5581
16112TIP3    H169751   0.495   2.771  15.648 -1.7372 -3.3252 -0.5860
16112TIP3    H269752   0.411   2.868  15.566  0.1935 -0.0198  1.1353
16113TIP3   OH269753   5.051   5.805   5.558  0.1628 -0.4780  0.2085
16113TIP3    H169754   5.113   5.739   5.525 -1.7229 -1.8056 -0.8536
16113TIP3    H269755   5.023   5.771   5.643 -0.0029 -0.4940  0.1475
16114TIP3   OH269756   3.694   2.708  16.276 -0.9465 -0.2857 -0.1917
16114TIP3    H169757   3.609   2.740  16.305 -2.0180 -1.9281 -1.3856
16114TIP3    H269758   3.696   2.616  16.300 -0.1847 -0.6703 -1.5820
16115TIP3   OH269759   2.196   0.987   5.331 -0.4350  0.0352 -0.0590
16115TIP3    H169760   2.269   1.047   5.312 -0.3879  1.0374  2.6876
16115TIP3    H269761   2.220   0.905   5.289  2.0815  0.4951  0.3073
16116TIP3   OH269762   0.395   2.104  15.947 -0.2219 -0.2062  0.0994
16116TIP3    H169763   0.314   2.066  15.911  0.8112 -1.7944 -0.6430
16116TIP3    H269764   0.425   2.165  15.879 -0.9446  0.6366  0.5186
16117TIP3   OH269765   3.483   0.212   2.887  0.1629  0.4946 -0.3899
16117TIP3    H169766   3.419   0.272   2.926  1.0698  1.1855  0.0948
16117TIP3    H269767   3.431   0.147   2.841 -0.8796  1.0956 -0.0879
16118TIP3   OH269768   4.656   2.006  11.348 -0.3024 -0.3353  0.0436
16118TIP3    H169769   4.726   1.945  11.325 -0.7457 -0.0747 -2.2595
16118TIP3    H269770   4.581   1.949  11.369 -0.8341 -0.7176 -2.4809
16119TIP3   OH269771   0.080   1.467  15.485 -0.6353  0.7307 -0.7497
16119TIP3    H169772   0.041   1.516  15.412  0.5898  1.0883 -1.1846
16119TIP3    H269773   0.008   1.413  15.518 -0.9226 -0.4139 -3.0203
16120TIP3   OH269774   2.196   2.338  16.818 -0.2345 -0.3877 -0.0655
16120TIP3    H169775   2.225   2.304  16.733 -2.8099 -0.9595 -0.8312
16120TIP3    H269776   2.215   2.432  16.814  0.8337 -0.6175 -0.7510
16121TIP3   OH269777   0.496   0.172   4.645 -0.2262 -0.4550  0.2524
16121TIP3    H169778   0.435   0.129   4.585  0.4406 -0.5693 -0.3533
16121TIP3    H269779   0.579   0.128   4.630  0.3312  0.6152  0.0705
16122TIP3   OH269780   6.362   4.541  15.016 -0.3395  0.2240 -0.1556
16122TIP3    H169781   6.435   4.595  15.045 -1.3319  1.3278  0.3493
16122TIP3    H269782   6.300   4.603  14.977 -0.7684 -0.7584 -1.1067
16123TIP3   OH269783   2.926   0.939  15.019  0.6283 -0.5574  0.2707
16123TIP3    H169784   2.905   1.013  14.962  0.7873 -1.6810 -1.3019
16123TIP3    H269785   2.848   0.883  15.015  0.3942 -0.3753  1.6757
16124TIP3   OH269786   0.697   0.153  12.736  0.2438 -0.5039 -0.1809
16124TIP3    H169787   0.642   0.203  12.675 -0.5646  1.7216  2.1923
16124TIP3    H269788   0.786   0.184  12.719 -0.0205  0.3616 -0.0259
16125TIP3   OH269789   0.457   5.980  12.992 -0.3612 -0.2739  0.0023
16125TIP3    H169790   0.477   5.997  12.899 -0.9942 -1.2495 -0.3265
16125TIP3    H269791   0.488   6.059  13.037 -0.3767  0.3848 -1.0777
16126TIP3   OH269792   0.555   6.512  11.372 -0.1991 -0.0078  0.4036
16126TIP3    H169793   0.566   6.476  11.460 -0.2409 -1.8350 -0.2992
16126TIP3    H269794   0.643   6.509  11.334 -0.3458 -0.0953  0.0651
16127TIP3   OH269795   5.387   6.719  16.564 -0.1028  0.6805  0.4129
16127TIP3    H169796   5.378   6.657  16.636 -1.2384 -0.4683 -0.6603
16127TIP3    H269797   5.393   6.805  16.607 -1.7339  0.1355  1.8714
16128TIP3   OH269798   6.011   4.353  15.857 -0.6279  0.2207  0.4888
16128TIP3    H169799   6.010   4.388  15.768  0.5411 -1.1342 -0.1084
16128TIP3    H269800   6.096   4.310  15.865 -0.8950 -0.0876  2.1105
16129TIP3   OH269801   3.698   4.662   3.045 -0.3310  0.0286 -0.3418
16129TIP3    H169802   3.771   4.600   3.036  1.4309  1.9957 -0.4808
16129TIP3    H269803   3.653   4.634   3.124  1.9349 -0.0217  1.0344
16130TIP3   OH269804   0.456   1.288  17.037 -0.2902  0.1032  0.3863
16130TIP3    H169805   0.516   1.287  16.963  0.0498 -1.1381  0.6483
16130TIP3    H269806   0.445   1.381  17.058 -1.8378  0.6235 -2.3268
16131TIP3   OH269807   0.811   6.532  11.270  0.3668  0.1059  0.0326
16131TIP3    H169808   0.766   6.564  11.192  1.1577 -0.5061 -0.6933
16131TIP3    H269809   0.893   6.582  11.272  0.5904 -0.2653  0.1752
16132TIP3   OH269810   4.882   3.973   1.471 -0.2796 -0.3136 -0.2731
16132TIP3    H169811   4.884   3.910   1.542 -0.4331 -0.4310 -0.3734
16132TIP3    H269812   4.892   4.058   1.514 -0.7503 -0.3571 -0.0794
16133TIP3   OH269813   1.264   3.151   0.858  0.1597 -0.0534 -0.2457
16133TIP3    H169814   1.272   3.196   0.942 -1.0425  0.0628 -0.1751
16133TIP3    H269815   1.316   3.071   0.868  0.4785  0.2359  0.4108
16134TIP3   OH269816   6.062   1.890   3.680  0.8452 -0.2013 -0.1375
16134TIP3    H169817   6.130   1.952   3.705 -1.5799  2.2712  0.7648
16134TIP3    H269818   6.063   1.891   3.584  1.1018  0.9336 -0.1351
16135TIP3   OH269819   4.600   3.206   2.341  0.5521 -0.2857  0.6517
16135TIP3    H169820   4.515   3.163   2.343  0.5386 -0.3121 -0.2711
16135TIP3    H269821   4.580   3.299   2.352  0.3294 -0.2049 -0.3532
16136TIP3   OH269822   2.587   2.495  10.523  0.5068 -0.0980 -0.0687
16136TIP3    H169823   2.503   2.451  10.539  0.9677 -0.6538  0.9487
16136TIP3    H269824   2.653   2.433  10.557  1.3057  0.4552 -0.5851
16137TIP3   OH269825   1.339   4.417   2.424 -0.1083 -0.2551 -0.3888
16137TIP3    H169826   1.294   4.487   2.376 -0.7876 -0.2932  0.1645
16137TIP3    H269827   1.304   4.425   2.513 -0.4230 -1.5015 -0.3894
16138TIP3   OH269828   4.308   6.391  12.185  0.5379  0.0972  0.5703
16138TIP3    H169829   4.266   6.322  12.133 -1.7940  1.3627  0.6438
16138TIP3    H269830   4.343   6.452  12.120  0.9949 -0.2269  0.5068
16139TIP3   OH269831   3.524   2.981   5.811  0.9193  0.9656  0.0057
16139TIP3    H169832   3.480   3.060   5.840 -0.1522  0.2859  0.3048
16139TIP3    H269833   3.596   2.969   5.872 -1.1564 -0.3091  2.3922
16140TIP3   OH269834   1.514   5.696  11.726  0.5938  0.0450 -0.3106
16140TIP3    H169835   1.601   5.727  11.700  1.2679 -0.0733  1.6287
16140TIP3    H269836   1.466   5.776  11.748 -0.1907  0.1995 -2.3429
16141TIP3   OH269837   1.762   4.861  14.095 -0.3172 -0.1000  0.4646
16141TIP3    H169838   1.710   4.862  14.015  0.8985  0.2557 -0.3535
16141TIP3    H269839   1.723   4.792  14.148  0.5582 -2.3649 -1.6237
16142TIP3   OH269840   4.898   3.325   4.953 -0.6601  0.4418 -0.1059
16142TIP3    H169841   4.954   3.247   4.956  0.6223  1.2732 -1.0461
16142TIP3    H269842   4.857   3.329   5.039  2.2357  0.8060  1.3887
16143TIP3   OH269843   4.699   4.008   3.598  0.4006 -0.3287  0.0300
16143TIP3    H169844   4.678   3.919   3.569 -1.1426 -0.7283  2.1506
16143TIP3    H269845   4.787   4.025   3.563  0.6660 -2.6052 -0.5414
16144TIP3   OH269846   0.806   5.885  14.711 -0.1894  0.2887  0.1102
16144TIP3    H169847   0.856   5.938  14.773  0.4689  0.7554 -0.7912
16144TIP3    H269848   0.822   5.926  14.626  0.4057 -1.3893 -0.6335
16145TIP3   OH269849   0.581   4.588  14.044  0.9039  0.5420  0.1998
16145TIP3    H169850   0.490   4.561  14.055  0.8842  0.2235 -0.6599
16145TIP3    H269851   0.581   4.682  14.060  0.4077  0.5590  0.1062
16146TIP3   OH269852   1.918   3.277   4.360 -0.0382 -0.6722  0.2055
16146TIP3    H169853   2.010   3.288   4.337 -0.1581 -0.9844 -0.4329
16146TIP3    H269854   1.905   3.334   4.436  0.2612  0.7015 -0.7365
16147TIP3   OH269855   2.789   3.537   1.406 -0.3890  0.4646  0.5630
16147TIP3    H169856   2.805   3.462   1.464  0.9318 -0.6126 -1.1058
16147TIP3    H269857   2.714   3.509   1.353 -0.2636  0.5734  0.3310
16148TIP3   OH269858   1.929   5.706  10.905  0.7227  0.2373 -0.5662
16148TIP3    H169859   1.938   5.780  10.845  0.1645  0.6748 -0.1241
16148TIP3    H269860   1.834   5.691  10.911  0.8187 -0.3527 -0.4633
16149TIP3   OH269861   0.917   5.311  12.402  0.2692  0.1313  0.0849
16149TIP3    H169862   0.837   5.354  12.372 -1.1001 -1.1133  1.7535
16149TIP3    H269863   0.960   5.377  12.457  0.3556  0.7630 -0.7135
16150TIP3   OH269864   3.726   2.567   3.110  0.4439  0.1824 -0.2452
16150TIP3    H169865   3.787   2.543   3.180  0.6205 -0.4169 -0.5956
16150TIP3    H269866   3.643   2.582   3.155  0.6211  0.0859  0.1229
16151TIP3   OH269867   0.549   4.369   2.079 -0.5256 -0.0581  0.8019
16151TIP3    H169868   0.563   4.463   2.071 -1.2674  0.1191  1.5407
16151TIP3    H269869   0.507   4.344   1.997  2.0369 -0.2439 -0.5784
16152TIP3   OH269870   2.142   0.732  12.000 -0.2577  0.5730 -0.2972
16152TIP3    H169871   2.187   0.817  12.000 -1.1283  1.1183  2.4102
16152TIP3    H269872   2.078   0.739  12.071 -1.9313 -1.5695 -1.4916
16153TIP3   OH269873   5.478   2.774   5.561  0.4280 -0.0695 -0.9194
16153TIP3    H169874   5.544   2.707   5.575 -0.5682 -1.4273 -2.2777
16153TIP3    H269875   5.512   2.827   5.489  0.7844  0.2911 -0.4882
16154TIP3   OH269876   3.584   4.266  12.979  0.1943 -0.1616  0.0418
16154TIP3    H169877   3.541   4.190  12.939  1.8685 -0.4803 -1.2847
16154TIP3    H269878   3.590   4.330  12.908  0.3073  0.5669  0.6919
16155TIP3   OH269879   5.770   5.995  16.071  0.0024  0.1966  0.2584
16155TIP3    H169880   5.865   6.005  16.069  0.1533 -1.1519 -0.9431
16155TIP3    H269881   5.739   6.041  15.993 -0.6344  2.7503  1.8904
16156TIP3   OH269882   1.773   5.253  13.828  0.3696  0.0092  0.0594
16156TIP3    H169883   1.827   5.177  13.850 -0.1706 -0.5120 -0.3959
16156TIP3    H269884   1.818   5.294  13.754 -1.3185 -2.0735 -2.2670
16157TIP3   OH269885   5.420   0.569  16.938  0.2095  0.3896  0.3126
16157TIP3    H169886   5.477   0.561  16.861  0.3737  0.9289  0.3698
16157TIP3    H269887   5.364   0.645  16.919  0.4141  0.6757  0.8279
16158TIP3   OH269888   5.576   5.100  13.887  0.2295 -0.0769  0.2709
16158TIP3    H169889   5.598   5.061  13.802  0.2196 -0.9470  0.6533
16158TIP3    H269890   5.633   5.055  13.949  1.1603  1.4511  0.5847
16159TIP3   OH269891   4.477   3.220   4.926  0.5655 -0.3670  0.1992
16159TIP3    H169892   4.405   3.184   4.874  0.5524 -0.0493 -0.0057
16159TIP3    H269893   4.555   3.180   4.890  0.3126 -3.1022  2.3718
16160TIP3   OH269894   5.811   0.503   0.159 -0.4031 -0.3554 -0.1080
16160TIP3    H169895   5.869   0.460   0.222 -0.8800  0.5568  0.9862
16160TIP3    H269896   5.849   0.590   0.147 -0.0621 -0.6668 -1.4586
16161TIP3   OH269897   5.453   1.524  16.306  0.4422 -0.5506  0.1617
16161TIP3    H169898   5.534   1.474  16.308  0.9145  0.1632 -0.6416
16161TIP3    H269899   5.471   1.598  16.248 -1.0121 -0.7688 -0.6272
16162TIP3   OH269900   1.512   1.904  15.063 -0.5686  0.0058 -0.1150
16162TIP3    H169901   1.567   1.983  15.066  0.5649 -0.7743  2.0677
16162TIP3    H269902   1.460   1.914  14.984 -0.0805  2.6845 -0.1948
16163TIP3   OH269903   2.515   5.094  13.435 -0.5792 -0.1304  0.1356
16163TIP3    H169904   2.480   5.007  13.450 -0.4588 -0.4429 -1.2534
16163TIP3    H269905   2.554   5.090  13.347 -1.9710  1.7426 -0.6498
16164TIP3   OH269906   4.045   5.008   1.312 -0.0081 -0.2188 -0.1812
16164TIP3    H169907   4.019   5.073   1.377 -3.4675 -2.0985  0.5412
16164TIP3    H269908   4.053   5.057   1.230  0.1036  1.4803  0.7971
16165TIP3   OH269909   5.461   6.532   3.365  0.3508 -0.2587  0.6652
16165TIP3    H169910   5.552   6.513   3.342 -0.1872 -1.1035 -0.9328
16165TIP3    H269911   5.452   6.626   3.350  0.3971 -0.5395 -1.4583
16166TIP3   OH269912   3.243   3.377   2.053  0.1406 -0.2376 -0.0900
16166TIP3    H169913   3.296   3.328   2.115  0.0912  0.5974  0.6393
16166TIP3    H269914   3.194   3.311   2.005  2.0158 -1.0577 -0.9690
16167TIP3   OH269915   0.813   1.793  12.206  0.3981  0.2248 -0.2633
16167TIP3    H169916   0.741   1.750  12.253  0.0108  1.6391  0.5093
16167TIP3    H269917   0.790   1.783  12.114  0.7461 -1.8924 -0.1649
16168TIP3   OH269918   5.793   5.822   2.692  0.1045  0.3128  0.4283
16168TIP3    H169919   5.731   5.779   2.750  0.7325  0.1757  1.0163
16168TIP3    H269920   5.787   5.774   2.610  1.2233 -1.3104  1.2529
16169TIP3   OH269921   1.327   2.662  11.714 -0.1049  0.1987 -0.0579
16169TIP3    H169922   1.232   2.672  11.709 -0.1320 -0.2410 -0.5024
16169TIP3    H269923   1.357   2.744  11.754 -0.7433 -0.0528  0.9875
16170TIP3   OH269924   5.545   6.739  11.626 -0.1347  0.0793 -0.0417
16170TIP3    H169925   5.510   6.755  11.714  0.4458  1.2147  0.0035
16170TIP3    H269926   5.639   6.730  11.639 -0.3565 -3.4984 -0.0919
16171TIP3   OH269927   5.511   5.798   1.653 -0.3845  0.0049  0.0851
16171TIP3    H169928   5.492   5.770   1.563 -2.0427 -0.3305  0.5051
16171TIP3    H269929   5.564   5.877   1.643 -0.6528  0.0468 -1.1962
16172TIP3   OH269930   5.918   4.981  15.200  0.0132  0.0084  0.0464
16172TIP3    H169931   5.872   5.036  15.263 -1.4116 -1.8823  0.7524
16172TIP3    H269932   6.000   4.959  15.244 -0.2721 -0.0041  0.5904
16173TIP3   OH269933   0.188   3.080   6.392 -0.0406 -0.1095 -0.4852
16173TIP3    H169934   0.122   3.131   6.345  0.1033  0.8484  0.2913
16173TIP3    H269935   0.145   3.056   6.474 -0.4950 -2.2635 -1.2908
16174TIP3   OH269936   4.586   4.263  15.736 -0.3242  0.3636  0.1076
16174TIP3    H169937   4.633   4.241  15.817 -0.3643 -2.3148 -0.5110
16174TIP3    H269938   4.654   4.278  15.671 -0.3199  0.8938  0.2238
16175TIP3   OH269939   5.477   4.107  12.614  0.0459 -0.0496  0.5415
16175TIP3    H169940   5.552   4.112  12.673 -0.1317 -0.6371  0.8193
16175TIP3    H269941   5.401   4.124  12.670 -0.1532 -0.9645  0.5569
16176TIP3   OH269942   6.180   0.971   0.981  0.2875 -0.0167  0.8535
16176TIP3    H169943   6.241   0.905   0.948  1.1869  0.8032  0.8290
16176TIP3    H269944   6.133   0.927   1.052 -1.3058 -1.6591 -1.0860
16177TIP3   OH269945   0.414   0.719   2.764 -0.9316  0.1574 -0.3195
16177TIP3    H169946   0.345   0.743   2.825 -0.8272  0.2460 -0.2343
16177TIP3    H269947   0.417   0.624   2.765 -0.4879  0.1725  0.3125
16178TIP3   OH269948   6.783   2.079   2.957 -0.6939  0.5711 -0.7717
16178TIP3    H169949   6.759   2.008   3.016 -1.3303  1.2618 -0.1904
16178TIP3    H269950   6.735   2.155   2.989 -1.7299  0.7873 -2.6709
16179TIP3   OH269951   2.268   3.396   6.109  0.1796  0.1543 -0.3083
16179TIP3    H169952   2.337   3.446   6.151  0.9658  0.3699 -1.7931
16179TIP3    H269953   2.200   3.461   6.088  0.4961  0.3327 -0.7976
16180TIP3   OH269954   1.691   6.102  16.486  0.3664 -0.4214  0.2497
16180TIP3    H169955   1.635   6.052  16.545 -0.0030  0.2150  0.4482
16180TIP3    H269956   1.750   6.037  16.448 -0.1909 -1.0280  0.3992
16181TIP3   OH269957   6.094   0.889   3.280  0.3404 -0.8959  0.2835
16181TIP3    H169958   6.045   0.816   3.240  0.2906 -1.9459  2.1278
16181TIP3    H269959   6.181   0.853   3.296 -0.3748 -1.5155  3.5169
16182TIP3   OH269960   2.509   6.750   0.496  0.0481 -0.3784  0.3614
16182TIP3    H169961   2.505   6.837   0.536 -0.0257 -0.1439 -0.1408
16182TIP3    H269962   2.417   6.728   0.477 -0.0802 -1.1874  1.7652
16183TIP3   OH269963   0.630   0.016  11.317 -0.5753  0.1078 -0.4614
16183TIP3    H169964   0.553   0.072  11.310 -0.5331  0.1853 -0.3140
16183TIP3    H269965   0.678   0.031  11.236 -0.3674  0.5798 -0.2566
16184TIP3   OH269966   3.571   5.434   3.648  0.5624  0.1216  0.0507
16184TIP3    H169967   3.533   5.482   3.721 -1.6669 -0.7239 -0.4826
16184TIP3    H269968   3.581   5.499   3.579 -2.3723 -0.0296 -0.6504
16185TIP3   OH269969   0.105   4.897  14.486 -0.5384  0.8670  0.0523
16185TIP3    H169970   0.093   4.851  14.569 -0.5097  1.5104  0.4187
16185TIP3    H269971   0.051   4.975  14.493 -2.1305 -0.0525 -1.3381
16186TIP3   OH269972   1.217   2.047  12.984 -0.0216 -0.5432 -0.7996
16186TIP3    H169973   1.225   1.964  12.936  0.8380 -0.0114 -1.6167
16186TIP3    H269974   1.306   2.065  13.015 -0.4587 -0.5899  0.5342
16187TIP3   OH269975   1.296   1.127   0.459  0.1286  0.2663 -0.2671
16187TIP3    H169976   1.367   1.067   0.482 -0.5458 -0.7223 -0.7071
16187TIP3    H269977   1.340   1.212   0.448  0.9882  0.0286  1.0787
16188TIP3   OH269978   4.326   3.177  14.690  0.0039  0.1365 -0.5382
16188TIP3    H169979   4.335   3.198  14.783  1.1168  0.0654 -0.6152
16188TIP3    H269980   4.416   3.180  14.656 -0.3094 -0.5374 -1.4611
16189TIP3   OH269981   5.182   1.545  15.216 -0.0598  0.2790  0.2192
16189TIP3    H169982   5.248   1.477  15.200 -0.5853  0.2266 -2.0141
16189TIP3    H269983   5.126   1.508  15.285  0.5304 -0.9279  0.0739
16190TIP3   OH269984   0.234   5.005  15.334 -0.1419  0.8362 -0.3056
16190TIP3    H169985   0.264   4.915  15.336 -0.2498  0.7862 -0.8473
16190TIP3    H269986   0.294   5.049  15.274 -0.8178  0.8499 -0.9926
16191TIP3   OH269987   3.691   6.136  11.433 -0.6984  0.8762  0.1741
16191TIP3    H169988   3.754   6.063  11.430 -1.1187  0.5345 -1.3151
16191TIP3    H269989   3.651   6.130  11.519  1.2493  1.0575  1.1344
16192TIP3   OH269990   6.706   5.734   1.368 -0.5302 -0.6287 -0.5874
16192TIP3    H169991   6.787   5.776   1.339 -1.0286  0.6559 -0.1875
16192TIP3    H269992   6.712   5.734   1.463 -1.6514  0.8783 -0.4806
16193TIP3   OH269993   5.501   3.927   5.902  0.6247 -0.2627  0.4409
16193TIP3    H169994   5.576   3.974   5.937  0.6330 -0.0108  0.0850
16193TIP3    H269995   5.488   3.963   5.815 -1.4935  1.5655  1.4167
16194TIP3   OH269996   3.957   1.915  14.327  0.4706 -0.5717  0.6728
16194TIP3    H169997   4.004   1.970  14.264 -0.0860  0.2504  0.9521
16194TIP3    H269998   4.024   1.856  14.362  0.7204 -1.2853 -0.9302
16195TIP3   OH269999   5.216   0.741   5.245 -0.1615  0.6138 -0.0710
16195TIP3    H170000   5.178   0.664   5.286 -0.9337  0.8540 -0.3284
16195TIP3    H270001   5.301   0.711   5.213  0.5163  0.4472  1.7652
16196TIP3   OH270002   2.383   1.779  14.324  0.7708 -0.1878 -0.6048
16196TIP3    H170003   2.295   1.809  14.347  1.3166  0.2297  1.0220
16196TIP3    H270004   2.375   1.683  14.323  0.5902 -0.2107  0.8728
16197TIP3   OH270005   2.849   1.576  12.046 -0.5970  0.0056 -0.1757
16197TIP3    H170006   2.894   1.527  11.978 -1.5413  0.2041 -0.9663
16197TIP3    H270007   2.856   1.521  12.125  0.6816 -0.1270 -0.3664
16198TIP3   OH270008   6.207   4.991   5.617 -0.7199 -0.7481 -0.6605
16198TIP3    H170009   6.172   5.019   5.533 -1.9861 -0.2058  0.0229
16198TIP3    H270010   6.136   4.942   5.658 -0.2032 -0.8114  0.1908
16199TIP3   OH270011   2.749   6.542   2.614  0.0149 -0.1801  0.1262
16199TIP3    H170012   2.654   6.546   2.624  0.0950  0.6059  0.6581
16199TIP3    H270013   2.782   6.525   2.702  0.3649 -0.5714 -0.0762
16200TIP3   OH270014   4.794   6.280   5.319  0.2377  0.3208  0.0891
16200TIP3    H170015   4.770   6.201   5.369  2.7824  0.2916  1.4228
16200TIP3    H270016   4.786   6.254   5.228  3.0660 -2.2728  0.4447
16201TIP3   OH270017   0.159   2.926   4.329  0.4465 -0.5167 -0.1144
16201TIP3    H170018   0.177   2.983   4.254 -0.1828 -0.9821 -0.6392
16201TIP3    H270019   0.149   2.986   4.403  1.1388 -0.0547 -0.3850
16202TIP3   OH270020   2.576   0.272  13.954 -0.1447 -0.5202  0.2202
16202TIP3    H170021   2.487   0.286  13.986  0.3190  0.8551  1.0074
16202TIP3    H270022   2.624   0.240  14.031 -0.3717 -3.3912 -0.6890
16203TIP3   OH270023   0.746   4.495   2.438  0.5102 -0.2590 -0.2132
16203TIP3    H170024   0.753   4.560   2.368 -0.9836  2.1886  1.7710
16203TIP3    H270025   0.664   4.449   2.420  0.1170  0.3813 -0.0892
16204TIP3   OH270026   4.091   0.386   2.473 -0.7053 -0.3238 -0.3431
16204TIP3    H170027   4.166   0.328   2.489 -0.8234 -0.5441 -0.5818
16204TIP3    H270028   4.048   0.393   2.559 -0.7476 -0.6708 -0.3321
16205TIP3   OH270029   6.343   6.558  14.380 -0.1376  0.5175 -0.0491
16205TIP3    H170030   6.414   6.615  14.409 -1.5323  1.8996  0.8290
16205TIP3    H270031   6.366   6.533  14.291  1.0175  1.6218 -0.0781
16206TIP3   OH270032   3.074   2.063   2.466  0.5351  0.0705  0.0562
16206TIP3    H170033   3.126   2.139   2.439  0.9937 -0.4502 -0.5716
16206TIP3    H270034   2.988   2.077   2.426  0.9088 -0.2027 -0.8842
16207TIP3   OH270035   6.362   1.158  16.634 -0.6447 -0.0757 -0.1936
16207TIP3    H170036   6.410   1.228  16.589  0.4236  0.0252  1.0651
16207TIP3    H270037   6.397   1.077  16.597 -0.9493  0.0192 -0.7064
16208TIP3   OH270038   1.865   0.517  16.943  0.5616  0.0958 -0.0931
16208TIP3    H170039   1.885   0.591  17.000  2.5132 -0.3174 -0.1639
16208TIP3    H270040   1.820   0.455  17.000  0.7144  0.5106  0.4898
16209TIP3   OH270041   5.115   2.776   1.674  0.5710  0.2948  0.4220
16209TIP3    H170042   5.167   2.713   1.625  0.4941 -0.2409  1.0288
16209TIP3    H270043   5.134   2.758   1.766 -0.6550  0.0992  0.6564
16210TIP3   OH270044   2.602   4.740   3.848 -0.5675 -0.5811  0.4026
16210TIP3    H170045   2.674   4.714   3.791 -2.1517  0.5532 -2.3183
16210TIP3    H270046   2.524   4.708   3.803 -1.8847 -0.5248  2.5108
16211TIP3   OH270047   4.816   3.536  15.660  0.4798 -0.2464 -0.1490
16211TIP3    H170048   4.739   3.480  15.674  0.2624  0.3239  1.0427
16211TIP3    H270049   4.795   3.617  15.706  0.6467  0.9810 -2.1462
16212TIP3   OH270050   6.099   4.657  15.394  0.3863  0.5831 -0.1023
16212TIP3    H170051   6.040   4.654  15.320  1.3256 -0.1054 -0.8492
16212TIP3    H270052   6.137   4.745  15.391 -0.7752  1.1325  0.5548
16213TIP3   OH270053   4.281   4.588  14.662 -0.4815 -0.2292  0.4847
16213TIP3    H170054   4.206   4.645  14.680 -0.5885  0.1462 -1.0080
16213TIP3    H270055   4.336   4.596  14.741 -0.4570  2.0305  0.3207
16214TIP3   OH270056   2.999   4.029  13.261  0.2402 -0.6161 -0.1108
16214TIP3    H170057   3.064   4.063  13.324 -0.9670  1.2493  0.2062
16214TIP3    H270058   2.995   3.936  13.280 -1.9167  0.1039  4.5280
16215TIP3   OH270059   4.637   4.831   3.941 -0.0326 -0.0829  0.2344
16215TIP3    H170060   4.662   4.903   3.999 -0.1467  0.0582  0.1073
16215TIP3    H270061   4.621   4.872   3.856  0.8632 -0.3912 -0.0910
16216TIP3   OH270062   4.494   3.756  14.149 -0.3710 -0.5373 -0.1345
16216TIP3    H170063   4.458   3.789  14.066 -0.8554 -0.7947 -0.0339
16216TIP3    H270064   4.577   3.715  14.125  0.5130  1.1849 -0.1938
16217TIP3   OH270065   3.601   0.080   0.446 -0.1050 -0.3971  0.2131
16217TIP3    H170066   3.510   0.066   0.471 -0.0747 -0.9112  0.0519
16217TIP3    H270067   3.647   0.003   0.478  0.1875 -0.3693 -0.1313
16218TIP3   OH270068   0.623   4.868  16.740  0.2139  0.2204  0.5766
16218TIP3    H170069   0.537   4.843  16.775  0.2521  0.2588  0.6986
16218TIP3    H270070   0.664   4.785  16.715 -0.5149  0.3101 -1.0308
16219TIP3   OH270071   4.336   6.290   5.248 -0.0490  0.2747  0.0156
16219TIP3    H170072   4.401   6.356   5.225  0.8424 -0.5338  0.1367
16219TIP3    H270073   4.263   6.304   5.187  0.5011  0.8106 -0.5213
16220TIP3   OH270074   6.043   1.735   4.538 -0.3086 -0.6643  0.1023
16220TIP3    H170075   5.963   1.784   4.518  0.2637 -0.3641 -1.6548
16220TIP3    H270076   6.109   1.773   4.480  0.4203 -2.8069 -0.5484
16221TIP3   OH270077   2.635   4.098   3.363  0.0441 -0.3785  0.4390
16221TIP3    H170078   2.597   4.020   3.404  1.2326 -0.4674  1.4303
16221TIP3    H270079   2.584   4.171   3.398  1.4493 -0.3880  2.7006
16222TIP3   OH270080   5.402   4.267  12.099 -0.0464 -0.4688  0.4721
16222TIP3    H170081   5.496   4.256  12.084 -0.4001  0.1982 -3.0576
16222TIP3    H270082   5.389   4.238  12.190  3.7042  0.6098  1.5569
16223TIP3   OH270083   4.778   2.500   1.263 -0.3495  0.4023  0.4319
16223TIP3    H170084   4.709   2.509   1.329 -0.1925  1.9512  0.4182
16223TIP3    H270085   4.730   2.486   1.181 -0.5265 -2.8422  0.9689
16224TIP3   OH270086   4.233   6.191  15.629 -0.3105  0.5973 -0.2677
16224TIP3    H170087   4.279   6.252  15.571 -0.8446 -0.1295 -1.5020
16224TIP3    H270088   4.143   6.190  15.595 -0.5429 -0.1355  0.3517
16225TIP3   OH270089   4.917   4.286   6.151  0.0743 -0.3231 -0.2308
16225TIP3    H170090   4.873   4.213   6.107 -0.1683 -0.5708  0.4101
16225TIP3    H270091   4.978   4.244   6.211  1.6099  0.0145 -1.4985
16226TIP3   OH270092   6.020   1.362   3.608 -0.2557  0.0834  0.3976
16226TIP3    H170093   5.948   1.416   3.642 -0.1395 -0.2304  1.1747
16226TIP3    H270094   5.988   1.330   3.524 -0.4506  1.1036  0.0700
16227TIP3   OH270095   6.109   2.249  13.153 -0.1938  0.1704 -0.1305
16227TIP3    H170096   6.204   2.246  13.166  0.0866 -0.9994 -2.0688
16227TIP3    H270097   6.077   2.169  13.194 -0.5458  1.1230  1.5577
16228TIP3   OH270098   6.509   6.446  13.828 -0.1689 -0.2235 -0.2472
16228TIP3    H170099   6.525   6.520  13.769 -1.1271  0.8725  0.7962
16228TIP3    H270100   6.415   6.429  13.821 -0.2963 -0.1131  0.8728
16229TIP3   OH270101   3.376   1.508  13.872 -0.1496 -0.2641 -0.1626
16229TIP3    H170102   3.457   1.478  13.831  0.0854 -1.2976  1.0012
16229TIP3    H270103   3.328   1.427  13.893 -1.1545  0.3093 -0.1652
16230TIP3   OH270104   3.142   3.381  10.883 -0.2081 -0.5159 -0.1531
16230TIP3    H170105   3.050   3.361  10.900  0.2155 -1.8070  0.8176
16230TIP3    H270106   3.174   3.418  10.965 -0.2804  1.6951 -1.0659
16231TIP3   OH270107   3.260   2.185   6.331 -0.0424  0.4900 -0.0875
16231TIP3    H170108   3.297   2.133   6.260  1.4462  2.3662 -0.7755
16231TIP3    H270109   3.173   2.147   6.346  0.9695 -2.1508 -0.4816
16232TIP3   OH270110   0.768   1.596   4.043 -0.2499 -0.3648  0.9051
16232TIP3    H170111   0.828   1.527   4.072 -1.2742 -1.8258 -0.3292
16232TIP3    H270112   0.799   1.621   3.957 -1.0509 -0.7195  0.5020
16233TIP3   OH270113   4.095   0.793   4.931  0.1568  0.6217 -0.3446
16233TIP3    H170114   4.090   0.706   4.972 -0.2509  0.9870  0.3892
16233TIP3    H270115   4.007   0.828   4.939  0.3702  1.1845 -0.4639
16234TIP3   OH270116   1.039   6.476  10.713  0.6286  0.4328 -0.0293
16234TIP3    H170117   1.123   6.473  10.666 -0.0867 -3.1007 -1.4205
16234TIP3    H270118   0.977   6.434  10.654 -1.6590  0.9389  1.8641
16235TIP3   OH270119   0.017   2.262   1.189 -0.6261  0.4290 -0.0900
16235TIP3    H170120   0.071   2.338   1.167 -0.9265  0.8264  0.5279
16235TIP3    H270121  -0.037   2.291   1.263  0.0205 -0.7067  0.8816
16236TIP3   OH270122   0.751   5.768  12.921 -0.2004 -0.6524  0.4706
16236TIP3    H170123   0.660   5.747  12.945 -0.5724  1.6526  1.3581
16236TIP3    H270124   0.801   5.751  13.001  0.0617 -1.3161  0.1726
16237TIP3   OH270125   1.130   0.443   2.713 -0.1645 -0.2073  0.3671
16237TIP3    H170126   1.036   0.439   2.691 -0.1559  1.4965 -0.1710
16237TIP3    H270127   1.133   0.491   2.795  0.2746  0.8428 -0.2377
16238TIP3   OH270128   3.178   2.480   5.565 -0.6603 -0.3975 -0.6587
16238TIP3    H170129   3.095   2.476   5.613 -0.7743 -1.9281 -0.9358
16238TIP3    H270130   3.235   2.532   5.622 -1.7650  0.6533 -0.4475
16239TIP3   OH270131   3.383   2.616  15.504 -0.2933  0.0952  0.0967
16239TIP3    H170132   3.323   2.681  15.541 -0.8325 -0.6896  0.6334
16239TIP3    H270133   3.470   2.646  15.529 -0.5387  0.5830  0.3768
16240TIP3   OH270134   4.910   6.513   4.794 -0.1747  0.2764  0.3450
16240TIP3    H170135   4.853   6.479   4.725 -0.6104 -0.6433  1.1229
16240TIP3    H270136   4.983   6.451   4.797 -0.6201 -0.2316  1.3050
16241TIP3   OH270137   3.910   4.660   1.491 -0.3085  0.1901 -0.3007
16241TIP3    H170138   3.960   4.602   1.434 -1.6977 -1.0532 -0.2908
16241TIP3    H270139   3.885   4.733   1.435  2.5618  1.5679 -0.0018
16242TIP3   OH270140   0.298   6.720   1.287 -0.0860 -0.3267 -0.6177
16242TIP3    H170141   0.381   6.675   1.272  1.0861  1.6103 -0.2965
16242TIP3    H270142   0.237   6.682   1.223  1.4760 -0.7185 -1.9214
16243TIP3   OH270143   6.559   2.943   1.370 -0.1974 -0.1020  0.4911
16243TIP3    H170144   6.593   2.979   1.452 -0.1340 -0.2762  0.5427
16243TIP3    H270145   6.571   2.849   1.379  2.3843  0.0211 -0.8549
16244TIP3   OH270146   1.142   0.585  14.509 -0.3073 -0.3218  0.4658
16244TIP3    H170147   1.142   0.636  14.590 -1.9829 -1.1064  1.0200
16244TIP3    H270148   1.226   0.539  14.509  0.9843  1.9144  0.2518
16245TIP3   OH270149   6.612   4.086   4.219 -0.0121 -0.2990  0.2396
16245TIP3    H170150   6.681   4.020   4.211 -0.7177 -1.1917  1.2488
16245TIP3    H270151   6.580   4.098   4.129  1.5564  0.2776 -0.2805
16246TIP3   OH270152   2.987   6.408  16.002  0.7190 -0.1049  0.7160
16246TIP3    H170153   2.935   6.356  16.064 -0.8994  1.4508  0.7719
16246TIP3    H270154   3.011   6.347  15.933  2.1428 -1.7829  2.5574
16247TIP3   OH270155   5.104   0.632  11.423  0.9383 -0.2018 -0.8678
16247TIP3    H170156   5.093   0.598  11.512 -0.9283 -0.9432 -1.3202
16247TIP3    H270157   5.146   0.561  11.375  0.5639 -0.3980 -0.9119
16248TIP3   OH270158   4.682   6.272   0.438  0.1972 -0.0653 -0.2406
16248TIP3    H170159   4.704   6.323   0.516  0.6468  0.0301 -0.4267
16248TIP3    H270160   4.661   6.185   0.472  1.0352 -0.2104 -0.0580
16249TIP3   OH270161   6.543   1.779  17.180 -0.2363 -0.3217  0.2011
16249TIP3    H170162   6.609   1.843  17.207  0.7631 -0.0850 -2.5931
16249TIP3    H270163   6.461   1.813  17.218  1.0098 -0.1258  2.9295
16250TIP3   OH270164   0.028   3.361   5.833  0.3015 -0.0479 -0.1697
16250TIP3    H170165  -0.033   3.356   5.906  0.9871 -1.2172  0.3565
16250TIP3    H270166   0.037   3.454   5.815  1.0461  0.3592  2.0520
16251TIP3   OH270167   0.216   5.805  12.291 -0.3454 -0.0303 -0.5317
16251TIP3    H170168   0.217   5.782  12.384 -0.1039 -0.0599 -0.5413
16251TIP3    H270169   0.196   5.899  12.290  0.4400  0.1502 -0.4093
16252TIP3   OH270170   3.101   4.130   0.268  0.5515  0.6649  0.1221
16252TIP3    H170171   3.082   4.072   0.342  3.7444  1.1095  1.4411
16252TIP3    H270172   3.032   4.197   0.273 -0.5302 -0.4695  1.3717
16253TIP3   OH270173   5.166   2.794  13.074  0.1002  0.2060 -0.3753
16253TIP3    H170174   5.098   2.827  13.133  0.2049 -0.2084 -0.0206
16253TIP3    H270175   5.242   2.848  13.093 -0.0393  0.4691 -0.5576
16254TIP3   OH270176   0.944   2.445  16.498 -0.2356  0.2952 -0.6607
16254TIP3    H170177   0.946   2.536  16.470  1.4606  0.2499 -0.7778
16254TIP3    H270178   0.984   2.396  16.426 -2.5418 -0.8019 -1.3163
16255TIP3   OH270179   3.886   4.764   3.285 -0.7310 -0.4013  0.3569
16255TIP3    H170180   3.883   4.854   3.316  0.5755 -0.4377  0.6473
16255TIP3    H270181   3.865   4.770   3.191  1.9479  0.5846 -0.2652
16256TIP3   OH270182   4.321   0.262   4.135 -0.2405 -0.7462 -0.0698
16256TIP3    H170183   4.307   0.335   4.075  0.9003 -0.3205  0.1676
16256TIP3    H270184   4.275   0.189   4.094 -0.0394 -0.2997 -1.1228
16257TIP3   OH270185   1.189   4.927  14.106  0.0754 -0.2942 -0.0386
16257TIP3    H170186   1.205   5.021  14.108 -0.1819 -0.2596  0.7025
16257TIP3    H270187   1.098   4.919  14.076  0.4022 -0.3559 -1.0515
16258TIP3   OH270188   3.159   3.858  12.389 -0.3653  0.3874  0.0486
16258TIP3    H170189   3.157   3.947  12.355 -1.8025  0.6804  0.8117
16258TIP3    H270190   3.243   3.852  12.436 -0.6914  1.6769  0.8377
16259TIP3   OH270191   5.563   1.527   4.419  0.1684 -0.3568 -0.9512
16259TIP3    H170192   5.530   1.532   4.329  1.6151 -1.2864 -1.5727
16259TIP3    H270193   5.658   1.532   4.409  0.3085  0.6349  0.6333
16260TIP3   OH270194   3.006   6.103  14.285 -0.5295  0.0278  0.0912
16260TIP3    H170195   3.006   6.015  14.322  0.5030 -0.7469 -1.6018
16260TIP3    H270196   2.959   6.094  14.202  2.7517  0.0986 -1.9800
16261TIP3   OH270197   3.447   6.364  14.292 -0.8830 -0.2519  0.1657
16261TIP3    H170198   3.462   6.456  14.271 -2.4681 -0.1682 -0.8218
16261TIP3    H270199   3.367   6.365  14.345 -0.9273 -1.0590  0.1242
16262TIP3   OH270200   2.810   4.421  12.492 -0.1759  0.3989 -0.0177
16262TIP3    H170201   2.734   4.423  12.434 -1.2997  2.3868  1.3864
16262TIP3    H270202   2.801   4.339  12.541 -0.3166 -0.3105 -1.1998
16263TIP3   OH270203   6.470   0.294   2.468  0.6866  0.3811 -0.2552
16263TIP3    H170204   6.436   0.263   2.552 -0.3342 -0.0796 -0.8096
16263TIP3    H270205   6.417   0.372   2.448  0.9855  0.5422 -0.4278
16264TIP3   OH270206   5.414   3.273  15.218 -0.9706 -0.4752  0.3946
16264TIP3    H170207   5.499   3.243  15.188 -0.8607 -0.0122  0.2379
16264TIP3    H270208   5.393   3.217  15.293 -0.5146 -0.5686  0.4513
16265TIP3   OH270209   6.607   0.666   1.672  0.4108 -0.1999  0.3476
16265TIP3    H170210   6.695   0.634   1.648  0.2883 -0.3029  0.0249
16265TIP3    H270211   6.611   0.760   1.656 -0.2341 -0.5051 -1.9345
16266TIP3   OH270212   3.096   2.197   2.724  0.6676 -0.2095 -0.0147
16266TIP3    H170213   3.109   2.141   2.648  0.3556 -0.4090  0.0752
16266TIP3    H270214   3.179   2.244   2.734 -0.1164  1.7590 -2.0246
16267TIP3   OH270215   5.505   1.880   6.614  0.1096  0.0473 -0.3596
16267TIP3    H170216   5.564   1.812   6.582 -0.3705 -0.5257 -0.0287
16267TIP3    H270217   5.422   1.862   6.571  0.5241  1.7635 -2.0348
16268TIP3   OH270218   5.272   1.987  14.642  0.8476  0.7872  0.1476
16268TIP3    H170219   5.218   1.912  14.669  1.3011  0.0555 -0.9421
16268TIP3    H270220   5.232   2.018  14.561  1.8211  0.4996 -0.4478
16269TIP3   OH270221   5.432   6.241  16.754 -0.1957 -0.3443 -0.5724
16269TIP3    H170222   5.372   6.200  16.693 -0.2306 -0.7614 -0.2632
16269TIP3    H270223   5.447   6.329  16.718 -1.0382 -0.2091 -0.6193
16270TIP3   OH270224   4.939   5.131   5.214  0.1458  0.2123  0.0415
16270TIP3    H170225   5.009   5.197   5.214 -1.1237  1.6155  0.2686
16270TIP3    H270226   4.985   5.047   5.215  1.8552  1.0825  1.7528
16271TIP3   OH270227   5.714   3.009   3.456 -0.0480 -0.6190  0.8494
16271TIP3    H170228   5.626   3.025   3.491 -0.1290  2.3299 -0.4430
16271TIP3    H270229   5.716   2.914   3.442 -3.2373 -0.7478  0.4002
16272TIP3   OH270230   5.110   5.992   3.290 -0.1064  0.3314 -0.2255
16272TIP3    H170231   5.070   6.037   3.365  0.2713  0.0799  0.1271
16272TIP3    H270232   5.043   5.929   3.262  0.2105 -0.4338  0.6752
16273TIP3   OH270233   0.037   1.851  16.942  0.7352  0.3194  0.0681
16273TIP3    H170234  -0.026   1.810  17.001 -0.0693 -0.8289 -1.5360
16273TIP3    H270235   0.123   1.823  16.976  0.5202  2.2474  2.5212
16274TIP3   OH270236   1.576   6.514   4.272  0.4834  0.4654  0.1605
16274TIP3    H170237   1.570   6.480   4.182  0.5301  0.8924 -0.0063
16274TIP3    H270238   1.626   6.448   4.319  1.0869  0.5839 -0.3049
16275TIP3   OH270239   2.848   5.128   4.199  0.2738  0.1002  0.1397
16275TIP3    H170240   2.892   5.205   4.164 -0.1098 -0.1880 -1.0161
16275TIP3    H270241   2.815   5.081   4.122 -0.1323 -0.8401  0.8557
16276TIP3   OH270242   5.102   5.729  16.842 -0.3981  0.1989  0.0272
16276TIP3    H170243   5.079   5.808  16.891  0.8575 -0.3544  1.5793
16276TIP3    H270244   5.018   5.687  16.823 -0.9408  0.2346  2.0826
16277TIP3   OH270245   5.034   0.883  15.924 -0.1775  0.4464 -0.0802
16277TIP3    H170246   5.089   0.805  15.925 -0.9903 -0.1825 -1.1548
16277TIP3    H270247   5.094   0.955  15.901  0.0370 -0.4157 -2.5311
16278TIP3   OH270248   3.852   0.802   5.049  0.2021  0.1278  0.4801
16278TIP3    H170249   3.885   0.723   5.007  1.4925  0.0056  1.6394
16278TIP3    H270250   3.762   0.781   5.073  0.8940 -1.4738  1.8794
16279TIP3   OH270251   4.050   4.000   2.122 -0.2482  0.0314  0.4560
16279TIP3    H170252   4.081   4.006   2.031  0.3521  0.6704  0.6850
16279TIP3    H270253   3.963   3.962   2.116 -1.6485  3.1013 -0.7157
16280TIP3   OH270254   1.437   1.795   6.346 -0.0007  0.6362 -0.1468
16280TIP3    H170255   1.472   1.835   6.267 -0.5078  1.0509 -0.1659
16280TIP3    H270256   1.370   1.734   6.315  1.6419 -1.2395 -0.2139
16281TIP3   OH270257   4.813   2.921  13.492 -0.0779 -0.0579 -0.1891
16281TIP3    H170258   4.753   2.992  13.471 -0.3258 -0.5183 -1.0963
16281TIP3    H270259   4.841   2.938  13.582 -0.5658  0.8697 -0.2082
16282TIP3   OH270260   0.395   1.995   1.605  0.3028 -0.1343 -0.0827
16282TIP3    H170261   0.412   2.084   1.573  0.5395 -0.3630 -0.5968
16282TIP3    H270262   0.368   2.008   1.696 -1.4815  0.6074 -0.6662
16283TIP3   OH270263   1.410   1.598  16.183  0.1505  0.0726  0.5608
16283TIP3    H170264   1.391   1.505  16.179  0.2330  0.0956 -0.7916
16283TIP3    H270265   1.430   1.623  16.093  0.6549  1.2891  0.9780
16284TIP3   OH270266   4.658   6.682  12.434 -0.5511 -0.2332  0.1780
16284TIP3    H170267   4.566   6.690  12.461 -0.9236  0.8120 -1.2928
16284TIP3    H270268   4.668   6.744  12.363  0.8750 -1.5403 -0.8330
16285TIP3   OH270269   1.295   4.931  15.226  0.3570  0.6230  0.0700
16285TIP3    H170270   1.224   4.870  15.248 -0.5646  0.5617 -2.6345
16285TIP3    H270271   1.366   4.908  15.286 -0.6290 -1.8187  0.4432
16286TIP3   OH270272   6.294   3.890  16.579  0.2638 -0.0901 -0.1144
16286TIP3    H170273   6.352   3.895  16.503 -0.3291 -1.5125 -0.6922
16286TIP3    H270274   6.283   3.796  16.596 -0.5279  0.1746  1.0265
16287TIP3   OH270275   6.766   6.656  14.922  0.0394 -0.4243  0.5334
16287TIP3    H170276   6.674   6.680  14.909 -0.2680 -2.0544 -0.7049
16287TIP3    H270277   6.815   6.731  14.890 -0.8664 -0.8687 -2.1501
16288TIP3   OH270278   1.237   6.637   0.591  0.3641 -0.1891  0.4925
16288TIP3    H170279   1.183   6.626   0.669  1.6983  0.8601  1.6160
16288TIP3    H270280   1.181   6.609   0.518 -2.2676  2.3377  1.3997
16289TIP3   OH270281   4.038   5.940   6.476  0.1595  0.0393  0.2907
16289TIP3    H170282   3.980   5.869   6.503  0.0478 -0.0413 -0.1550
16289TIP3    H270283   3.980   6.004   6.436  0.4913 -0.5180 -1.1421
16290TIP3   OH270284   2.597   6.550   6.567  0.2866 -0.5308 -0.0349
16290TIP3    H170285   2.551   6.554   6.650 -0.7003 -0.9691 -0.5505
16290TIP3    H270286   2.533   6.517   6.505  0.4797  1.4510 -1.3617
16291TIP3   OH270287   1.247   4.777  11.529 -0.3741 -0.2887  0.2047
16291TIP3    H170288   1.281   4.734  11.451 -0.6113  2.0341 -1.2938
16291TIP3    H270289   1.325   4.813  11.572 -0.2651 -1.3784  0.9403
16292TIP3   OH270290   3.787   6.689  16.748  0.0252  0.2525 -0.2144
16292TIP3    H170291   3.763   6.676  16.840 -1.7341  2.7520 -0.2253
16292TIP3    H270292   3.769   6.781  16.732  0.1636 -0.1502 -3.1354
16293TIP3   OH270293   4.308   2.329   4.993 -0.0590  0.0241  0.1836
16293TIP3    H170294   4.239   2.354   5.053  0.2027  0.0939  0.4563
16293TIP3    H270295   4.300   2.234   4.984 -0.6496  0.1179 -0.3564
16294TIP3   OH270296   5.325   2.797   0.730 -0.3561 -0.4374  0.4673
16294TIP3    H170297   5.382   2.844   0.669 -1.6828  0.2568 -0.2630
16294TIP3    H270298   5.345   2.705   0.716 -0.1178 -0.2468 -0.4916
16295TIP3   OH270299   6.040   4.147   1.556  0.0726  0.4222 -0.6913
16295TIP3    H170300   6.091   4.139   1.637  0.1868  0.3872 -0.7656
16295TIP3    H270301   6.106   4.158   1.488  0.0157 -0.3779 -0.8853
16296TIP3   OH270302   5.543   1.577  10.910 -0.3328 -0.0607 -0.2491
16296TIP3    H170303   5.608   1.584  10.841 -1.1686  1.1430 -0.9596
16296TIP3    H270304   5.534   1.666  10.944  1.9830 -1.0112  3.3024
16297TIP3   OH270305   1.011   5.198   5.092  0.3107  0.2358 -0.0743
16297TIP3    H170306   0.923   5.212   5.058  0.5662  1.3820 -0.3120
16297TIP3    H270307   1.064   5.265   5.050  1.5317 -1.0949 -0.7569
16298TIP3   OH270308   4.512   3.123   5.580 -0.8905  0.2770 -0.0901
16298TIP3    H170309   4.533   3.207   5.537  1.3065 -0.6017 -0.8822
16298TIP3    H270310   4.519   3.142   5.673  1.3853  0.6409 -0.2643
16299TIP3   OH270311   0.067   0.026   5.400  0.5533 -0.1775 -0.0142
16299TIP3    H170312   0.031   0.089   5.463 -0.0521 -0.2347 -0.3005
16299TIP3    H270313   0.002  -0.045   5.397 -0.4956  0.7706 -2.2418
16300TIP3   OH270314   5.743   5.991  13.503 -0.5344  0.2241  0.3329
16300TIP3    H170315   5.656   5.952  13.511 -0.6736  0.4559 -0.0097
16300TIP3    H270316   5.793   5.927  13.452 -0.2258 -0.3384  1.3209
16301TIP3   OH270317   6.683   6.184   0.926 -0.5803 -0.6410  0.1282
16301TIP3    H170318   6.599   6.160   0.965 -1.2730 -2.8463 -2.4129
16301TIP3    H270319   6.660   6.246   0.856  0.2303  0.5329  0.8552
16302TIP3   OH270320   2.629   2.167   0.508  0.0849  0.3856 -0.2474
16302TIP3    H170321   2.685   2.092   0.485 -0.0265  0.3638 -0.4542
16302TIP3    H270322   2.627   2.220   0.428  2.7421  2.2831  0.8197
16303TIP3   OH270323   6.341   3.676  11.774  0.6208 -0.0701 -0.8032
16303TIP3    H170324   6.404   3.676  11.847  0.9770  2.1837 -1.0529
16303TIP3    H270325   6.365   3.752  11.722 -2.1440  0.7065 -1.0683
16304TIP3   OH270326   3.574   1.981   0.728  0.0875  0.0875 -0.3047
16304TIP3    H170327   3.491   1.976   0.681 -0.3956  1.2471  0.3744
16304TIP3    H270328   3.612   1.894   0.720  0.4018  0.3797 -3.5110
16305TIP3   OH270329   6.040   1.156   4.717  0.6621 -0.1310  0.8007
16305TIP3    H170330   6.068   1.114   4.636 -2.2314 -2.4796  0.8470
16305TIP3    H270331   6.102   1.125   4.783  1.3390 -0.5020  0.0082
16306TIP3   OH270332   1.439   6.646   3.295 -0.0943  0.0326  0.5628
16306TIP3    H170333   1.483   6.581   3.350  0.7589  0.7901  0.8061
16306TIP3    H270334   1.505   6.670   3.229 -1.0669 -0.8083 -0.7873
16307TIP3   OH270335   0.928   5.637   2.773 -0.6439  0.0340  0.1325
16307TIP3    H170336   1.021   5.626   2.789 -0.6540 -0.7538 -0.3106
16307TIP3    H270337   0.907   5.723   2.810 -0.0276 -0.3416  1.4074
16308TIP3   OH270338   3.673   1.330   3.785  0.0397  0.3040  0.2301
16308TIP3    H170339   3.680   1.388   3.861 -0.7016 -0.2632  0.7477
16308TIP3    H270340   3.737   1.364   3.723 -0.1424  1.4678  0.6528
16309TIP3   OH270341   0.667   0.705   1.675 -0.4183  0.5068  0.2356
16309TIP3    H170342   0.672   0.655   1.594 -2.9194 -0.7275  0.7543
16309TIP3    H270343   0.758   0.712   1.704  0.3247 -0.9355 -1.5148
16310TIP3   OH270344   5.123   2.848   6.138 -0.8180  0.1390  0.0915
16310TIP3    H170345   5.044   2.895   6.167 -0.1923  0.9566  0.5000
16310TIP3    H270346   5.184   2.917   6.113 -0.7706 -0.4957 -1.7401
16311TIP3   OH270347   2.871   5.342   3.311  0.0799 -0.3007  0.2023
16311TIP3    H170348   2.850   5.382   3.395 -0.5613 -0.8979  0.3370
16311TIP3    H270349   2.939   5.398   3.274  0.0010  0.2604  0.8860
16312TIP3   OH270350   0.902   0.363   3.764 -0.0929  0.5295  0.0732
16312TIP3    H170351   0.957   0.381   3.840 -0.8749  1.1687  0.4846
16312TIP3    H270352   0.964   0.364   3.690  0.8858 -1.2966  0.7965
16313TIP3   OH270353   6.187   6.227  14.955 -0.0895  0.5012 -0.0079
16313TIP3    H170354   6.219   6.199  15.041 -0.6553 -0.5372 -0.1134
16313TIP3    H270355   6.217   6.317  14.946 -0.3970  0.7753  1.4615
16314TIP3   OH270356   4.692   1.967  15.593 -0.2212 -0.1912 -0.4366
16314TIP3    H170357   4.691   1.993  15.500 -1.4024 -0.8318 -0.6163
16314TIP3    H270358   4.703   1.872  15.591  0.4004 -0.1403  0.1148
16315TIP3   OH270359   2.640   1.707  12.899 -0.0446  0.7306  0.4063
16315TIP3    H170360   2.594   1.774  12.949 -0.6487  0.1591  0.6439
16315TIP3    H270361   2.656   1.637  12.962  1.9313  1.2543  0.5372
16316TIP3   OH270362   2.855   2.874  14.070  0.0914 -0.1775 -0.8039
16316TIP3    H170363   2.806   2.811  14.123 -0.7991  1.8582  0.9481
16316TIP3    H270364   2.790   2.940  14.046  1.3690  1.0620 -0.9419
16317TIP3   OH270365   0.941   1.440   5.828 -0.8401 -0.1106  0.5086
16317TIP3    H170366   0.921   1.390   5.748 -0.2121 -2.7261  1.8835
16317TIP3    H270367   1.033   1.465   5.818 -0.8829 -0.0491  0.2385
16318TIP3   OH270368   5.651   1.052  16.315 -0.0565 -0.1077  0.0587
16318TIP3    H170369   5.677   1.029  16.226  1.0214 -0.1927  0.3862
16318TIP3    H270370   5.717   1.011  16.371 -1.0384 -0.5293  0.9332
16319TIP3   OH270371   2.181   2.044   0.760 -0.0827 -0.2767 -0.3247
16319TIP3    H170372   2.163   2.074   0.672  2.1418  0.3161 -0.6365
16319TIP3    H270373   2.203   1.951   0.750 -0.7306 -0.4469 -0.2393
16320TIP3   OH270374   6.772   6.021   2.871 -0.0380 -0.1805  0.5104
16320TIP3    H170375   6.736   5.936   2.895 -0.3896 -0.4024 -0.7546
16320TIP3    H270376   6.701   6.064   2.822  0.3465  0.5980  0.6271
16321TIP3   OH270377   3.411   5.115  16.770 -0.5611  0.2650 -0.2171
16321TIP3    H170378   3.500   5.110  16.803 -0.4870 -1.5363 -0.5619
16321TIP3    H270379   3.360   5.150  16.843  0.3894  1.2534  0.0043
16322TIP3   OH270380   6.737   6.665   2.248  0.1997  0.5287 -0.3171
16322TIP3    H170381   6.774   6.738   2.298  0.3215  0.6078 -0.5206
16322TIP3    H270382   6.738   6.695   2.158  2.0813 -0.4507 -0.6816
16323TIP3   OH270383   2.168   1.604  11.158  0.1416 -0.2249  0.2785
16323TIP3    H170384   2.210   1.683  11.125 -1.6218  0.0256 -1.6068
16323TIP3    H270385   2.206   1.533  11.106  0.2152 -0.3492  0.5013
16324TIP3   OH270386   3.550   1.549  14.356 -0.2362  0.2930  0.0761
16324TIP3    H170387   3.621   1.605  14.386  0.3631 -0.1148 -0.5644
16324TIP3    H270388   3.521   1.504  14.435 -0.5310  1.2740  0.5437
16325TIP3   OH270389   4.934   4.203  15.216 -0.0739 -0.1542 -0.3988
16325TIP3    H170390   4.873   4.276  15.205  0.2264 -0.2071 -2.7836
16325TIP3    H270391   4.888   4.142  15.273 -0.9285  1.2210  0.4547
16326TIP3   OH270392   2.417   6.419   3.774 -0.0816 -0.7558 -0.2432
16326TIP3    H170393   2.367   6.366   3.836  0.8753 -1.7187 -0.2621
16326TIP3    H270394   2.453   6.490   3.828 -0.8705 -0.4633 -0.0935
16327TIP3   OH270395   1.414   6.285  14.400  0.3402 -0.0693  0.3074
16327TIP3    H170396   1.374   6.245  14.476  0.0806  1.3885  0.9810
16327TIP3    H270397   1.393   6.226  14.327 -3.2089  0.6157  0.5654
16328TIP3   OH270398   5.034   3.011  14.495  0.5722  0.2499 -0.3967
16328TIP3    H170399   5.056   3.091  14.448  2.4916  0.3145  0.5005
16328TIP3    H270400   5.071   3.024  14.582  0.0978 -1.2275  0.0527
16329TIP3   OH270401   3.924   6.099  12.080  0.4900  0.6121 -0.7978
16329TIP3    H170402   3.947   6.105  12.173 -1.3180 -0.4539 -0.2385
16329TIP3    H270403   3.971   6.022  12.049  0.1757  0.2848 -0.4680
16330TIP3   OH270404   5.326   5.665   0.944 -0.4981 -0.9382  0.3979
16330TIP3    H170405   5.234   5.673   0.970 -0.2831  0.0370  0.9033
16330TIP3    H270406   5.345   5.748   0.899  0.6972 -0.2088  2.1310
16331TIP3   OH270407   4.782   5.114  13.313  0.6948  0.1246  0.2457
16331TIP3    H170408   4.865   5.157  13.292  0.4488  0.9822  0.9794
16331TIP3    H270409   4.715   5.178  13.289  0.1491 -1.0381 -1.5604
16332TIP3   OH270410   0.811   6.121  12.238  0.5946  0.2481 -0.2698
16332TIP3    H170411   0.807   6.151  12.329  0.2793 -0.7475  0.0667
16332TIP3    H270412   0.893   6.071  12.233  0.6516  0.3699 -0.5521
16333TIP3   OH270413   6.095   0.880  14.913 -0.0834 -0.6424 -0.3911
16333TIP3    H170414   6.042   0.889  14.834 -0.2966  1.3089 -0.0748
16333TIP3    H270415   6.045   0.821  14.969 -0.3827 -1.2961 -1.3132
16334TIP3   OH270416   6.492   5.726   0.232  0.2138 -0.2513 -0.0073
16334TIP3    H170417   6.530   5.766   0.154 -1.1221  0.0044 -0.5544
16334TIP3    H270418   6.440   5.653   0.199 -0.3653 -0.1382  0.6319
16335TIP3   OH270419   0.594   6.558  13.572 -0.4947 -0.1538 -0.2927
16335TIP3    H170420   0.565   6.605  13.651  0.5760  0.7550 -0.4100
16335TIP3    H270421   0.547   6.602  13.500 -1.8554 -1.3081 -0.1466
16336TIP3   OH270422   1.692   0.794   2.545  0.0318 -0.0926  0.3424
16336TIP3    H170423   1.712   0.724   2.483 -0.3342  0.3088 -0.2479
16336TIP3    H270424   1.775   0.811   2.590  0.5217  0.1865 -0.6389
16337TIP3   OH270425   5.681   5.579  11.727  0.1258  0.3799  0.7409
16337TIP3    H170426   5.629   5.500  11.713 -0.1196  0.4840  1.0508
16337TIP3    H270427   5.737   5.557  11.802  0.4075  0.3284  0.5167
16338TIP3   OH270428   6.631   0.262   4.304 -0.2073  0.8079 -0.5173
16338TIP3    H170429   6.631   0.304   4.390 -1.6618 -2.3410  1.2000
16338TIP3    H270430   6.724   0.246   4.285  0.0925  0.1012  1.3215
16339TIP3   OH270431   1.092   3.593  13.926  0.3162  0.8538  0.1599
16339TIP3    H170432   1.035   3.534  13.975 -0.3950  1.1931 -0.2413
16339TIP3    H270433   1.042   3.674  13.919  0.3097  0.7417 -1.3041
16340TIP3   OH270434   2.194   5.942   0.310 -0.2479 -0.3251 -0.4738
16340TIP3    H170435   2.256   5.955   0.382 -1.2327 -0.8876  0.4958
16340TIP3    H270436   2.116   5.990   0.337 -0.8330 -1.0365 -0.8935
16341TIP3   OH270437   3.197   4.305  13.210 -0.5682 -0.1120 -0.1946
16341TIP3    H170438   3.261   4.237  13.232  0.5149  0.9863  0.1658
16341TIP3    H270439   3.169   4.339  13.295  0.3644  1.1959 -0.3894
16342TIP3   OH270440   1.695   1.272  16.932  0.4337  0.3635 -0.3534
16342TIP3    H170441   1.738   1.355  16.913 -0.0704  0.9106  0.8165
16342TIP3    H270442   1.750   1.230  16.999 -0.6835  0.9670  0.9827
16343TIP3   OH270443   3.534   3.087  11.669 -0.2777 -0.1659 -0.0590
16343TIP3    H170444   3.472   3.017  11.690  0.3436 -0.4867  0.7398
16343TIP3    H270445   3.482   3.167  11.672 -0.7273 -0.4666  0.2631
16344TIP3   OH270446   1.163   4.117  16.242 -0.1667  0.6566 -0.4819
16344TIP3    H170447   1.216   4.069  16.178 -1.3965  0.3372 -1.2825
16344TIP3    H270448   1.180   4.072  16.325  0.9348  0.6674 -0.6841
16345TIP3   OH270449   2.321   5.776  15.287 -0.2831 -0.1593  0.3381
16345TIP3    H170450   2.384   5.705  15.301 -1.0405 -1.3180 -1.7400
16345TIP3    H270451   2.371   5.844  15.241 -0.7485 -1.6893 -2.6865
16346TIP3   OH270452   0.944   0.932  15.899  0.1246 -0.1180  0.4673
16346TIP3    H170453   0.869   0.937  15.841  0.3136  0.1740  0.2436
16346TIP3    H270454   0.919   0.983  15.976  0.3808  0.6307  0.0647
16347TIP3   OH270455   0.157   5.929   4.180 -0.4241  0.5338 -0.1262
16347TIP3    H170456   0.067   5.901   4.165 -0.5844  0.9279  0.0831
16347TIP3    H270457   0.179   5.983   4.103 -0.0193 -0.3701 -0.6699
16348TIP3   OH270458   0.571   5.623   3.411  0.1636 -0.0992  0.5146
16348TIP3    H170459   0.583   5.641   3.318  0.7993 -2.1656  0.1470
16348TIP3    H270460   0.655   5.585   3.439 -0.5749 -1.0636  1.4989
16349TIP3   OH270461   2.139   6.474   2.989 -0.5058  0.4816 -0.6428
16349TIP3    H170462   2.201   6.545   2.972  1.7435 -0.7899  1.5272
16349TIP3    H270463   2.166   6.404   2.930 -1.6471  0.8137 -1.5897
16350TIP3   OH270464   5.472   1.963   5.523 -0.1303  0.4343 -0.1128
16350TIP3    H170465   5.387   1.930   5.492  0.4355  0.5731 -1.9348
16350TIP3    H270466   5.516   1.886   5.558 -0.4337  0.0615 -0.5378
16351TIP3   OH270467   4.026   0.187  15.727  0.3878 -0.0276  0.3958
16351TIP3    H170468   4.081   0.163  15.653 -1.9772 -0.2395 -1.4117
16351TIP3    H270469   4.003   0.104  15.768 -0.3566 -0.1541 -0.2421
16352TIP3   OH270470   4.292   4.118  12.754 -0.2289  0.2071  0.1596
16352TIP3    H170471   4.334   4.121  12.668  0.7184 -0.1922  0.5916
16352TIP3    H270472   4.210   4.070  12.740  0.4712 -0.8869 -0.3044
16353TIP3   OH270473   5.255   4.823  11.778 -0.0685 -0.2934 -0.2601
16353TIP3    H170474   5.169   4.787  11.800  1.0746 -3.6262 -0.6655
16353TIP3    H270475   5.312   4.796  11.850  1.3312 -1.3091 -1.6663
16354TIP3   OH270476   5.797   5.720  17.014  0.1975 -0.2503  0.2891
16354TIP3    H170477   5.776   5.650  17.076  0.1522 -1.1222 -0.6936
16354TIP3    H270478   5.767   5.800  17.058 -2.6089 -1.1252  0.1794
16355TIP3   OH270479   3.929   3.890  12.554  0.2842 -0.3544 -0.3172
16355TIP3    H170480   3.973   3.945  12.618 -0.4823  1.2769 -1.1200
16355TIP3    H270481   3.999   3.835  12.517  0.8683 -0.7477  1.2862
16356TIP3   OH270482   2.723   3.191  16.829 -0.4491 -0.4380  0.0293
16356TIP3    H170483   2.787   3.134  16.786 -0.6420 -0.9979  0.4707
16356TIP3    H270484   2.648   3.134  16.846 -0.2751 -0.3007  1.3522
16357TIP3   OH270485   6.194   0.250  13.448  0.0367 -0.1239  0.2169
16357TIP3    H170486   6.136   0.188  13.493 -0.8967 -0.3452 -1.2044
16357TIP3    H270487   6.141   0.329  13.439  1.2561  0.9536  2.1115
16358TIP3   OH270488   4.650   0.355  17.049 -0.2003 -0.3075 -0.3713
16358TIP3    H170489   4.662   0.395  17.135 -0.0623 -1.1972  0.0249
16358TIP3    H270490   4.629   0.429  16.992 -1.9847  0.1110  0.7474
16359TIP3   OH270491   3.801   3.882   4.071  0.0839 -0.6461 -0.1052
16359TIP3    H170492   3.859   3.864   4.145  0.5311  1.3791  0.1164
16359TIP3    H270493   3.713   3.870   4.106  0.2338  1.5024  1.2141
16360TIP3   OH270494   5.485   6.308   5.065  0.1909  0.1152 -0.6850
16360TIP3    H170495   5.494   6.366   4.990 -0.2348  0.3626 -0.5498
16360TIP3    H270496   5.417   6.246   5.039  1.0859 -0.7349 -1.0784
16361TIP3   OH270497   5.539   1.777   3.592 -0.3070  0.2030  0.1515
16361TIP3    H170498   5.632   1.794   3.608  0.5620 -1.4156 -2.4073
16361TIP3    H270499   5.522   1.817   3.507 -1.9960  0.5121  0.6021
16362TIP3   OH270500   4.203   2.864   1.892 -0.1095  0.1616 -0.7538
16362TIP3    H170501   4.200   2.906   1.806 -0.4839  1.8923  0.0503
16362TIP3    H270502   4.296   2.843   1.906 -0.1608 -0.9033 -1.9033
16363TIP3   OH270503   6.419   3.830  11.140 -0.1575 -0.2164  0.6594
16363TIP3    H170504   6.491   3.780  11.178  0.1670  0.0290  0.3729
16363TIP3    H270505   6.460   3.912  11.109 -0.1701 -0.8837 -1.2751
16364TIP3   OH270506   1.538   5.744   3.199 -0.0947 -0.5783 -0.4186
16364TIP3    H170507   1.552   5.771   3.108 -0.3797 -1.6094 -0.7916
16364TIP3    H270508   1.446   5.718   3.203  0.2551 -1.8899 -0.2369
16365TIP3   OH270509   4.234   1.060   6.122 -0.8884 -0.6059  0.2348
16365TIP3    H170510   4.301   1.092   6.061  0.5274 -3.0225  0.3715
16365TIP3    H270511   4.176   1.135   6.136  2.3410  2.0006  0.9303
16366TIP3   OH270512   4.984   5.588  15.225 -0.2859 -0.2629  0.2949
16366TIP3    H170513   4.944   5.652  15.167 -0.7959 -1.5358 -0.8158
16366TIP3    H270514   4.916   5.568  15.290 -1.0951 -1.5519 -0.8950
16367TIP3   OH270515   2.954   0.545  13.523 -0.1639  0.6903  0.4461
16367TIP3    H170516   2.879   0.487  13.536 -0.3935  0.3484 -1.8606
16367TIP3    H270517   2.951   0.566  13.429  2.3858  0.9691  0.3610
16368TIP3   OH270518   3.590   2.550   3.907  0.2920  0.3041  0.5874
16368TIP3    H170519   3.645   2.527   3.982 -0.3245  0.9801  1.2550
16368TIP3    H270520   3.652   2.574   3.838  0.8778 -0.7472  0.7200
16369TIP3   OH270521   5.985   2.739  12.356  0.3559 -0.0185  0.0628
16369TIP3    H170522   6.011   2.711  12.269  4.6827  0.1543  1.0882
16369TIP3    H270523   5.943   2.661  12.394 -0.3548 -0.5161 -1.6379
16370TIP3   OH270524   4.023   6.276   4.737  0.3188 -0.3912  0.1973
16370TIP3    H170525   4.061   6.209   4.680 -1.6502 -2.1986  0.9161
16370TIP3    H270526   3.991   6.344   4.677  0.7264 -0.9386 -0.6553
16371TIP3   OH270527   5.590   3.918  10.999 -0.3144  0.0414 -0.6302
16371TIP3    H170528   5.570   3.831  10.966  0.7098  0.8311 -3.6571
16371TIP3    H270529   5.529   3.976  10.953 -1.8542  0.9043  2.2547
16372TIP3   OH270530   0.446   0.240  14.185 -0.6406 -0.1828  0.2537
16372TIP3    H170531   0.377   0.260  14.121 -2.6066 -2.9418  1.3009
16372TIP3    H270532   0.495   0.168  14.145 -1.9516 -2.0079  1.7157
16373TIP3   OH270533   4.255   0.924  13.174  0.1087 -0.2549  0.0222
16373TIP3    H170534   4.284   0.963  13.092 -1.9490  2.0439  0.2610
16373TIP3    H270535   4.223   0.837  13.150 -0.8805  0.5405 -1.7364
16374TIP3   OH270536   2.347   5.312  11.785 -0.2224  1.0323 -0.4561
16374TIP3    H170537   2.391   5.281  11.705  0.8505 -0.5597  0.6923
16374TIP3    H270538   2.257   5.329  11.758 -0.0312 -0.0522 -1.8773
16375TIP3   OH270539   2.375   2.375   5.724  0.8956 -0.3549 -0.6803
16375TIP3    H170540   2.354   2.300   5.781 -1.9638 -0.8505 -2.2529
16375TIP3    H270541   2.418   2.335   5.648 -0.9954 -0.5397 -1.7081
16376TIP3   OH270542   2.261   2.958   1.178  0.0725 -0.3084  0.4009
16376TIP3    H170543   2.282   2.985   1.268  2.2771 -1.1315  0.1792
16376TIP3    H270544   2.230   2.868   1.187 -0.2816 -0.1930  0.3735
16377TIP3   OH270545   3.476   3.625  16.138 -0.3858 -0.1483 -0.0131
16377TIP3    H170546   3.567   3.652  16.148 -0.4747 -0.3235  1.4995
16377TIP3    H270547   3.439   3.688  16.076  0.3852  0.8569  0.5162
16378TIP3   OH270548   0.509   0.278  13.353  0.1817  0.1862  0.0229
16378TIP3    H170549   0.586   0.243  13.309 -2.0851 -0.6854 -3.6616
16378TIP3    H270550   0.468   0.202  13.394  0.6790  0.4811  1.1185
16379TIP3   OH270551   2.507   6.428   6.819 -0.1412 -0.0263  0.2379
16379TIP3    H170552   2.411   6.433   6.816 -0.2442 -1.6457 -0.3704
16379TIP3    H270553   2.526   6.336   6.801  1.5461  0.3046  0.2051
16380TIP3   OH270554   3.617   2.274   2.701 -0.0487 -0.1350  0.3582
16380TIP3    H170555   3.544   2.260   2.640  0.1508 -0.7642  0.2533
16380TIP3    H270556   3.584   2.337   2.765 -0.7320 -0.5246  0.3917
16381TIP3   OH270557   0.481   2.870   1.923 -0.6011  0.2453  0.2688
16381TIP3    H170558   0.551   2.916   1.969  1.6199 -0.6061 -2.0434
16381TIP3    H270559   0.473   2.786   1.969  0.0570  0.2557  0.4045
16382TIP3   OH270560   6.672   1.163   4.715  0.0935  0.0125  0.1240
16382TIP3    H170561   6.578   1.172   4.728  0.0791 -1.4863  1.4221
16382TIP3    H270562   6.680   1.096   4.647  0.2114 -0.2578  0.4004
16383TIP3   OH270563   4.715   0.258   3.767  0.0871 -0.3124  0.0198
16383TIP3    H170564   4.688   0.178   3.722 -3.7819 -0.4425  2.0890
16383TIP3    H270565   4.803   0.239   3.800 -0.3690 -3.4103 -0.2365
16384TIP3   OH270566   5.014   2.065   4.647 -0.1981  0.3787 -0.0758
16384TIP3    H170567   4.923   2.037   4.636  0.1857 -0.4502 -1.3690
16384TIP3    H270568   5.025   2.135   4.583  0.1453  0.2824 -0.1214
16385TIP3   OH270569   1.026   5.790  14.271 -0.0056  0.1109  0.5577
16385TIP3    H170570   1.004   5.878  14.303 -2.1735 -0.7730  1.7172
16385TIP3    H270571   1.085   5.755  14.337 -0.4294  0.1263  0.9514
16386TIP3   OH270572   1.369   3.949  11.938  0.2109  0.5971 -0.3513
16386TIP3    H170573   1.441   3.918  11.992 -1.3719 -2.3509  0.2834
16386TIP3    H270574   1.306   3.985  12.001  0.3894  1.5769 -0.7265
16387TIP3   OH270575   4.685   1.285  16.756 -0.1281 -0.0460 -0.1190
16387TIP3    H170576   4.653   1.204  16.717  0.7554 -0.8676  0.8287
16387TIP3    H270577   4.728   1.258  16.837 -3.0665  1.6952  2.2773
16388TIP3   OH270578   4.800   3.685  13.066 -0.2305 -0.3691  0.8844
16388TIP3    H170579   4.718   3.646  13.097 -0.8707 -1.4395 -1.8496
16388TIP3    H270580   4.845   3.614  13.021  1.1630  0.7556  0.4223
16389TIP3   OH270581   2.102   2.921   4.215  0.1161 -0.2494 -0.1450
16389TIP3    H170582   2.192   2.908   4.186 -0.3648 -1.2976 -1.2869
16389TIP3    H270583   2.049   2.890   4.141 -1.1796 -0.2912  0.7731
16390TIP3   OH270584   4.268   2.720   3.498 -0.2125 -0.3823 -0.2237
16390TIP3    H170585   4.180   2.698   3.468 -0.4950  0.1114  0.2139
16390TIP3    H270586   4.254   2.785   3.567  0.3940 -1.5789  1.0843
16391TIP3   OH270587   0.391   2.880   4.917  0.4178 -0.4325  0.3811
16391TIP3    H170588   0.414   2.942   4.985  0.9897  1.1529 -1.1919
16391TIP3    H270589   0.468   2.823   4.909  1.2807  0.8007 -0.4491
16392TIP3   OH270590   2.556   6.403  11.908  0.1633  0.5461  0.8055
16392TIP3    H170591   2.599   6.485  11.933 -1.1001  1.3572  0.4562
16392TIP3    H270592   2.500   6.428  11.835 -0.5440 -0.5586  0.9522
16393TIP3   OH270593   0.434   3.792   0.240 -0.3978  0.1243  0.2414
16393TIP3    H170594   0.393   3.748   0.166  1.4736  0.7279 -1.2267
16393TIP3    H270595   0.366   3.794   0.308 -1.1299 -3.3660 -0.2248
16394TIP3   OH270596   1.235   2.949  14.131 -0.4529 -0.1704  0.0982
16394TIP3    H170597   1.328   2.949  14.110 -0.4335  0.0072  0.1851
16394TIP3    H270598   1.191   2.959  14.047 -0.3882  0.0151  0.0872
16395TIP3   OH270599   3.818   4.615   4.253 -0.1341  0.3771 -0.0397
16395TIP3    H170600   3.833   4.570   4.336  0.8556  0.5464 -0.1178
16395TIP3    H270601   3.835   4.549   4.186  0.3275  0.5787 -0.1286
16396TIP3   OH270602   1.143   4.612   0.910  0.4360 -0.2522  0.0527
16396TIP3    H170603   1.052   4.613   0.878  0.2422  0.7484  0.5707
16396TIP3    H270604   1.165   4.705   0.920  1.7996 -0.4608 -0.8271
16397TIP3   OH270605   1.887   6.720   2.772  0.2131 -0.0853  0.5144
16397TIP3    H170606   1.959   6.736   2.834 -0.6706  0.7794  1.3689
16397TIP3    H270607   1.871   6.805   2.732 -2.4727  0.6297  2.7779
16398TIP3   OH270608   3.899   5.373  12.866  0.3229 -0.5138  0.2126
16398TIP3    H170609   3.817   5.334  12.895 -0.7764 -0.0140 -2.0398
16398TIP3    H270610   3.942   5.305  12.815 -1.1146  0.6912 -2.8463
16399TIP3   OH270611   3.560   2.795  11.657  0.3788 -0.1191  0.1608
16399TIP3    H170612   3.526   2.790  11.746 -0.6503  0.1970 -0.2013
16399TIP3    H270613   3.592   2.706  11.638  1.3994  0.0179  1.1287
16400TIP3   OH270614   4.458   6.488   4.808 -0.0875  0.3001  0.3692
16400TIP3    H170615   4.515   6.547   4.759 -0.5925 -1.3219 -2.3556
16400TIP3    H270616   4.370   6.524   4.795 -0.3089 -0.5774 -0.6117
16401TIP3   OH270617   0.921   5.392   0.846  1.0606  0.1848 -0.1817
16401TIP3    H170618   0.894   5.408   0.937 -3.1358 -0.7634 -1.0474
16401TIP3    H270619   0.944   5.299   0.843 -0.6719 -0.2707 -0.3804
16402TIP3   OH270620   2.709   4.437  14.329  0.2868 -0.3807 -0.2936
16402TIP3    H170621   2.636   4.482  14.371 -0.6049 -0.7678 -1.3842
16402TIP3    H270622   2.746   4.382  14.398 -1.1208 -0.9896  0.0196
16403TIP3   OH270623   0.011   2.343  14.125  0.2297  0.0744  0.7834
16403TIP3    H170624   0.003   2.345  14.220  0.3200  0.4700  0.7828
16403TIP3    H270625   0.090   2.392  14.105  1.0135 -1.2247  0.5827
16404TIP3   OH270626   2.361   1.484  16.810  0.1501 -0.1202 -0.5167
16404TIP3    H170627   2.269   1.484  16.834  0.3529  1.4256  0.3734
16404TIP3    H270628   2.366   1.536  16.730  0.4065  1.0259  0.2228
16405TIP3   OH270629   0.231   6.650   0.734  0.3355  0.2862 -0.5172
16405TIP3    H170630   0.246   6.740   0.707 -1.5165  1.1456  1.0834
16405TIP3    H270631   0.145   6.628   0.697  0.3030 -0.4572 -0.0293
16406TIP3   OH270632   6.517   5.987  11.690 -0.0026  0.3929 -0.1970
16406TIP3    H170633   6.462   6.012  11.616  1.4974  2.9927 -0.5508
16406TIP3    H270634   6.551   5.900  11.667 -0.3304  0.7340 -2.0833
16407TIP3   OH270635   4.212   2.216   3.962 -0.0954  1.1202  0.2559
16407TIP3    H170636   4.118   2.211   3.976 -0.0280  0.2901  0.4679
16407TIP3    H270637   4.239   2.125   3.947  0.5399  1.4409 -0.6764
16408TIP3   OH270638   2.057   6.745   2.289  0.0626 -0.1789  0.5005
16408TIP3    H170639   2.101   6.830   2.282 -0.5584  0.4153  2.9050
16408TIP3    H270640   2.112   6.695   2.349 -0.2195 -1.0599  0.0418
16409TIP3   OH270641   1.028   3.449   2.916 -0.6684 -0.3563  0.4044
16409TIP3    H170642   1.033   3.354   2.911  1.2868 -0.2319 -1.4418
16409TIP3    H270643   0.979   3.475   2.838 -0.2163  0.1969  0.2968
16410TIP3   OH270644   4.209   5.946  13.430 -0.5370 -0.4186  0.1685
16410TIP3    H170645   4.242   5.856  13.429  3.6333  0.8655  1.4059
16410TIP3    H270646   4.155   5.951  13.508 -0.3417 -1.6970  0.4072
16411TIP3   OH270647   1.339   5.256  14.718  0.3104  0.6544 -0.3791
16411TIP3    H170648   1.375   5.260  14.806 -1.4832 -0.3308  0.4731
16411TIP3    H270649   1.279   5.331  14.713 -1.5188 -0.6727  0.2473
16412TIP3   OH270650   4.055   3.041  12.135  0.2115  0.2731 -0.1926
16412TIP3    H170651   3.999   3.001  12.202  0.0862 -1.7964 -1.4296
16412TIP3    H270652   4.105   3.108  12.182 -1.0471  0.0348  1.5955
16413TIP3   OH270653   2.033   2.448   2.708 -0.0005  0.2389 -0.0746
16413TIP3    H170654   2.053   2.468   2.800 -1.0522  3.2535 -0.4013
16413TIP3    H270655   2.018   2.353   2.707  1.9216 -0.2027  2.4529
16414TIP3   OH270656   0.911   2.306   1.727 -0.2874  0.1364 -0.3883
16414TIP3    H170657   1.003   2.325   1.709 -0.3354  0.5386 -0.2175
16414TIP3    H270658   0.912   2.244   1.799 -0.0918 -1.3735 -1.6295
16415TIP3   OH270659   3.557   5.665   5.877 -0.0069 -0.4582 -0.6010
16415TIP3    H170660   3.521   5.590   5.831 -0.6340 -1.2636  1.1123
16415TIP3    H270661   3.650   5.643   5.890 -0.0024 -0.5593 -0.8022
16416TIP3   OH270662   5.030   3.760   2.197 -0.5965  0.3947  0.1573
16416TIP3    H170663   5.073   3.674   2.200 -1.3094  0.0536  2.9556
16416TIP3    H270664   5.101   3.822   2.213 -0.6429  0.0266  1.9391
16417TIP3   OH270665   0.047   5.362  16.240  0.2654  0.0137 -0.2405
16417TIP3    H170666   0.135   5.391  16.264  0.4892 -0.2837 -0.6761
16417TIP3    H270667   0.059   5.273  16.208 -0.0107  0.3766 -1.4112
16418TIP3   OH270668   0.273   4.549  14.235  0.3255  0.1152 -0.3731
16418TIP3    H170669   0.200   4.605  14.261  0.4032  0.5826 -1.1326
16418TIP3    H270670   0.244   4.507  14.154  0.1875 -1.1252  0.2835
16419TIP3   OH270671   5.844   6.415   0.057  0.1576 -0.1465  0.3226
16419TIP3    H170672   5.872   6.398  -0.032 -0.4181  0.4238  0.0279
16419TIP3    H270673   5.855   6.331   0.102 -0.5625 -0.7172 -0.5467
16420TIP3   OH270674   6.096   3.835   0.602 -0.6253 -0.2648 -0.2060
16420TIP3    H170675   6.045   3.755   0.589 -2.1613  0.6378  0.0196
16420TIP3    H270676   6.163   3.832   0.534  0.0207 -2.2275  0.4358
16421TIP3   OH270677   1.054   2.572   5.562 -0.1475  0.0141  0.6677
16421TIP3    H170678   0.963   2.555   5.536  0.8003 -2.7218 -1.2679
16421TIP3    H270679   1.085   2.638   5.501 -0.6768  0.6366  1.0581
16422TIP3   OH270680   3.235   4.585  14.778  0.8331  0.1437 -0.0179
16422TIP3    H170681   3.212   4.585  14.871 -0.8457 -0.0699 -0.4002
16422TIP3    H270682   3.316   4.637  14.773  0.5501  0.7694  1.4617
16423TIP3   OH270683   2.112   3.173   4.780 -0.5441 -0.1065  0.1072
16423TIP3    H170684   2.173   3.231   4.735 -1.4441  0.0814 -0.9245
16423TIP3    H270685   2.054   3.142   4.711 -0.2028 -2.1007  0.6660
16424TIP3   OH270686   2.531   5.027  14.262 -0.1305  0.0562 -0.0068
16424TIP3    H170687   2.447   5.051  14.301 -0.5061  0.1090 -0.8372
16424TIP3    H270688   2.532   5.071  14.178 -0.1520 -1.5361 -0.8770
16425TIP3   OH270689   5.738   6.137   4.041  0.2718  0.1555  0.0531
16425TIP3    H170690   5.655   6.124   3.994  0.0983 -0.7297  0.5866
16425TIP3    H270691   5.804   6.137   3.972 -0.2238  1.5412 -0.4478
16426TIP3   OH270692   4.823   6.783   3.209  0.0111  0.3057  0.0803
16426TIP3    H170693   4.741   6.826   3.182 -0.0361  0.7537  0.9022
16426TIP3    H270694   4.861   6.752   3.127 -0.9895  0.0776 -0.3154
16427TIP3   OH270695   1.443   2.686  12.565  0.0668 -0.2441 -0.1686
16427TIP3    H170696   1.520   2.658  12.614  1.4431  2.2254 -0.7736
16427TIP3    H270697   1.440   2.626  12.490  1.6056 -0.1852 -0.3071
16428TIP3   OH270698   3.732   4.044  13.963  0.1353 -0.1332 -0.7834
16428TIP3    H170699   3.807   3.985  13.960 -0.4464 -1.0612  1.2680
16428TIP3    H270700   3.711   4.053  14.056 -0.2521  2.7822 -1.0354
16429TIP3   OH270701   3.764   0.822  14.252 -0.3811 -0.0223  0.8465
16429TIP3    H170702   3.798   0.827  14.162  0.3771 -0.3201  1.1173
16429TIP3    H270703   3.669   0.811  14.240 -0.2020 -0.8438  0.0685
16430TIP3   OH270704   1.928   6.729  14.974 -0.3241  0.3279 -0.1509
16430TIP3    H170705   2.004   6.737  14.916 -0.9707  0.7507 -0.9607
16430TIP3    H270706   1.902   6.819  14.992 -1.2198  0.1872 -0.6826
16431TIP3   OH270707   2.222   1.760   1.586 -0.2749 -0.3625  0.7724
16431TIP3    H170708   2.281   1.685   1.581  0.0122 -0.0755 -0.3324
16431TIP3    H270709   2.197   1.765   1.679  1.2420 -0.6322  1.2146
16432TIP3   OH270710   3.206   1.291  11.939  0.1558 -0.4868 -0.1669
16432TIP3    H170711   3.285   1.273  11.889  0.2436  0.3175 -0.3424
16432TIP3    H270712   3.171   1.371  11.900  1.5753  1.6427  2.5608
16433TIP3   OH270713   4.032   4.390  16.518 -0.0426  0.2088 -0.0803
16433TIP3    H170714   3.962   4.374  16.581  1.3054 -2.0344  0.9880
16433TIP3    H270715   4.026   4.483  16.499 -2.5039  0.3474  0.8978
16434TIP3   OH270716   0.428   6.417  12.280 -0.1758  0.4650  0.1214
16434TIP3    H170717   0.480   6.403  12.201 -0.6177  2.0001 -0.4650
16434TIP3    H270718   0.356   6.355  12.273  0.3328 -0.1061 -0.1685
16435TIP3   OH270719   0.684   5.749   1.038  0.4319  0.3534  0.0391
16435TIP3    H170720   0.770   5.755   0.997 -0.2626 -0.0435 -1.5758
16435TIP3    H270721   0.647   5.837   1.028  1.1506  0.9212  1.9933
16436TIP3   OH270722   0.751   1.552  11.829 -0.3801  0.4397  0.1434
16436TIP3    H170723   0.742   1.639  11.869 -0.3430 -0.3739  2.0609
16436TIP3    H270724   0.821   1.562  11.765  0.0195  1.7159  0.7389
16437TIP3   OH270725   1.000   4.908  16.327 -0.3304  0.1495  0.6086
16437TIP3    H170726   1.056   4.899  16.404  0.8363 -1.1104 -0.3291
16437TIP3    H270727   1.024   4.993  16.289  2.1545 -0.9784 -0.6046
16438TIP3   OH270728   3.135   6.445   0.049 -0.1675  0.2295  0.8609
16438TIP3    H170729   3.207   6.475   0.105 -0.0508  0.4537  0.5951
16438TIP3    H270730   3.178   6.414  -0.031 -0.3686  0.4562  0.6605
16439TIP3   OH270731   5.317   5.372   2.126  0.1705 -0.4882  0.0229
16439TIP3    H170732   5.281   5.286   2.106  0.8583 -1.6793  3.3175
16439TIP3    H270733   5.396   5.377   2.072 -0.0465 -1.7790 -0.4674
16440TIP3   OH270734   0.917   6.586  15.672 -0.1451 -0.1540  0.0472
16440TIP3    H170735   0.931   6.671  15.631 -2.0145 -0.3511 -1.1099
16440TIP3    H270736   0.926   6.603  15.766  3.4374  0.4715 -0.2506
16441TIP3   OH270737   1.667   1.498   3.924  0.2359  0.2989  0.1366
16441TIP3    H170738   1.577   1.503   3.891 -0.3838  0.4898  1.7713
16441TIP3    H270739   1.703   1.420   3.883 -1.6702 -1.5233  1.7062
16442TIP3   OH270740   3.627   2.351   2.314 -0.0603  0.2030  0.1242
16442TIP3    H170741   3.629   2.410   2.389 -1.0087  2.5261 -1.5614
16442TIP3    H270742   3.627   2.409   2.238 -0.7419 -2.0102 -1.6726
16443TIP3   OH270743   4.341   2.225   1.949  0.0312 -0.2316  0.4175
16443TIP3    H170744   4.354   2.309   1.992 -0.8582 -1.2866  2.9508
16443TIP3    H270745   4.425   2.180   1.959  0.2780  0.0599 -0.2867
16444TIP3   OH270746   3.274   5.497  12.385 -0.2674 -0.2378 -0.1924
16444TIP3    H170747   3.284   5.404  12.367  1.0533  0.1422 -1.6405
16444TIP3    H270748   3.222   5.501  12.465 -0.7302 -2.1971 -0.3540
16445TIP3   OH270749   3.405   0.113  15.717 -0.1887 -0.4406 -0.2701
16445TIP3    H170750   3.469   0.181  15.697  1.2076 -1.5092  0.4057
16445TIP3    H270751   3.457   0.041  15.751 -1.7109 -1.5827 -0.2830
16446TIP3   OH270752   0.293   6.785  13.950  0.0722  0.0730  1.2189
16446TIP3    H170753   0.302   6.771  14.045 -0.1172  1.9937  1.5558
16446TIP3    H270754   0.221   6.848  13.942  0.6654  0.6106 -0.1303
16447TIP3   OH270755   1.191   0.194   0.997  0.2010  0.0832  0.8571
16447TIP3    H170756   1.202   0.107   1.035 -0.3613 -0.3220  0.1195
16447TIP3    H270757   1.135   0.180   0.921 -1.1286  1.2992  1.5575
16448TIP3   OH270758   4.860   1.989   3.839 -0.0494  0.1467 -0.0051
16448TIP3    H170759   4.896   2.065   3.794  2.0793  0.2309  1.6390
16448TIP3    H270760   4.917   1.916   3.813 -2.2578 -1.0583 -1.8287
16449TIP3   OH270761   2.984   6.544  12.892 -0.5858 -0.3556 -0.6257
16449TIP3    H170762   3.019   6.490  12.963 -0.1589  0.7207  0.0067
16449TIP3    H270763   2.934   6.483  12.838 -0.6228 -1.2712  0.4006
16450TIP3   OH270764   4.386   6.741  13.019 -0.3184 -0.3214  0.1245
16450TIP3    H170765   4.322   6.674  12.993  1.0751 -1.0913 -1.5631
16450TIP3    H270766   4.465   6.719  12.969  0.9690  1.1628  1.4011
16451TIP3   OH270767   4.051   5.454  16.039  0.0038 -0.2776 -0.1831
16451TIP3    H170768   4.041   5.503  15.957 -0.0903 -1.4682 -0.8986
16451TIP3    H270769   4.085   5.519  16.101  0.2268  0.6111 -1.1957
16452TIP3   OH270770   3.725   4.644  14.596  0.3454  0.2988 -0.0151
16452TIP3    H170771   3.789   4.715  14.596 -0.9632  1.5162 -1.2754
16452TIP3    H270772   3.765   4.576  14.541  1.8467 -0.2566  1.6458
16453TIP3   OH270773   4.867   1.981   4.384  0.3476 -0.3752 -1.3663
16453TIP3    H170774   4.807   1.907   4.378  0.6318 -0.9473  1.5075
16453TIP3    H270775   4.814   2.051   4.423  1.0130 -0.2812 -0.5913
16454TIP3   OH270776   6.327   6.267  11.137 -0.5380  0.2583  0.1837
16454TIP3    H170777   6.413   6.252  11.176  0.1323  2.7016 -0.1977
16454TIP3    H270778   6.338   6.242  11.045 -0.2351  0.5436  0.1400
16455TIP3   OH270779   1.296   6.205  13.152 -0.3261  0.3313  0.2496
16455TIP3    H170780   1.315   6.298  13.164 -1.5091  0.5262  0.7430
16455TIP3    H270781   1.222   6.188  13.210 -1.2152 -0.5260 -1.0726
16456TIP3   OH270782   1.293   0.726  15.268  0.0893 -0.4052  0.1288
16456TIP3    H170783   1.354   0.659  15.301 -0.1965 -0.2857  0.9251
16456TIP3    H270784   1.221   0.676  15.230  0.1084 -0.5460  0.2763
16457TIP3   OH270785   5.235   3.865   5.372  0.6775 -0.2708  0.3894
16457TIP3    H170786   5.291   3.799   5.331 -0.7405 -2.6795  2.0419
16457TIP3    H270787   5.245   3.848   5.466 -1.9372 -0.0698  0.7573
16458TIP3   OH270788   4.723   6.722   4.325 -0.4312 -0.2298  0.0732
16458TIP3    H170789   4.684   6.717   4.238  1.2267 -1.0293 -0.6522
16458TIP3    H270790   4.809   6.760   4.312  0.0273 -0.7836  1.2921
16459TIP3   OH270791   6.328   3.532   6.243 -0.8466  0.6024 -0.0618
16459TIP3    H170792   6.361   3.621   6.251  2.4290 -0.6153  1.9255
16459TIP3    H270793   6.286   3.514   6.327 -1.7252  0.3383 -0.5472
16460TIP3   OH270794   5.476   6.037   2.489 -0.0270  0.2512  0.0512
16460TIP3    H170795   5.448   6.112   2.437 -1.7217 -0.9134 -0.8322
16460TIP3    H270796   5.559   6.010   2.450 -0.5964  0.2337 -1.1839
16461TIP3   OH270797   2.815   1.180   0.250 -0.0786 -0.0628 -0.6868
16461TIP3    H170798   2.843   1.120   0.181  1.6419  1.1747 -1.1322
16461TIP3    H270799   2.726   1.151   0.272 -0.0013 -1.5956 -2.1517
16462TIP3   OH270800   5.291   6.058  11.847 -0.0823 -0.7281  0.2220
16462TIP3    H170801   5.329   5.971  11.859  0.9741 -0.4891 -1.0896
16462TIP3    H270802   5.297   6.100  11.933  3.5389 -0.3902 -0.0384
16463TIP3   OH270803   6.060   3.743   0.280  0.4180  0.0911  0.7910
16463TIP3    H170804   6.071   3.736   0.375  1.5978 -0.7841  0.6172
16463TIP3    H270805   6.056   3.652   0.250  1.0970  0.3294 -0.0851
16464TIP3   OH270806   1.490   2.038   0.755 -0.1182 -0.6314 -0.6370
16464TIP3    H170807   1.467   1.972   0.820 -2.2914  2.0016  1.4997
16464TIP3    H270808   1.410   2.051   0.704  0.5076 -0.2176 -1.5459
16465TIP3   OH270809   5.626   3.093   1.276 -0.5583 -0.3311  0.0170
16465TIP3    H170810   5.570   3.043   1.336 -0.2046 -0.5499  0.1682
16465TIP3    H270811   5.696   3.127   1.331 -0.2401 -0.5170 -0.2662
16466TIP3   OH270812   4.265   5.797   6.675  0.2373 -0.0583 -0.1381
16466TIP3    H170813   4.351   5.809   6.713  0.3861 -1.0790 -0.1339
16466TIP3    H270814   4.206   5.785   6.750 -0.0739  1.5335 -0.0985
16467TIP3   OH270815   1.771   2.591  11.859 -0.0739 -0.4818 -0.1388
16467TIP3    H170816   1.783   2.617  11.767  0.2138 -0.8707 -0.2138
16467TIP3    H270817   1.820   2.509  11.867 -0.0197 -0.4002  0.3869
16468TIP3   OH270818   5.479   3.542   3.568 -0.2304  0.2848 -0.1460
16468TIP3    H170819   5.433   3.617   3.605  1.1484  0.6202  0.9825
16468TIP3    H270820   5.439   3.465   3.609 -1.1687  0.4364 -0.7665
16469TIP3   OH270821   4.299   0.023   1.272  0.2172 -0.1311 -0.1554
16469TIP3    H170822   4.346   0.024   1.355 -0.0272  1.1573 -0.0110
16469TIP3    H270823   4.339  -0.049   1.222  3.0563  1.5205 -0.4587
16470TIP3   OH270824   4.375   1.507   5.775  0.3851 -0.3707  0.4432
16470TIP3    H170825   4.313   1.569   5.736  1.2903 -0.5389 -1.3980
16470TIP3    H270826   4.459   1.529   5.733  0.9225 -2.1663  0.5116
16471TIP3   OH270827   6.734   2.063   4.161  0.2217  0.0289 -0.1030
16471TIP3    H170828   6.677   2.139   4.154  1.4309  0.9169 -0.6019
16471TIP3    H270829   6.819   2.093   4.129  0.6043 -1.6760 -0.8301
16472TIP3   OH270830   2.896   4.270   0.347 -0.4568 -0.1740 -0.3530
16472TIP3    H170831   2.870   4.362   0.348 -0.3016 -0.1312 -0.0646
16472TIP3    H270832   2.889   4.243   0.439 -2.3287 -0.9663 -0.6808
16473TIP3   OH270833   2.243   1.797  13.844 -0.5206  0.4211  0.3607
16473TIP3    H170834   2.317   1.857  13.857  0.7255 -0.7533 -0.9642
16473TIP3    H270835   2.271   1.715  13.886  0.4067 -1.0549 -2.8544
16474TIP3   OH270836   4.120   2.760  11.763 -0.0186  0.3785  0.1625
16474TIP3    H170837   4.103   2.665  11.759 -0.5950  0.4694  0.3097
16474TIP3    H270838   4.034   2.800  11.752 -0.1592  0.8444  2.3494
16475TIP3   OH270839   4.080   3.181   0.696  0.1178 -0.3553 -0.1166
16475TIP3    H170840   4.112   3.229   0.620 -0.4886 -0.8168 -0.6811
16475TIP3    H270841   4.052   3.096   0.661 -0.0957 -0.6075  0.6351
16476TIP3   OH270842   1.136   1.692   4.616 -0.1331  0.7155 -0.0624
16476TIP3    H170843   1.217   1.733   4.646  0.8159  0.1019 -1.6456
16476TIP3    H270844   1.158   1.600   4.604 -0.5010  0.8516 -2.2659
16477TIP3   OH270845   3.108   2.589  15.897  0.2465  0.2051 -0.0401
16477TIP3    H170846   3.043   2.644  15.940 -1.2002 -1.2993 -0.1846
16477TIP3    H270847   3.070   2.569  15.811  1.6570  0.5983 -0.7898
16478TIP3   OH270848   1.826   4.067  14.715 -0.2423  0.6390  0.6225
16478TIP3    H170849   1.884   4.050  14.641 -0.1123  0.2448  0.8064
16478TIP3    H270850   1.848   4.155  14.744  0.9304  0.1655  1.2661
16479TIP3   OH270851   1.343   3.876  11.012 -0.2144  0.0424  0.0010
16479TIP3    H170852   1.428   3.920  11.014  0.0159 -0.3484  2.7823
16479TIP3    H270853   1.364   3.783  11.020 -0.8793 -0.1540 -0.4215
16480TIP3   OH270854   5.341   4.725  13.836 -0.1689 -0.3024  0.0104
16480TIP3    H170855   5.411   4.665  13.860  0.4976  0.4688  0.0537
16480TIP3    H270856   5.367   4.760  13.751  0.6044  1.5672  0.9553
16481TIP3   OH270857   2.505   3.015  13.449 -0.5069 -0.3566 -0.1335
16481TIP3    H170858   2.488   3.063  13.368 -0.6544  1.1660  0.7636
16481TIP3    H270859   2.538   2.930  13.420 -0.8255  0.0475 -1.7858
16482TIP3   OH270860   5.266   0.400  13.040  0.6052  0.2964  0.2678
16482TIP3    H170861   5.189   0.379  13.092  0.3654  0.8951  0.1641
16482TIP3    H270862   5.340   0.369  13.092  0.3907  1.1510  1.1186
16483TIP3   OH270863   5.221   4.234  16.367  0.2147 -0.1920  0.4717
16483TIP3    H170864   5.239   4.255  16.459  2.0865 -1.6169  0.5071
16483TIP3    H270865   5.295   4.272  16.319 -0.2079 -0.3377 -0.3156
16484TIP3   OH270866   1.168   2.547   1.271  0.0568 -0.0483 -0.3799
16484TIP3    H170867   1.115   2.554   1.351 -0.1659 -0.7479 -0.4553
16484TIP3    H270868   1.254   2.580   1.296  0.1168 -0.6796  0.2830
16485TIP3   OH270869   4.483   6.653  14.169  0.0420  0.2689 -0.0972
16485TIP3    H170870   4.527   6.709  14.233 -0.3225  1.6702 -1.0107
16485TIP3    H270871   4.407   6.705  14.141 -1.6278 -1.6319  0.6583
16486TIP3   OH270872   5.204   0.869  14.031 -0.6063  0.0098  0.2486
16486TIP3    H170873   5.114   0.875  13.997 -1.0796 -0.0472  1.4380
16486TIP3    H270874   5.242   0.795  13.984 -0.6669  0.9603 -1.3686
16487TIP3   OH270875   3.276   5.783   0.916  0.2081  0.0837 -0.0915
16487TIP3    H170876   3.278   5.799   1.011 -0.5028  0.8371 -0.1860
16487TIP3    H270877   3.363   5.807   0.886  0.4205 -0.0990  0.3607
16488TIP3   OH270878   1.533   0.949  11.047 -0.1120  0.2096  1.4855
16488TIP3    H170879   1.624   0.918  11.053  0.4684  1.1057 -1.3875
16488TIP3    H270880   1.483   0.872  11.019  0.2131  0.3144  0.6025
16489TIP3   OH270881   0.672   2.573   4.497 -0.3897 -0.6019  0.3706
16489TIP3    H170882   0.609   2.638   4.529 -0.0906  0.1665 -0.5590
16489TIP3    H270883   0.633   2.488   4.518 -2.0167 -0.1627 -0.7103
16490TIP3   OH270884   1.222   0.692   3.114  0.2553 -0.5071  0.1829
16490TIP3    H170885   1.303   0.644   3.096  0.1536 -0.8147  0.5310
16490TIP3    H270886   1.249   0.763   3.173  0.5075  0.2275 -0.7882
16491TIP3   OH270887   3.900   5.108  15.770 -0.3956  0.5051  0.3372
16491TIP3    H170888   3.989   5.111  15.804 -0.2386  1.7544 -0.1449
16491TIP3    H270889   3.858   5.038  15.820  0.5818  0.5208  1.2186
16492TIP3   OH270890   5.931   1.930   4.791 -0.5150 -0.2070  0.1872
16492TIP3    H170891   5.879   1.905   4.715  0.3893 -1.7976  0.0436
16492TIP3    H270892   5.968   2.015   4.767 -1.1726 -0.1439 -0.6582
16493TIP3   OH270893   3.822   4.954   1.985 -0.1771 -0.7503  0.4655
16493TIP3    H170894   3.760   4.996   1.926 -1.7083 -1.4434  1.5155
16493TIP3    H270895   3.778   4.874   2.014  1.5065 -1.6503  0.7084
16494TIP3   OH270896   5.216   0.849   0.339 -0.5034  0.0206  0.2116
16494TIP3    H170897   5.128   0.818   0.321  0.3135 -1.8027 -0.9019
16494TIP3    H270898   5.210   0.944   0.331 -2.4745 -0.0202  0.7690
16495TIP3   OH270899   1.055   1.762  17.006  0.0254 -0.4539 -0.3411
16495TIP3    H170900   1.117   1.723  16.944  0.0004  1.0237 -1.3422
16495TIP3    H270901   1.004   1.824  16.953 -0.9365 -0.1629  0.8828
16496TIP3   OH270902   4.415   5.326  12.757 -0.0451 -0.4694  0.3575
16496TIP3    H170903   4.506   5.346  12.776  0.3575 -1.4302 -0.4811
16496TIP3    H270904   4.393   5.254  12.816 -0.1979 -0.3962  0.3938
16497TIP3   OH270905   0.628   1.015   5.225 -0.2277  0.0063 -0.4357
16497TIP3    H170906   0.653   1.014   5.133 -0.7690  0.8267 -0.6098
16497TIP3    H270907   0.569   1.090   5.232 -0.6316 -0.3851  0.4632
16498TIP3   OH270908   5.303   3.441  14.498  0.2800 -0.8198  0.1118
16498TIP3    H170909   5.392   3.461  14.468  1.5364 -1.0922  3.3194
16498TIP3    H270910   5.295   3.485  14.582 -1.9415 -2.3760  0.8138
16499TIP3   OH270911   3.235   1.820  11.422 -0.4170 -0.2301 -0.4366
16499TIP3    H170912   3.235   1.895  11.481  0.4359 -0.1804 -0.4984
16499TIP3    H270913   3.144   1.815  11.391 -0.8513 -0.1854  0.7698
16500TIP3   OH270914   5.628   2.186   0.699 -0.7831 -0.1469  0.1985
16500TIP3    H170915   5.543   2.147   0.718 -1.4278  1.5997  1.2060
16500TIP3    H270916   5.633   2.262   0.757  1.8222 -0.6311  0.7419
16501TIP3   OH270917   1.087   1.148   4.539 -0.1985 -0.0899 -0.0216
16501TIP3    H170918   1.165   1.098   4.563 -0.5283 -0.7722 -0.3271
16501TIP3    H270919   1.042   1.092   4.475 -1.5754 -0.2875  1.0713
16502TIP3   OH270920   0.779   5.965  12.725 -0.0460 -0.1843  0.0950
16502TIP3    H170921   0.736   6.046  12.753  0.5445  0.9556 -2.0466
16502TIP3    H270922   0.781   5.911  12.803  1.6323  2.7689  2.3218
16503TIP3   OH270923   0.274   0.620   0.391 -0.2454  0.0419 -0.6447
16503TIP3    H170924   0.196   0.661   0.428  0.9336 -0.1821  2.4357
16503TIP3    H270925   0.345   0.680   0.412  0.7023 -0.7926 -1.3515
16504TIP3   OH270926   2.356   2.283   2.037 -0.1950 -0.9273  0.3373
16504TIP3    H170927   2.346   2.196   2.000  1.0671 -0.8893 -0.1320
16504TIP3    H270928   2.422   2.273   2.105 -0.5810 -0.4716  0.7913
16505TIP3   OH270929   3.542   2.220   6.128  0.2702 -0.0519  0.3643
16505TIP3    H170930   3.498   2.135   6.141 -1.2730  0.8595  1.4983
16505TIP3    H270931   3.630   2.206   6.161  0.4445 -1.5557 -0.6186
16506TIP3   OH270932   6.090   6.744  15.586  0.2724  0.1608  0.0918
16506TIP3    H170933   6.084   6.834  15.618  1.0804  0.2736 -0.0439
16506TIP3    H270934   6.015   6.734  15.528 -0.6915  0.2576  1.2728
16507TIP3   OH270935   5.156   3.513   2.094 -0.0175 -0.4422  0.1735
16507TIP3    H170936   5.217   3.518   2.168  1.6497 -0.9310 -1.0963
16507TIP3    H270937   5.194   3.446   2.037 -1.9305 -0.9559 -0.5523
16508TIP3   OH270938   0.284   3.272  16.379  0.2437 -0.1156  0.3407
16508TIP3    H170939   0.273   3.367  16.380  0.9209 -0.0281  1.5666
16508TIP3    H270940   0.206   3.239  16.425 -0.3767 -0.2131 -0.7612
16509TIP3   OH270941   2.963   5.192  13.337 -0.0278  0.2699 -0.4848
16509TIP3    H170942   2.980   5.260  13.402 -0.6379  0.6522 -0.7142
16509TIP3    H270943   2.927   5.119  13.388  1.0476 -0.0682 -0.1755
16510TIP3   OH270944   4.711   5.172   5.414 -0.4503  0.1493 -0.5972
16510TIP3    H170945   4.670   5.259   5.413 -1.8958 -0.5049 -1.0836
16510TIP3    H270946   4.751   5.163   5.328  1.3990  1.0615  0.1118
16511TIP3   OH270947   4.906   3.715   2.757  0.1942  0.0104 -0.6054
16511TIP3    H170948   4.913   3.739   2.850  1.0124  1.5267 -1.0080
16511TIP3    H270949   4.886   3.622   2.757  0.4823 -0.0817  1.0964
16512TIP3   OH270950   3.175   2.366  11.827 -0.0060 -0.2138 -0.4452
16512TIP3    H170951   3.265   2.335  11.843  0.3671  0.6235 -0.8663
16512TIP3    H270952   3.158   2.426  11.899 -0.4686 -0.8246 -0.0266
16513TIP3   OH270953   5.592   3.270  11.622 -0.3796  0.5620  0.1411
16513TIP3    H170954   5.669   3.280  11.677  0.4207  1.2830 -1.0741
16513TIP3    H270955   5.530   3.335  11.656 -0.2147  0.4165  0.7260
16514TIP3   OH270956   6.382   0.610  15.643  0.8365 -0.1295  0.0212
16514TIP3    H170957   6.451   0.653  15.592  0.1954  1.9479  0.7827
16514TIP3    H270958   6.427   0.574  15.719  1.5568 -1.8655 -1.1768
16515TIP3   OH270959   6.251   0.514   5.172  0.1041  0.1540  0.3268
16515TIP3    H170960   6.166   0.539   5.207 -0.1945  2.7826 -1.9192
16515TIP3    H270961   6.232   0.475   5.087  1.0418 -2.2148  1.1080
16516TIP3   OH270962   3.409   1.871  17.048 -0.6109 -0.2299 -0.4304
16516TIP3    H170963   3.330   1.854  16.997 -0.3382 -1.8407 -0.3791
16516TIP3    H270964   3.376   1.893  17.135 -1.0174 -0.4008 -0.5381
16517TIP3   OH270965   5.305   0.516   1.802  0.1111  0.5408  0.0265
16517TIP3    H170966   5.250   0.521   1.724  0.6521 -1.1081 -0.4968
16517TIP3    H270967   5.252   0.555   1.871 -0.8539  0.9269 -0.8995
16518TIP3   OH270968   0.309   1.559  11.338 -0.2583 -0.4349  0.9524
16518TIP3    H170969   0.247   1.610  11.391  0.1763  0.8534  0.2745
16518TIP3    H270970   0.369   1.522  11.402 -0.0115  0.7265  1.4266
16519TIP3   OH270971   2.932   1.192   6.239  0.5392  0.2594  0.1315
16519TIP3    H170972   2.899   1.220   6.324  0.4061 -0.3613  0.2931
16519TIP3    H270973   2.855   1.161   6.192  0.0957  3.3334 -1.3819
16520TIP3   OH270974   5.504   5.689  14.485  0.8052  0.0132 -0.1535
16520TIP3    H170975   5.566   5.749  14.443  1.1904 -0.5984 -0.4712
16520TIP3    H270976   5.493   5.618  14.422  0.7291 -0.4901  0.4182
16521TIP3   OH270977   0.681   1.662   3.096  0.2587  0.3384 -0.2077
16521TIP3    H170978   0.639   1.738   3.137 -0.3523 -0.7902  1.3890
16521TIP3    H270979   0.771   1.665   3.127 -0.4056 -0.9778  2.0649
16522TIP3   OH270980   3.085   6.488  14.057 -0.3151 -0.3840  0.1338
16522TIP3    H170981   3.079   6.464  13.965 -0.9937 -1.0589  0.3456
16522TIP3    H270982   3.097   6.583  14.056 -1.0778 -0.2808 -0.6332
16523TIP3   OH270983   0.796   4.579  15.167 -0.3880  0.4481  0.1239
16523TIP3    H170984   0.830   4.490  15.175 -1.1437  0.1895  0.4931
16523TIP3    H270985   0.824   4.608  15.080 -0.9861 -0.5070 -0.4010
16524TIP3   OH270986   4.301   2.559  11.412 -0.4788  0.1482 -0.5032
16524TIP3    H170987   4.220   2.533  11.455  1.2665 -1.4699  2.1260
16524TIP3    H270988   4.303   2.507  11.331 -1.1517 -1.3406  0.3952
16525TIP3   OH270989   4.317   5.118   1.951 -0.1517  0.2957  0.0066
16525TIP3    H170990   4.299   5.137   1.859  0.3773 -0.0194 -0.1630
16525TIP3    H270991   4.397   5.167   1.971  0.6980 -0.9700 -0.1759
16526TIP3   OH270992   1.978   5.835   2.051 -0.3521  1.0266  0.1381
16526TIP3    H170993   1.957   5.744   2.029  1.0224  0.8355 -0.4909
16526TIP3    H270994   1.898   5.883   2.030 -0.2064  0.3564 -2.2318
16527TIP3   OH270995   2.122   6.605   1.906 -0.0126  0.3441  0.4528
16527TIP3    H170996   2.124   6.701   1.895 -0.6089  0.2800 -0.3037
16527TIP3    H270997   2.170   6.589   1.987  2.4628  1.0928 -0.7764
16528TIP3   OH270998   4.217   6.079  17.112 -0.1637  0.1799 -0.2534
16528TIP3    H170999   4.175   6.130  17.181  4.0524  0.5333  2.3774
16528TIP3    H271000   4.220   5.990  17.147  1.8011  0.3175  0.0503
16529TIP3   OH271001   1.944   4.097  15.909 -0.3798 -0.0419  0.4044
16529TIP3    H171002   1.976   4.013  15.941 -0.1023 -0.0024  0.2314
16529TIP3    H271003   2.016   4.158  15.925 -0.4263  0.0790  0.1522
16530TIP3   OH271004   2.904   6.103  11.501  0.1479  0.0856 -0.0178
16530TIP3    H171005   2.877   6.133  11.588 -0.9360  0.1726 -0.3790
16530TIP3    H271006   2.856   6.160  11.440 -0.7314 -1.3457 -0.6999
16531TIP3   OH271007   5.677   2.592   5.707  0.6046 -0.6220  0.1362
16531TIP3    H171008   5.657   2.508   5.750 -0.9888 -0.1643  0.3447
16531TIP3    H271009   5.760   2.619   5.747  0.1954 -1.1972  1.4545
16532TIP3   OH271010   5.323   2.718   4.048 -0.0024  0.0560 -0.1265
16532TIP3    H171011   5.230   2.729   4.066  0.0804  0.1501  0.2399
16532TIP3    H271012   5.337   2.624   4.048  0.2507  0.0547  1.6301
16533TIP3   OH271013   1.245   4.840  15.498  0.1551 -0.1342 -0.1050
16533TIP3    H171014   1.262   4.750  15.468  0.8423 -0.0440 -0.0144
16533TIP3    H271015   1.275   4.842  15.589  0.5999  0.3128 -0.2554
16534TIP3   OH271016   4.624   2.234  13.765 -0.0886 -0.7578 -0.3664
16534TIP3    H171017   4.561   2.285  13.816  0.9964 -0.6651  0.9671
16534TIP3    H271018   4.605   2.256  13.674 -1.1431  0.2394  0.0628
16535TIP3   OH271019   5.220   2.582  16.665 -0.0923 -0.4673 -0.2215
16535TIP3    H171020   5.132   2.551  16.686  0.2669 -2.0432 -0.9078
16535TIP3    H271021   5.248   2.527  16.591  1.8313 -0.6957  0.6132
16536TIP3   OH271022   5.204   5.174   5.749  0.4022 -0.0672  0.3991
16536TIP3    H171023   5.238   5.087   5.726  0.6648 -0.0027  0.5414
16536TIP3    H271024   5.144   5.157   5.822 -0.1117 -0.2184 -0.0530
16537TIP3   OH271025   2.495   3.473  16.785  0.7498 -0.2720 -0.3107
16537TIP3    H171026   2.533   3.540  16.729  0.0951  0.1885 -0.2115
16537TIP3    H271027   2.536   3.486  16.870 -0.3290  0.8705  0.0637
16538TIP3   OH271028   3.630   5.495  15.672 -0.5913  0.5427 -0.4191
16538TIP3    H171029   3.693   5.567  15.664  1.2724 -1.0788 -1.0300
16538TIP3    H271030   3.672   5.433  15.731 -1.0298 -1.1768 -1.8293
16539TIP3   OH271031   1.529   2.756   1.546  0.3514  0.1594 -0.1830
16539TIP3    H171032   1.452   2.802   1.512 -0.9375 -1.2918  0.6076
16539TIP3    H271033   1.492   2.686   1.600  2.2665 -0.1341  0.8042
16540TIP3   OH271034   1.888   0.694   4.118  0.2023  0.3145  0.3968
16540TIP3    H171035   1.935   0.612   4.130  1.0670  0.7775  0.2121
16540TIP3    H271036   1.897   0.739   4.201  1.7389  1.2339 -0.2277
16541TIP3   OH271037   0.778   4.796   4.872 -0.1572  0.8041  0.2263
16541TIP3    H171038   0.844   4.861   4.895  0.5650 -0.1818  1.0549
16541TIP3    H271039   0.722   4.789   4.950 -0.6160  0.8798 -0.0882
16542TIP3   OH271040   0.756   0.916   0.267  0.4350 -0.3356  0.4524
16542TIP3    H171041   0.765   0.954   0.354 -0.0528  0.7211  0.0588
16542TIP3    H271042   0.815   0.968   0.212 -0.2229 -0.1416 -0.0867
16543TIP3   OH271043   6.354   5.075   1.737 -0.5571 -0.1814  0.0796
16543TIP3    H171044   6.337   4.987   1.703  0.9278  0.2824 -2.0909
16543TIP3    H271045   6.289   5.130   1.694 -1.1025 -0.0962  0.9832
16544TIP3   OH271046   2.025   3.958   4.738  1.1682 -0.1868 -0.0070
16544TIP3    H171047   2.054   3.880   4.690  0.7985 -0.4355  0.1674
16544TIP3    H271048   2.101   3.982   4.792  1.2003 -0.5779  0.1287
16545TIP3   OH271049   3.278   3.014  15.821 -0.0791  0.1947  0.0368
16545TIP3    H171050   3.373   3.029  15.825 -0.3327  2.3979 -0.7585
16545TIP3    H271051   3.251   3.055  15.739 -1.9975  1.4228  1.2099
16546TIP3   OH271052   3.489   2.964  15.537  0.1533 -0.0547 -0.3026
16546TIP3    H171053   3.557   2.994  15.598 -0.1074  0.0572 -0.0678
16546TIP3    H271054   3.423   2.922  15.592  0.0033 -0.1123 -0.5253
16547TIP3   OH271055   4.252   6.210   3.122  0.0484  0.1364  0.2825
16547TIP3    H171056   4.246   6.114   3.129 -1.0135  0.1970  0.3008
16547TIP3    H271057   4.251   6.228   3.028  2.1712  0.0459  0.1828
16548TIP3   OH271058   4.906   1.891   0.634 -0.1675  0.0183 -0.1228
16548TIP3    H171059   4.970   1.863   0.700 -0.3291 -0.7190 -0.2682
16548TIP3    H271060   4.826   1.907   0.683 -0.1312  0.0161 -0.0624
16549TIP3   OH271061   5.502   0.315  14.201  0.0645 -0.3436 -0.0906
16549TIP3    H171062   5.539   0.368  14.271  0.0321 -0.5890  0.1169
16549TIP3    H271063   5.575   0.302  14.140  0.5085 -1.3162  0.6054
16550TIP3   OH271064   1.493   0.900   3.631  0.0317  0.3024 -0.4028
16550TIP3    H171065   1.556   0.950   3.578 -0.9159  1.7262 -0.2435
16550TIP3    H271066   1.449   0.844   3.568  0.8790 -0.1127 -0.6464
16551TIP3   OH271067   1.262   3.651   5.005 -0.7748 -0.8407 -0.2569
16551TIP3    H171068   1.245   3.594   5.080 -1.2126  0.2501  0.5122
16551TIP3    H271069   1.357   3.653   4.997 -0.7024 -0.5540  0.6146
16552TIP3   OH271070   4.443   2.434   2.577  0.5538 -0.0211  0.0363
16552TIP3    H171071   4.398   2.419   2.494  1.4428  1.1510 -0.6787
16552TIP3    H271072   4.464   2.346   2.609 -0.5900 -0.5154 -0.5238
16553TIP3   OH271073   1.924   1.899  11.305  0.1806  0.0651  0.0667
16553TIP3    H171074   1.930   1.876  11.398 -1.6914  1.7377  0.6789
16553TIP3    H271075   1.839   1.865  11.278  0.5467 -0.0671 -0.9466
16554TIP3   OH271076   4.920   2.236   1.417  0.2943 -0.0064 -0.7840
16554TIP3    H171077   4.828   2.230   1.394  0.1891 -1.1881 -0.1495
16554TIP3    H271078   4.927   2.313   1.473 -0.6833 -0.9630  0.7316
16555TIP3   OH271079   0.368   6.065   0.435  0.6668  0.3566 -0.0999
16555TIP3    H171080   0.382   6.089   0.526 -0.1389 -0.6309  0.3072
16555TIP3    H271081   0.377   6.147   0.387  0.3167  1.0343  0.9528
16556TIP3   OH271082   0.947   2.024  11.903  0.1824 -0.2395  0.9248
16556TIP3    H171083   0.862   2.052  11.869  1.9440  2.7973 -1.5652
16556TIP3    H271084   0.975   1.954  11.844  0.5345  0.6982 -0.0617
16557TIP3   OH271085   0.377   6.072   2.052  0.0167  0.3475  0.5222
16557TIP3    H171086   0.310   6.038   2.112 -0.3643  0.0116 -0.0896
16557TIP3    H271087   0.369   6.018   1.973 -0.3466  1.6163 -0.3314
16558TIP3   OH271088   2.434   5.029   3.720 -0.1720 -0.3367  0.3054
16558TIP3    H171089   2.404   4.968   3.653 -1.4618 -0.0027  0.5361
16558TIP3    H271090   2.520   5.057   3.691  0.2849 -1.9493 -0.0102
16559TIP3   OH271091   0.172   0.754   2.863 -0.4026  0.1220 -0.1894
16559TIP3    H171092   0.131   0.681   2.817  1.2068  0.4547 -2.3408
16559TIP3    H271093   0.108   0.825   2.858 -0.5117 -0.0413 -1.4582
16560TIP3   OH271094   4.610   2.826   1.540 -0.3626  0.0553 -0.3243
16560TIP3    H171095   4.705   2.837   1.533 -0.1848 -0.5104  0.9045
16560TIP3    H271096   4.578   2.913   1.565 -0.0968  0.0995 -0.1395
16561TIP3   OH271097   0.327   3.164   5.672  0.2022  0.0807  0.0410
16561TIP3    H171098   0.243   3.120   5.684  0.5824 -0.3848  1.1250
16561TIP3    H271099   0.382   3.131   5.743  1.7580 -0.6965 -1.4316
16562TIP3   OH271100   3.252   0.294  11.621  0.4493 -0.1339  0.4769
16562TIP3    H171101   3.287   0.383  11.613  2.4467 -0.8817  0.3100
16562TIP3    H271102   3.184   0.301  11.689  1.6293  1.2395  1.5940
16563TIP3   OH271103   5.405   3.528  16.618 -0.0612  0.3551  0.4380
16563TIP3    H171104   5.432   3.606  16.666  0.2754 -0.5888  1.8445
16563TIP3    H271105   5.310   3.527  16.625  0.0091 -0.0625  1.6204
16564TIP3   OH271106   3.610   1.650  13.925  0.3709 -0.9741 -0.1648
16564TIP3    H171107   3.604   1.677  13.834 -0.3307  2.3135  0.7273
16564TIP3    H271108   3.529   1.600  13.940 -1.6074  1.8898 -0.4441
16565TIP3   OH271109   4.580   2.208  16.062 -0.2797 -0.6646 -0.2496
16565TIP3    H171110   4.593   2.277  16.127 -1.1329 -0.6295 -0.1049
16565TIP3    H271111   4.526   2.248  15.994  0.0604 -0.8960 -0.6614
16566TIP3   OH271112   5.693   3.245  12.082  0.1562  0.0111  0.8098
16566TIP3    H171113   5.706   3.153  12.107  0.1426 -1.0300 -2.4870
16566TIP3    H271114   5.711   3.294  12.162 -2.0533 -2.9238  3.3524
16567TIP3   OH271115   3.711   3.461  14.273  0.1543 -0.3750  0.0975
16567TIP3    H171116   3.769   3.409  14.331 -1.3247 -0.6917  1.3583
16567TIP3    H271117   3.628   3.464  14.320 -0.1343  2.2694 -0.4484
16568TIP3   OH271118   3.984   1.899   3.559 -0.4693  0.2366  0.2926
16568TIP3    H171119   3.934   1.939   3.630 -1.2805 -2.0289  1.0957
16568TIP3    H271120   4.015   1.816   3.595  0.7998 -0.0873 -1.3902
16569TIP3   OH271121   3.488   0.552  16.741 -0.3710  0.3337  0.7517
16569TIP3    H171122   3.458   0.596  16.820 -0.2388  0.6245  0.6398
16569TIP3    H271123   3.583   0.559  16.743 -0.3344 -0.1324  0.8387
16570TIP3   OH271124   6.609   5.380   6.175  0.1436 -0.1065  0.4048
16570TIP3    H171125   6.665   5.318   6.222 -0.0920  0.0073  0.8321
16570TIP3    H271126   6.556   5.325   6.117 -0.8067 -0.4203  1.5249
16571TIP3   OH271127   6.167   0.536  13.960 -0.6323  0.1536 -0.4367
16571TIP3    H171128   6.162   0.476  14.034  1.7255  1.3759  0.8330
16571TIP3    H271129   6.261   0.555  13.951 -1.0136  1.3163 -2.7134
16572TIP3   OH271130   1.628   2.844  12.364  0.1899  0.4764  0.3833
16572TIP3    H171131   1.566   2.863  12.435  0.3933  2.4784  0.0808
16572TIP3    H271132   1.708   2.891  12.389  1.0823 -0.7951  0.0006
16573TIP3   OH271133   1.464   2.587  16.425 -0.8907 -0.9084  0.3505
16573TIP3    H171134   1.380   2.616  16.389 -0.0187  0.2517 -0.8402
16573TIP3    H271135   1.527   2.603  16.355  0.8822  1.3244  2.2747
16574TIP3   OH271136   1.838   6.665  15.259 -0.5043 -0.3619  0.5461
16574TIP3    H171137   1.866   6.587  15.210  0.7505  0.2983  0.1871
16574TIP3    H271138   1.913   6.723  15.257 -1.4458  0.9055  0.7468
16575TIP3   OH271139   1.433   6.286   1.588  0.4833 -0.2361 -0.3371
16575TIP3    H171140   1.402   6.332   1.666  1.0614 -0.7309  0.1947
16575TIP3    H271141   1.525   6.309   1.581  0.1874  0.7062 -1.5386
16576TIP3   OH271142   2.534   1.298  16.289 -0.1727 -0.1034 -0.5507
16576TIP3    H171143   2.566   1.213  16.256  0.2716  0.2380 -1.0218
16576TIP3    H271144   2.476   1.330  16.220 -1.0468 -0.4285  0.0224
16577TIP3   OH271145   5.163   5.654   3.277 -0.0574 -0.4855 -0.0681
16577TIP3    H171146   5.241   5.706   3.295  0.4057 -0.6045 -1.6246
16577TIP3    H271147   5.157   5.594   3.351  1.5185 -0.7012 -0.0810
16578TIP3   OH271148   2.637   2.043   1.700 -0.3981  0.2278  0.6520
16578TIP3    H171149   2.620   2.000   1.784 -0.3187  0.9321  1.0372
16578TIP3    H271150   2.566   2.107   1.692 -0.3011  0.2855  0.2648
16579TIP3   OH271151   2.974   0.759   3.477  0.8684 -0.0333  0.7061
16579TIP3    H171152   2.966   0.724   3.566 -1.3807  2.7016  1.7460
16579TIP3    H271153   2.889   0.741   3.437  0.9111  1.0979  0.0800
16580TIP3   OH271154   4.846   3.319   2.301 -1.2098  0.0371 -0.6220
16580TIP3    H171155   4.762   3.275   2.313 -1.3651  0.9239  2.4118
16580TIP3    H271156   4.826   3.412   2.309  0.0274  0.2772 -0.0195
16581TIP3   OH271157   5.524   5.477   4.499 -0.0061  0.1255 -1.1592
16581TIP3    H171158   5.515   5.384   4.519  0.4445  0.2619 -0.2971
16581TIP3    H271159   5.594   5.481   4.435  1.0046 -0.0091 -0.0925
16582TIP3   OH271160   0.646   4.390  15.404 -0.3665 -0.0676  0.6595
16582TIP3    H171161   0.719   4.429  15.451  0.0170  0.0021  0.0214
16582TIP3    H271162   0.651   4.297  15.425  0.3852 -0.1873  0.0165
16583TIP3   OH271163   2.637   3.308  12.838 -0.4299 -0.4886  0.0974
16583TIP3    H171164   2.719   3.278  12.798 -0.5528 -2.1670  1.0214
16583TIP3    H271165   2.660   3.331  12.928 -0.7211  0.4292 -0.0482
16584TIP3   OH271166   1.227   5.687  13.215  0.2561 -0.1157 -0.1854
16584TIP3    H171167   1.230   5.681  13.119 -0.1762 -1.0513 -0.1511
16584TIP3    H271168   1.279   5.765  13.235 -1.6486  1.5417 -1.3236
16585TIP3   OH271169   1.970   2.530  13.668  0.2475 -0.0998 -0.6475
16585TIP3    H171170   2.063   2.511  13.684  1.3231  2.2929 -3.2050
16585TIP3    H271171   1.949   2.602  13.727 -0.4285 -1.4194  0.8001
16586TIP3   OH271172   0.270   1.398  15.073  0.0124  0.4151  0.2381
16586TIP3    H171173   0.297   1.490  15.077 -0.6576  0.5910  0.9238
16586TIP3    H271174   0.230   1.389  14.986  0.8752  0.5399 -0.1802
16587TIP3   OH271175   1.550   4.575   0.118 -0.2359 -0.0809  0.6288
16587TIP3    H171176   1.461   4.576   0.083 -0.9560 -3.9132  1.8688
16587TIP3    H271177   1.539   4.565   0.213  1.5843  1.2163  1.0392
16588TIP3   OH271178   0.418   3.994  13.306 -0.1028 -0.5090 -0.7402
16588TIP3    H171179   0.399   4.071  13.360 -2.1872 -0.2552 -1.7305
16588TIP3    H271180   0.472   4.028  13.235  0.4549 -0.3158 -0.2266
16589TIP3   OH271181   1.751   0.313   0.458 -0.4972 -0.2653 -0.1271
16589TIP3    H171182   1.817   0.287   0.523 -2.0921 -2.1512  0.8480
16589TIP3    H271183   1.670   0.320   0.509 -1.3165  0.6713 -1.5186
16590TIP3   OH271184   0.457   4.502  12.353  1.0640  0.3868  0.0212
16590TIP3    H171185   0.546   4.537  12.343  0.7232  0.9684 -1.1711
16590TIP3    H271186   0.448   4.438  12.283  0.2749  0.9309 -0.3899
16591TIP3   OH271187   3.158   3.313  11.456  0.5284  0.4344  0.0661
16591TIP3    H171188   3.112   3.267  11.385 -1.7787  0.2224  1.5727
16591TIP3    H271189   3.186   3.243  11.516  0.9570  0.7125  0.1939
16592TIP3   OH271190   2.255   6.027  13.731  0.0347  0.0824 -0.0698
16592TIP3    H171191   2.257   6.111  13.777 -2.1936  0.5171 -0.6692
16592TIP3    H271192   2.241   5.962  13.801 -0.6974  0.4674  0.1518
16593TIP3   OH271193   2.218   3.589   0.718  0.3436  0.1868  0.1044
16593TIP3    H171194   2.142   3.625   0.764  1.2559  0.4404  1.5028
16593TIP3    H271195   2.232   3.504   0.759  2.9966  1.6418  2.6304
16594TIP3   OH271196   4.306   2.000   4.618  0.0364  0.1654  0.1500
16594TIP3    H171197   4.245   1.932   4.645 -0.9181  0.8968 -0.1193
16594TIP3    H271198   4.338   1.971   4.532 -0.0832 -0.1123  0.1973
16595TIP3   OH271199   0.006   0.077   2.623 -0.4406  0.1862  0.5265
16595TIP3    H171200   0.084   0.022   2.623  0.2199  1.0954 -0.2947
16595TIP3    H271201  -0.047   0.042   2.695 -0.8569 -2.5873 -0.9749
16596TIP3   OH271202   4.241   0.461  13.950  0.8411 -0.1437 -0.1095
16596TIP3    H171203   4.291   0.539  13.925  1.1257  0.0110  0.8713
16596TIP3    H271204   4.230   0.470  14.045 -0.7503 -0.3513 -0.2490
16597TIP3   OH271205   1.579   5.535   4.820  0.1547  0.4967 -0.4732
16597TIP3    H171206   1.573   5.440   4.818 -1.6212  0.5670 -0.0388
16597TIP3    H271207   1.640   5.554   4.891 -0.7158 -0.3095  0.5113
16598TIP3   OH271208   5.389   3.327   1.703 -0.0221  0.1996  0.0110
16598TIP3    H171209   5.473   3.291   1.676 -0.8932 -2.7714  0.8669
16598TIP3    H271210   5.337   3.329   1.623 -0.2068 -1.3763  0.0566
16599TIP3   OH271211   3.819   3.099  13.250 -0.1351  0.0795  0.5824
16599TIP3    H171212   3.887   3.070  13.310  0.3129 -1.6440 -0.6772
16599TIP3    H271213   3.809   3.192  13.268  3.2868  0.6605  0.1779
16600TIP3   OH271214   4.073   0.470   0.020 -0.5407 -0.0875  0.2525
16600TIP3    H171215   4.103   0.543   0.074 -1.3796  1.7064 -1.5847
16600TIP3    H271216   4.148   0.447  -0.034 -0.3442 -0.4488  0.6758
16601TIP3   OH271217   4.419   0.615   2.313 -0.1824  0.2300 -0.1192
16601TIP3    H171218   4.513   0.602   2.325 -0.0856  1.6401  0.8330
16601TIP3    H271219   4.399   0.569   2.231  1.3258 -0.0959 -0.3398
16602TIP3   OH271220   2.465   6.312  16.102  0.1518 -0.0372 -1.3537
16602TIP3    H171221   2.537   6.299  16.164 -1.2054 -2.2805 -0.0688
16602TIP3    H271222   2.461   6.230  16.053 -0.9158  0.4206 -2.0717
16603TIP3   OH271223   1.147   2.764   3.039 -0.4503 -0.2331 -0.0423
16603TIP3    H171224   1.162   2.706   2.964  0.2572 -0.3608  0.1931
16603TIP3    H271225   1.054   2.788   3.033 -0.2000  0.4555 -1.4478
16604TIP3   OH271226   2.967   0.855  12.461 -0.0135  0.2495 -0.2379
16604TIP3    H171227   2.986   0.862  12.555 -1.0476  0.0999 -0.0076
16604TIP3    H271228   2.906   0.782  12.455  0.1819  0.1498 -1.0542
16605TIP3   OH271229   1.243   5.989  17.037 -0.2376  0.4771  0.2949
16605TIP3    H171230   1.265   5.984  17.130 -0.9563  0.4050  0.4683
16605TIP3    H271231   1.317   6.035  16.997  0.7036 -0.6819  0.6732
16606TIP3   OH271232   3.349   0.840  12.104  0.0657  0.0824 -0.1468
16606TIP3    H171233   3.299   0.900  12.159 -2.8097 -1.0853 -1.3035
16606TIP3    H271234   3.310   0.849  12.017  1.2329 -1.6279 -0.8927
16607TIP3   OH271235   1.391   0.452  14.120 -0.2204  0.1590  0.5859
16607TIP3    H171236   1.299   0.472  14.105  0.1744  2.3104  0.8103
16607TIP3    H271237   1.439   0.521  14.075  1.3765 -1.5880 -0.5838
16608TIP3   OH271238   2.144   1.093   2.864 -0.2242 -0.0737  0.6133
16608TIP3    H171239   2.185   1.011   2.892 -0.5858 -0.7306 -0.6939
16608TIP3    H271240   2.201   1.125   2.793 -0.7553  0.1581  0.2848
16609TIP3   OH271241   5.830   3.518  15.584 -0.1535  0.3945  0.0880
16609TIP3    H171242   5.802   3.585  15.646 -1.1858 -2.1741  2.6372
16609TIP3    H271243   5.749   3.481  15.549  0.4027  0.8090 -1.7506
16610TIP3   OH271244   2.097   5.877   0.954 -0.0688 -0.2858 -0.0038
16610TIP3    H171245   2.105   5.806   1.018 -1.7968  1.0364  1.8263
16610TIP3    H271246   2.013   5.862   0.911 -0.2300  0.3590  0.0655
16611TIP3   OH271247   0.596   0.683  15.038 -0.4830  0.0663 -0.5196
16611TIP3    H171248   0.523   0.724  15.084 -0.2167  0.6676 -0.6281
16611TIP3    H271249   0.571   0.591  15.031 -0.2059 -0.2224  1.5092
16612TIP3   OH271250   1.151   4.311   0.995 -0.5277  0.8101 -0.4831
16612TIP3    H171251   1.244   4.289   0.985 -0.2523  2.6625 -3.0587
16612TIP3    H271252   1.147   4.405   0.979 -3.0091  0.5303 -2.0145
16613TIP3   OH271253   1.122   4.565  16.736 -0.7010  0.2558  0.1322
16613TIP3    H171254   1.110   4.476  16.766  1.0977  0.0690  0.4237
16613TIP3    H271255   1.208   4.591  16.770 -1.0104  1.9572 -0.2665
16614TIP3   OH271256   1.998   2.716  14.405  0.2249 -0.2963  0.4431
16614TIP3    H171257   2.015   2.622  14.403 -1.9230 -0.7333 -1.1160
16614TIP3    H271258   2.041   2.746  14.485  0.3395 -2.7320  1.3950
16615TIP3   OH271259   1.202   0.232   1.866 -0.2157  0.3297  0.7265
16615TIP3    H171260   1.182   0.223   1.773  0.9363 -2.7255  0.6474
16615TIP3    H271261   1.117   0.249   1.907 -0.9838  0.1900 -0.7441
16616TIP3   OH271262   2.096   5.644  11.323  0.5384  0.3611  0.8430
16616TIP3    H171263   2.192   5.642  11.323  0.5389  0.1748  0.3811
16616TIP3    H271264   2.072   5.599  11.242  0.0810  1.0811  0.5739
16617TIP3   OH271265   4.844   6.474  13.021  0.1733 -0.0546  0.6761
16617TIP3    H171266   4.750   6.454  13.021  0.4383 -1.4435  0.9338
16617TIP3    H271267   4.868   6.477  12.928 -0.0682  0.0050  0.6151
16618TIP3   OH271268   2.168   6.579   2.543 -0.4497  0.0247 -0.3269
16618TIP3    H171269   2.102   6.512   2.523 -0.4814 -1.0232  2.7929
16618TIP3    H271270   2.153   6.601   2.635  1.0337  2.7349 -0.6479
16619TIP3   OH271271   6.429   3.251  14.561  0.4343 -0.0849 -0.1874
16619TIP3    H171272   6.463   3.184  14.621  2.0804 -0.0859 -1.0546
16619TIP3    H271273   6.334   3.240  14.564  0.4358 -0.0822  2.3943
16620TIP3   OH271274   1.912   0.133   3.808  0.3894  0.1114  0.9949
16620TIP3    H171275   1.983   0.105   3.750 -1.6403  1.1749 -2.2691
16620TIP3    H271276   1.953   0.196   3.868  2.2328  0.6832 -0.7534
16621TIP3   OH271277   3.070   1.112  12.841  0.2685 -0.4805  0.1903
16621TIP3    H171278   3.112   1.156  12.767  0.2742  0.7037  0.8862
16621TIP3    H271279   2.983   1.088  12.808  0.1594  0.3093 -0.1173
16622TIP3   OH271280   3.646   0.927  12.021  0.1571 -0.1962  0.1786
16622TIP3    H171281   3.569   0.884  11.983 -0.1743  0.1476  0.4545
16622TIP3    H271282   3.650   0.893  12.110 -0.1952  0.4487  0.4472
16623TIP3   OH271283   0.420   1.334  11.226 -0.1587  0.6722  0.0400
16623TIP3    H171284   0.463   1.301  11.305 -0.3562  2.6754  1.0588
16623TIP3    H271285   0.373   1.412  11.256 -2.5454 -0.0539 -1.5023
16624TIP3   OH271286   0.878   0.409  13.920  0.3417  0.0492  0.6485
16624TIP3    H171287   0.790   0.390  13.952  0.2609  0.4510  0.6617
16624TIP3    H271288   0.928   0.328  13.937 -0.2749 -0.5571 -0.2969
16625TIP3   OH271289   1.205   2.518   3.922 -0.2067  0.4435 -0.5040
16625TIP3    H171290   1.242   2.571   3.993  1.4570 -1.0837 -0.1703
16625TIP3    H271291   1.163   2.445   3.966 -0.7455  0.4296 -1.0344
16626TIP3   OH271292   4.813   6.257   1.365  0.0289 -0.0163  0.4945
16626TIP3    H171293   4.726   6.274   1.331  0.7088  2.1218 -0.3379
16626TIP3    H271294   4.826   6.323   1.433  1.7204  1.0797 -0.8131
16627TIP3   OH271295   2.263   6.221   1.590 -0.6878  0.4065  0.3394
16627TIP3    H171296   2.236   6.240   1.500 -0.2559  1.7973  0.4776
16627TIP3    H271297   2.197   6.265   1.644  0.4131  1.7195  0.6742
16628TIP3   OH271298   3.758   2.620  15.847 -0.0337 -0.1614 -0.4007
16628TIP3    H171299   3.691   2.598  15.911 -1.4950 -0.0420 -1.8385
16628TIP3    H271300   3.809   2.690  15.888 -1.0657  0.0681  0.5274
16629TIP3   OH271301   0.328   3.916   2.170 -0.0897 -0.8670  0.2038
16629TIP3    H171302   0.399   3.953   2.117  0.9972 -1.5027  1.1733
16629TIP3    H271303   0.329   3.969   2.250 -2.1331  0.5073 -0.5777
16630TIP3   OH271304   5.052   2.914   0.356 -1.0332  0.3551  0.9480
16630TIP3    H171305   5.066   2.828   0.394  0.7997  0.6465  1.0383
16630TIP3    H271306   5.026   2.897   0.265  1.0291 -0.3290  0.4337
16631TIP3   OH271307   5.367   5.864   3.272  0.2363 -0.1314  0.5425
16631TIP3    H171308   5.401   5.859   3.182 -0.3515 -0.8660  0.3417
16631TIP3    H271309   5.293   5.924   3.266 -0.4451 -0.9596  0.2937
16632TIP3   OH271310   6.588   0.313   2.828 -0.3693  0.7670 -0.3820
16632TIP3    H171311   6.532   0.236   2.814  0.3669 -0.0456  0.9878
16632TIP3    H271312   6.620   0.304   2.918 -0.6903  2.9686  0.0091
16633TIP3   OH271313   1.150   6.688   5.007 -0.1801 -0.1261  0.2632
16633TIP3    H171314   1.119   6.757   5.067 -0.0411 -0.7745  1.0922
16633TIP3    H271315   1.071   6.639   4.984 -0.0858 -0.4985  0.7236
16634TIP3   OH271316   6.395   4.776   5.616 -0.9996  0.1026 -0.5385
16634TIP3    H171317   6.309   4.743   5.643 -1.1551  0.9677  0.0967
16634TIP3    H271318   6.377   4.864   5.583 -0.1828  0.9623  1.1491
16635TIP3   OH271319   4.684   0.376  16.438 -0.3045  0.2400  0.3694
16635TIP3    H171320   4.626   0.384  16.362 -0.2586  1.9113  0.4657
16635TIP3    H271321   4.742   0.302  16.417 -1.1135 -0.1235 -0.6415
16636TIP3   OH271322   5.450   2.673   1.570 -0.3041  0.0166  0.4879
16636TIP3    H171323   5.405   2.601   1.614  0.0512  0.1778  1.1375
16636TIP3    H271324   5.542   2.646   1.571 -0.2002  0.3708  0.5332
16637TIP3   OH271325   2.986   3.022   1.578 -0.5928  0.4635  0.3902
16637TIP3    H171326   3.052   2.953   1.568 -0.0048  0.3701  3.7018
16637TIP3    H271327   2.910   2.977   1.615 -0.4388  1.4062  1.9489
16638TIP3   OH271328   0.355   4.796  14.711  0.1624 -0.0048 -0.3598
16638TIP3    H171329   0.323   4.720  14.759 -0.0142  0.5688  0.4556
16638TIP3    H271330   0.290   4.809  14.642 -0.5793  0.2370  0.3574
16639TIP3   OH271331   1.466   6.195   2.294  0.3828 -0.6895  0.1310
16639TIP3    H171332   1.470   6.279   2.249 -1.2923 -0.7864 -0.2648
16639TIP3    H271333   1.471   6.130   2.224  0.6211 -0.9103  0.3472
16640TIP3   OH271334   3.508   5.875  13.296 -0.3957 -0.2063 -0.0638
16640TIP3    H171335   3.435   5.935  13.278  0.4652  0.8479 -0.1322
16640TIP3    H271336   3.568   5.888  13.223 -0.3914 -1.4967 -0.3088
16641TIP3   OH271337   4.109   5.915  13.779 -0.0442  0.4314 -0.5411
16641TIP3    H171338   4.020   5.920  13.814 -0.7386 -0.8392 -1.9913
16641TIP3    H271339   4.158   5.983  13.826 -2.0363  1.8949 -0.4658
16642TIP3   OH271340   4.387   4.750  13.526 -0.1020 -0.3809 -0.1985
16642TIP3    H171341   4.443   4.799  13.466  1.4357 -0.4744  1.0886
16642TIP3    H271342   4.433   4.753  13.609 -0.9818 -2.2920  0.4046
16643TIP3   OH271343   4.060   5.888  16.955  0.1436 -0.4454 -0.3715
16643TIP3    H171344   4.148   5.899  16.919 -0.3300 -0.3158 -1.5446
16643TIP3    H271345   4.064   5.930  17.041  1.0228  0.2381 -0.7257
16644TIP3   OH271346   0.316   4.230   3.920 -0.3134 -0.3275  0.3493
16644TIP3    H171347   0.234   4.212   3.874 -0.7997  2.6453 -0.1771
16644TIP3    H271348   0.379   4.248   3.850  0.0868  0.0072  0.7880
16645TIP3   OH271349   1.619   5.131  13.220 -0.1748  0.3337  0.2370
16645TIP3    H171350   1.597   5.172  13.304 -1.2145  0.1389  0.0820
16645TIP3    H271351   1.553   5.062  13.210  0.9348 -0.7277  0.0260
16646TIP3   OH271352   0.014   0.767  12.180  0.7396 -0.0165  0.1114
16646TIP3    H171353   0.041   0.675  12.180 -1.0063 -0.5597 -0.7153
16646TIP3    H271354   0.044   0.801  12.096  0.5336 -0.0916  0.0080
16647TIP3   OH271355   3.004   5.221   5.312 -0.0531 -0.0074  0.0551
16647TIP3    H171356   2.971   5.227   5.402 -0.1786 -1.3534  0.1184
16647TIP3    H271357   3.023   5.312   5.288  0.3616  0.3487  1.5750
16648TIP3   OH271358   0.120   2.594   3.797 -0.2550 -0.3584 -0.1243
16648TIP3    H171359   0.126   2.598   3.892  0.3596 -1.8099 -0.0784
16648TIP3    H271360   0.158   2.676   3.767  0.6035 -0.3890  0.8480
16649TIP3   OH271361   3.645   0.299  12.576  0.1078  0.0722  0.4383
16649TIP3    H171362   3.558   0.262  12.561  0.7591 -1.0612 -0.6937
16649TIP3    H271363   3.705   0.226  12.565  1.1530  0.5721  2.3957
16650TIP3   OH271364   4.858   0.139  14.972 -0.8809  0.1893 -0.1518
16650TIP3    H171365   4.789   0.165  15.033 -2.1103 -0.4954 -1.2096
16650TIP3    H271366   4.848   0.198  14.898 -0.8458 -0.4329 -0.6595
16651TIP3   OH271367   6.056   3.953   5.396  0.2505  0.2753 -0.6863
16651TIP3    H171368   5.991   3.885   5.415 -0.2150  1.2518  1.4527
16651TIP3    H271369   6.007   4.035   5.399  0.8332  0.7777 -3.0982
16652TIP3   OH271370   5.694   2.884   2.058 -0.1578 -0.5090 -0.6258
16652TIP3    H171371   5.765   2.917   2.004 -0.7523  0.8396 -0.6137
16652TIP3    H271372   5.621   2.872   1.997 -0.7197  0.6718 -0.2174
16653TIP3   OH271373   2.303   4.567   4.731  0.2776  0.2819 -0.4484
16653TIP3    H171374   2.358   4.505   4.683  0.0995  0.4663 -0.9034
16653TIP3    H271375   2.233   4.589   4.669  0.4494  1.0863 -0.3733
16654TIP3   OH271376   1.707   2.601   3.404  0.3977 -0.3438  0.6198
16654TIP3    H171377   1.682   2.539   3.473 -2.0440 -0.8456 -0.6202
16654TIP3    H271378   1.694   2.687   3.444  0.2391 -0.6306  1.2026
16655TIP3   OH271379   0.023   1.904  11.204 -0.7494  0.1823 -0.0520
16655TIP3    H171380   0.068   1.937  11.282 -0.1519 -1.6822  0.4425
16655TIP3    H271381   0.072   1.940  11.130 -0.4141  0.7603  0.4477
16656TIP3   OH271382   5.152   6.458   5.399 -0.6983  0.0967 -0.1870
16656TIP3    H171383   5.210   6.468   5.324  0.4052 -0.0011  0.6327
16656TIP3    H271384   5.100   6.539   5.400 -0.8308  0.0379 -1.1262
16657TIP3   OH271385   1.121   4.379   0.442  0.0272  0.0059  0.1823
16657TIP3    H171386   1.204   4.335   0.426  0.0258 -0.0327  0.2788
16657TIP3    H271387   1.119   4.393   0.537  1.2251  2.5663 -0.0792
16658TIP3   OH271388   2.898   0.378  15.257 -0.5811  0.5265  0.2826
16658TIP3    H171389   2.876   0.371  15.164  1.3624  2.2487 -0.3912
16658TIP3    H271390   2.966   0.313  15.271  0.4580  1.5237 -0.0040
16659TIP3   OH271391   1.651   4.175   5.024  0.0747 -0.3357  0.6812
16659TIP3    H171392   1.708   4.129   4.963  0.1606 -0.1160  0.5935
16659TIP3    H271393   1.588   4.220   4.967 -1.2034 -1.8728  0.8086
16660TIP3   OH271394   5.429   4.348   5.716  0.5366  1.2681 -0.2340
16660TIP3    H171395   5.359   4.389   5.767  0.9126  1.5541  0.0591
16660TIP3    H271396   5.422   4.387   5.629 -0.1812  0.6917 -0.4439
16661TIP3   OH271397   6.237   3.481   0.355 -0.1835  0.0506  0.0622
16661TIP3    H171398   6.155   3.435   0.338 -1.2597  1.4535  1.1998
16661TIP3    H271399   6.270   3.440   0.435  0.0762 -0.3031 -0.2227
16662TIP3   OH271400   4.641   2.050  15.335  0.3170 -0.0745  0.1110
16662TIP3    H171401   4.657   2.135  15.293  0.9313 -0.5139 -0.5917
16662TIP3    H271402   4.575   2.008  15.280  0.4867 -0.3078  0.0838
16663TIP3   OH271403   4.048   1.213  12.981  0.2752 -0.1519 -0.3789
16663TIP3    H171404   4.039   1.197  13.075  0.5821 -1.7681 -0.5923
16663TIP3    H271405   4.101   1.293  12.976  2.4463 -1.3874  0.8671
16664TIP3   OH271406   0.343   5.861  14.238  0.1918  0.1299 -0.4495
16664TIP3    H171407   0.363   5.866  14.332 -1.3846  1.0818 -0.1222
16664TIP3    H271408   0.273   5.796  14.232 -0.6845  1.0783 -0.7657
16665TIP3   OH271409   2.354   5.889  16.734  0.2351 -0.6871  0.3340
16665TIP3    H171410   2.382   5.973  16.698  3.3536 -0.9313  1.8752
16665TIP3    H271411   2.383   5.824  16.670 -1.5131 -0.7309 -0.4924
16666TIP3   OH271412   4.340   4.330  15.799 -0.4511  0.4150  0.0148
16666TIP3    H171413   4.341   4.425  15.786  1.3559  0.9121  2.9337
16666TIP3    H271414   4.425   4.301  15.767 -1.0013 -0.2806 -0.8798
16667TIP3   OH271415   2.825   1.736   1.688  0.5895 -0.0998 -0.4635
16667TIP3    H171416   2.806   1.810   1.631  0.9784 -1.3199 -2.2783
16667TIP3    H271417   2.768   1.666   1.655  0.5366 -0.7449  0.9307
16668TIP3   OH271418   3.067   3.975  14.872  0.4906  0.0644 -0.4438
16668TIP3    H171419   3.033   4.063  14.855 -0.7218 -0.6522 -1.9727
16668TIP3    H271420   2.988   3.921  14.883  1.1804 -0.5149  2.6676
16669TIP3   OH271421   6.735   3.471  15.612 -0.0892  0.0773  0.0073
16669TIP3    H171422   6.734   3.431  15.525  1.7677 -0.7546  0.3288
16669TIP3    H271423   6.690   3.407  15.668 -1.9418  0.9370 -0.4096
16670TIP3   OH271424   4.760   5.349   4.876  0.0518 -0.0009 -0.4864
16670TIP3    H171425   4.752   5.324   4.784 -0.5493  0.4616 -0.5604
16670TIP3    H271426   4.749   5.267   4.924 -0.1524 -0.1587 -0.8006
16671TIP3   OH271427   4.099   1.886   2.575 -0.2574 -0.6178 -0.0561
16671TIP3    H171428   4.056   1.801   2.585  2.1145 -1.7094  2.0949
16671TIP3    H271429   4.081   1.932   2.657 -0.7083  0.5926 -0.8133
16672TIP3   OH271430   6.460   0.550   2.761 -0.1335 -0.0343  0.0098
16672TIP3    H171431   6.467   0.554   2.666  0.5431 -2.3715 -0.1047
16672TIP3    H271432   6.500   0.466   2.784  1.5953  1.3721  2.5572
16673TIP3   OH271433   0.551   2.525   3.250  0.1364  0.5566  0.3560
16673TIP3    H171434   0.466   2.485   3.269 -0.0218  0.9492  0.4717
16673TIP3    H271435   0.606   2.451   3.224 -0.8514  0.5670 -1.9333
16674TIP3   OH271436   0.402   1.659   4.041  0.0634  0.0534  0.7084
16674TIP3    H171437   0.317   1.675   4.083  0.4308  0.2691  1.3748
16674TIP3    H271438   0.435   1.747   4.020 -0.5920 -0.0665 -1.0257
16675TIP3   OH271439   3.318   6.590   0.245 -0.4400  0.2479 -0.5395
16675TIP3    H171440   3.358   6.640   0.174 -2.0748  2.2580 -0.1368
16675TIP3    H271441   3.360   6.624   0.324  0.5409 -1.1635 -0.4146
16676TIP3   OH271442   1.006   5.766   4.811  0.1454  0.8926  0.5469
16676TIP3    H171443   1.085   5.731   4.770 -0.1080  0.6597  0.2545
16676TIP3    H271444   1.038   5.812   4.889  0.5352  0.4946  0.6278
16677TIP3   OH271445   6.713   1.442   6.614  0.0384  0.3301 -0.5148
16677TIP3    H171446   6.691   1.396   6.533 -0.0692 -0.6000  0.0312
16677TIP3    H271447   6.632   1.439   6.666  0.1616  0.7661 -0.2936
16678TIP3   OH271448   5.913   6.729  17.019 -0.4670  0.6473 -0.2100
16678TIP3    H171449   5.884   6.746  17.109  0.7348  1.4603  0.0344
16678TIP3    H271450   5.991   6.783  17.007 -0.3935  0.2768 -1.6309
16679TIP3   OH271451   2.298   3.293   3.843 -0.0601 -0.4298  0.2060
16679TIP3    H171452   2.257   3.375   3.816 -0.6000 -1.0188 -0.8198
16679TIP3    H271453   2.312   3.246   3.762  1.6308 -0.7345  0.6438
16680TIP3   OH271454   4.265   3.966   3.926  0.2654 -0.0797 -0.4223
16680TIP3    H171455   4.351   3.926   3.908  0.7909  0.8745 -0.0797
16680TIP3    H271456   4.208   3.931   3.857  0.2237 -2.8459  0.8782
16681TIP3   OH271457   4.505   4.346   1.415 -0.2045  0.0832  1.2235
16681TIP3    H171458   4.585   4.398   1.415 -0.6503  0.7982  2.5643
16681TIP3    H271459   4.462   4.366   1.498 -1.3136 -1.0165  0.9553
16682TIP3   OH271460   6.727   2.619   2.553 -0.4783 -0.4326  0.6168
16682TIP3    H171461   6.805   2.651   2.508 -1.0701  1.5930  0.9389
16682TIP3    H271462   6.745   2.631   2.646 -1.0365 -0.2598  0.7077
16683TIP3   OH271463   6.169   5.758  16.488 -0.0563 -0.4478 -0.4861
16683TIP3    H171464   6.219   5.802  16.557 -0.9311  1.0416 -0.7280
16683TIP3    H271465   6.215   5.780  16.407  0.6273 -1.6856 -0.4466
16684TIP3   OH271466   2.121   6.403   0.718 -0.2290  0.0583 -0.4631
16684TIP3    H171467   2.044   6.345   0.723 -0.4746  0.4509  0.7550
16684TIP3    H271468   2.184   6.363   0.779 -0.9209  1.7633  1.4883
16685TIP3   OH271469   4.928   5.670   5.760 -0.6785  0.2818 -0.1926
16685TIP3    H171470   4.842   5.704   5.786 -1.4993 -1.3468 -0.5947
16685TIP3    H271471   4.916   5.575   5.756  0.4205  0.1410 -2.7343
16686TIP3   OH271472   0.002   3.021  15.727  0.2253 -0.4356 -0.5730
16686TIP3    H171473  -0.026   3.112  15.734 -0.6852 -0.6140 -1.5763
16686TIP3    H271474  -0.057   2.973  15.784  2.6694 -0.1003  2.4831
16687TIP3   OH271475   2.347   5.477   0.121  0.3377 -0.5553 -0.1066
16687TIP3    H171476   2.294   5.454   0.198  2.6578 -1.0933  1.4383
16687TIP3    H271477   2.345   5.573   0.119 -0.7232 -0.5622 -0.1353
16688TIP3   OH271478   2.274   1.849   5.106 -0.1873  0.5884  0.3877
16688TIP3    H171479   2.219   1.888   5.038  1.2985  0.1963 -1.1138
16688TIP3    H271480   2.214   1.796   5.158 -1.2139  0.0259 -1.2952
16689TIP3   OH271481   3.520   0.607   1.645 -0.2574  0.0189  0.2985
16689TIP3    H171482   3.463   0.532   1.635 -1.1380  0.9526 -3.4687
16689TIP3    H271483   3.554   0.623   1.556 -0.1498  4.0313  0.8740
16690TIP3   OH271484   6.695   2.011   2.475 -0.0507 -0.5264 -0.2215
16690TIP3    H171485   6.687   2.083   2.537 -0.7826 -1.2544  0.5690
16690TIP3    H271486   6.605   1.978   2.465 -0.2777  0.6846 -3.0697
16691TIP3   OH271487   4.559   1.407   2.569  0.2330 -0.4020 -0.1212
16691TIP3    H171488   4.600   1.460   2.501 -0.2027  1.7158  1.2001
16691TIP3    H271489   4.592   1.318   2.553  1.6452  0.3863 -1.8991
16692TIP3   OH271490   6.040   2.370   3.184 -0.4207  0.0237 -0.2139
16692TIP3    H171491   6.103   2.421   3.132 -0.4029 -0.7714 -1.0007
16692TIP3    H271492   6.075   2.374   3.273  1.1564 -0.9507 -0.7322
16693TIP3   OH271493   3.167   6.733   4.746 -0.7161  0.2250  0.5850
16693TIP3    H171494   3.182   6.659   4.688  2.3145  0.6034  0.7514
16693TIP3    H271495   3.091   6.708   4.798 -1.9822 -1.1817 -1.7760
16694TIP3   OH271496   6.033   6.672  12.351  0.2995 -0.5903 -0.0887
16694TIP3    H171497   5.961   6.645  12.295 -1.4414  1.2615  1.1102
16694TIP3    H271498   6.046   6.765  12.330  0.0261 -0.0190  2.0706
16695TIP3   OH271499   2.254   5.238   4.709  0.7335  0.0670 -0.4315
16695TIP3    H171500   2.338   5.274   4.682  0.0439  2.6541  0.5394
16695TIP3    H271501   2.204   5.230   4.628  2.3060 -2.9151 -1.2279
16696TIP3   OH271502   1.818   5.129   6.084 -0.2808 -0.5179  0.7280
16696TIP3    H171503   1.835   5.179   6.163  0.1765  0.6318 -0.0710
16696TIP3    H271504   1.839   5.189   6.012 -0.4731 -1.5983 -0.2686
16697TIP3   OH271505   0.055   1.990  14.246 -0.2347  0.4674 -0.8661
16697TIP3    H171506   0.110   2.058  14.286  1.0110 -0.9413 -0.0890
16697TIP3    H271507   0.087   1.985  14.156  1.8001 -1.1046 -0.1427
16698TIP3   OH271508   5.929   1.518   2.916  0.1321  0.3018  0.0258
16698TIP3    H171509   5.957   1.604   2.883 -0.6080  0.7620  0.5647
16698TIP3    H271510   6.005   1.486   2.964  0.9179  0.0082 -1.3593
16699TIP3   OH271511   5.553   5.262  13.555  0.6068  0.3393  0.1481
16699TIP3    H171512   5.550   5.167  13.568 -0.0368  0.4619  0.9705
16699TIP3    H271513   5.628   5.276  13.496  0.2977 -0.7296 -0.5230
16700TIP3   OH271514   4.933   1.437  15.230  0.3768  0.1477  0.2736
16700TIP3    H171515   4.890   1.385  15.298 -0.0341  1.2508  0.8787
16700TIP3    H271516   4.958   1.373  15.164 -2.0989 -0.5739 -0.0724
16701TIP3   OH271517   5.475   3.832  15.616 -1.1393  0.3020  0.0406
16701TIP3    H171518   5.559   3.788  15.603 -0.7695  1.1907 -0.7098
16701TIP3    H271519   5.413   3.761  15.632 -0.2296 -0.3635  0.7070
16702TIP3   OH271520   1.275   6.410   5.803  0.2283 -0.0131 -0.6372
16702TIP3    H171521   1.280   6.432   5.711  1.1826  0.2169 -0.5343
16702TIP3    H271522   1.291   6.315   5.806  3.2315  0.4299 -0.4712
16703TIP3   OH271523   1.168   0.901  14.977  0.2015 -0.1300  0.4789
16703TIP3    H171524   1.075   0.925  14.967 -0.0461 -0.8374  1.0226
16703TIP3    H271525   1.183   0.902  15.071  1.1132  1.2578  0.3464
16704TIP3   OH271526   3.857   5.410   1.974  0.3561 -0.1371  0.5044
16704TIP3    H171527   3.827   5.501   1.965 -1.3059 -0.5273  1.6642
16704TIP3    H271528   3.777   5.360   1.991  0.6948 -2.3677 -3.2413
16705TIP3   OH271529   5.058   6.627  12.098 -0.1413  0.2452 -0.7536
16705TIP3    H171530   5.151   6.650  12.090 -0.2593  1.8262  1.3379
16705TIP3    H271531   5.012   6.698  12.053 -0.3623 -0.3955 -1.5569
16706TIP3   OH271532   6.322   5.241  17.171 -0.3720  0.0666  0.1873
16706TIP3    H171533   6.251   5.279  17.223 -0.0956  0.8192  0.0212
16706TIP3    H271534   6.281   5.166  17.127 -1.7352  1.8052 -1.7145
16707TIP3   OH271535   6.055   5.030   5.397 -0.3464 -1.1866  0.3847
16707TIP3    H171536   6.012   5.032   5.311  0.4293 -0.3528  0.0021
16707TIP3    H271537   5.987   5.056   5.459 -0.7409 -1.1838 -0.0452
16708TIP3   OH271538   6.275   0.191  12.417 -0.3852 -0.5877 -0.0593
16708TIP3    H171539   6.201   0.233  12.374  0.2001 -0.8989 -1.4189
16708TIP3    H271540   6.248   0.100  12.427  0.2015 -0.9470 -1.5406
16709TIP3   OH271541   4.333   0.853   6.277  0.4431 -0.2162  0.3747
16709TIP3    H171542   4.270   0.829   6.345 -0.8433 -2.6574 -1.4761
16709TIP3    H271543   4.284   0.913   6.220  0.7946  0.1661  0.4734
16710TIP3   OH271544   0.771   5.888   5.208  0.2269 -0.2051  0.0852
16710TIP3    H171545   0.727   5.918   5.129  0.9492 -2.4723 -1.2860
16710TIP3    H271546   0.725   5.808   5.232  0.3739  0.1575  1.6721
16711TIP3   OH271547   0.552   0.689  11.465 -0.0979 -0.6443  0.2783
16711TIP3    H171548   0.500   0.655  11.538  0.4646 -1.1732  0.4381
16711TIP3    H271549   0.487   0.719  11.402 -0.6036 -1.3198  0.4617
16712TIP3   OH271550   2.850   5.548  13.488  0.0655  0.3202 -0.0383
16712TIP3    H171551   2.928   5.493  13.487  0.4911  0.8840 -1.9783
16712TIP3    H271552   2.826   5.553  13.580  1.1441 -1.4944  0.4025
16713TIP3   OH271553   4.778   3.013   3.920  0.0135  0.1038 -0.5355
16713TIP3    H171554   4.820   3.051   3.843  0.6754  0.4035 -0.0365
16713TIP3    H271555   4.690   3.051   3.920 -0.3320 -0.6737 -1.6878
16714TIP3   OH271556   3.801   6.624   5.482 -0.3699  0.5564 -0.1745
16714TIP3    H171557   3.823   6.715   5.504  1.2722  0.1808 -0.1054
16714TIP3    H271558   3.709   6.627   5.458 -0.0151  2.5497 -1.6537
16715TIP3   OH271559   4.270   5.059  13.435 -0.6929 -0.0029 -0.4467
16715TIP3    H171560   4.271   5.092  13.525 -0.0648 -0.8537 -0.1353
16715TIP3    H271561   4.300   4.968  13.442 -1.5452 -0.3838 -1.3962
16716TIP3   OH271562   5.361   5.387  15.892  0.2295  0.2874  0.5163
16716TIP3    H171563   5.441   5.429  15.923 -0.4564  2.5151 -0.5114
16716TIP3    H271564   5.310   5.458  15.853 -1.2568 -1.4467 -0.8979
16717TIP3   OH271565   2.828   6.774   3.214 -0.0831 -0.6096  0.5713
16717TIP3    H171566   2.819   6.824   3.133 -0.4578 -0.6384  0.5959
16717TIP3    H271567   2.902   6.815   3.259  0.4192 -0.8721  0.0140
16718TIP3   OH271568   4.259   3.335  16.625  0.0842 -0.1933  0.5468
16718TIP3    H171569   4.205   3.264  16.659  0.1733 -0.0841  0.9249
16718TIP3    H271570   4.205   3.379  16.560  0.7916 -1.9657 -1.3512
16719TIP3   OH271571   2.963   6.000   3.223 -0.0285  0.0564  1.0344
16719TIP3    H171572   2.927   5.944   3.154 -1.1005 -2.1349  3.2202
16719TIP3    H271573   3.058   5.989   3.215 -0.1503 -0.5502  0.2145
16720TIP3   OH271574   1.123   5.577  13.874  0.2841 -0.0186  0.4627
16720TIP3    H171575   1.051   5.619  13.922  0.2566 -1.6463  1.9360
16720TIP3    H271576   1.121   5.618  13.787 -0.4582  2.1509  1.4286
16721TIP3   OH271577   5.633   3.103  15.162  0.2431 -0.4214 -0.0817
16721TIP3    H171578   5.627   3.061  15.248  0.5224 -0.3207 -0.0127
16721TIP3    H271579   5.617   3.032  15.100  2.1015 -0.9460 -0.0091
16722TIP3   OH271580   6.258   6.028   6.054  0.0219 -0.0196  0.5244
16722TIP3    H171581   6.312   5.966   6.103  0.8388  1.5839  1.7545
16722TIP3    H271582   6.209   6.076   6.122 -1.6564 -0.2535 -0.4730
16723TIP3   OH271583   1.081   6.029   0.202 -0.6601  0.1841 -0.2377
16723TIP3    H171584   1.071   5.956   0.263 -0.8545  0.3907 -0.0243
16723TIP3    H271585   0.999   6.030   0.152 -0.5643  0.1126 -0.3966
16724TIP3   OH271586   0.574   0.178  14.466 -0.1965 -0.2850  0.4573
16724TIP3    H171587   0.574   0.251  14.404  1.0971  0.2172  1.0174
16724TIP3    H271588   0.665   0.172  14.495 -0.4088 -1.7523  0.8622
16725TIP3   OH271589   1.249   4.381   2.694  0.0435 -0.4667  0.1603
16725TIP3    H171590   1.260   4.343   2.781 -0.1855 -1.0078 -0.0415
16725TIP3    H271591   1.155   4.397   2.686  0.1398  0.1602  0.2477
16726TIP3   OH271592   5.752   0.550  15.944 -0.7226 -0.1503  0.3530
16726TIP3    H171593   5.679   0.608  15.925 -1.6205 -1.3295  0.0490
16726TIP3    H271594   5.715   0.462  15.938  1.0384 -0.8456 -1.2306
16727TIP3   OH271595   2.551   3.916  12.311  0.6892 -0.3853 -0.2147
16727TIP3    H171596   2.597   3.927  12.228  0.1499 -1.5731 -0.6998
16727TIP3    H271597   2.493   3.992  12.316  3.4923  1.8301  1.0275
16728TIP3   OH271598   2.506   0.774  14.114 -0.0085 -0.5386  0.0191
16728TIP3    H171599   2.417   0.748  14.137 -0.1994  0.6667  0.7768
16728TIP3    H271600   2.497   0.819  14.030 -0.3813  0.9054  0.7994
16729TIP3   OH271601   5.327   5.314  14.002  0.7518 -0.2236  0.4514
16729TIP3    H171602   5.412   5.286  13.966  1.3671  1.2323  0.6904
16729TIP3    H271603   5.296   5.380  13.941 -1.0329 -1.8298 -0.5060
16730TIP3   OH271604   1.355   0.940  13.282  0.0420 -0.3926 -0.1772
16730TIP3    H171605   1.336   1.032  13.300  2.0283  0.3485 -1.4548
16730TIP3    H271606   1.285   0.912  13.223 -1.4527 -0.2152  1.4332
16731TIP3   OH271607   0.370   6.200   0.686  0.3661 -0.1009 -0.4892
16731TIP3    H171608   0.393   6.293   0.688  0.8481 -0.1966  2.4601
16731TIP3    H271609   0.279   6.199   0.658  0.1398  1.3504  0.0657
16732TIP3   OH271610   4.176   5.904  15.854  0.3671  0.0970  0.2559
16732TIP3    H171611   4.213   5.889  15.941  2.1265  0.4555 -0.3872
16732TIP3    H271612   4.120   5.981  15.866 -1.4628 -1.3635  1.5862
16733TIP3   OH271613   3.665   1.583  11.113 -0.2791 -0.0511 -0.4514
16733TIP3    H171614   3.620   1.622  11.189  1.0954  1.0307 -0.1420
16733TIP3    H271615   3.594   1.550  11.058 -1.3382 -0.5931  1.1458
16734TIP3   OH271616   6.150   6.752  14.849  0.6178  0.3109 -0.5225
16734TIP3    H171617   6.175   6.805  14.925  0.3489 -0.4011  0.0788
16734TIP3    H271618   6.110   6.673  14.887  3.2304 -1.5104 -1.3127
16735TIP3   OH271619   4.330   0.561   1.840 -0.0804  0.3762  0.1887
16735TIP3    H171620   4.362   0.580   1.752  1.1129 -0.1186  0.4962
16735TIP3    H271621   4.335   0.644   1.887  1.6735  0.1398  0.4891
16736TIP3   OH271622   6.195   4.434   5.018  0.3125 -0.1740 -0.1015
16736TIP3    H171623   6.192   4.341   4.997  0.5078 -0.2928  0.3653
16736TIP3    H271624   6.136   4.476   4.955  1.2976 -0.4311 -1.2088
16737TIP3   OH271625   4.981   0.828   0.583  0.4892 -0.2053  0.7963
16737TIP3    H171626   5.070   0.863   0.590  0.6296 -0.3526 -0.1103
16737TIP3    H271627   4.976   0.760   0.650  1.3102 -0.6841  0.3894
16738TIP3   OH271628   6.630   0.973  12.898 -0.4057  0.2202  0.4895
16738TIP3    H171629   6.549   1.012  12.865  0.0709  1.1607  0.4015
16738TIP3    H271630   6.693   1.046  12.900  0.0871 -0.2069  1.7344
16739TIP3   OH271631   4.153   4.290   6.745  0.1382 -0.4726  0.4568
16739TIP3    H171632   4.210   4.234   6.692  0.0141  0.9134 -1.2280
16739TIP3    H271633   4.188   4.378   6.732 -0.3674  0.0059  2.1133
16740TIP3   OH271634   1.280   3.923   5.046  0.4272  0.4182  0.8565
16740TIP3    H171635   1.255   3.839   5.008  0.0649  0.1276  1.6971
16740TIP3    H271636   1.375   3.917   5.059  0.8213  1.0915 -1.3114
16741TIP3   OH271637   6.103   4.489   3.701  0.2690  0.2410  0.3795
16741TIP3    H171638   6.036   4.427   3.673  0.4734  0.3750 -0.4355
16741TIP3    H271639   6.184   4.456   3.663  0.3984  0.9425  0.0168
16742TIP3   OH271640   6.519   0.466   1.346  0.0286  0.6444  0.4064
16742TIP3    H171641   6.553   0.508   1.267 -1.0963  1.0243  0.1100
16742TIP3    H271642   6.565   0.382   1.350  2.5488  1.9729  1.1899
16743TIP3   OH271643   0.501   1.027   3.119 -0.9353  0.0834 -0.4481
16743TIP3    H171644   0.461   0.944   3.144  0.4814 -1.1268 -2.0144
16743TIP3    H271645   0.557   1.051   3.193 -0.9240 -0.6449 -0.2165
16744TIP3   OH271646   1.698   5.462   3.988  0.2636  0.0177 -0.4680
16744TIP3    H171647   1.675   5.477   3.896  2.6295  0.0297 -1.1153
16744TIP3    H271648   1.643   5.523   4.037 -3.4074 -2.1499 -1.5013
16745TIP3   OH271649   2.762   2.399  16.960  0.0006 -0.6939  0.1397
16745TIP3    H171650   2.715   2.456  17.021 -1.6666 -1.6232 -0.2114
16745TIP3    H271651   2.709   2.400  16.880  1.1678 -0.9570 -0.6763
16746TIP3   OH271652   1.688   5.021   2.014  0.1340 -0.4923 -0.1202
16746TIP3    H171653   1.678   4.939   2.061  1.4631 -0.4953  0.2082
16746TIP3    H271654   1.740   5.076   2.073  3.2144 -1.0219 -2.0978
16747TIP3   OH271655   2.331   2.546  17.169 -0.3166  0.4217  0.0964
16747TIP3    H171656   2.322   2.609  17.241  1.6756 -0.5671  1.3064
16747TIP3    H271657   2.243   2.513  17.154 -1.4042  3.2973 -0.4468
16748TIP3   OH271658   6.333   4.839   2.882 -0.1414 -0.3593  0.5556
16748TIP3    H171659   6.286   4.792   2.951 -0.2270 -1.2570 -0.1006
16748TIP3    H271660   6.418   4.858   2.921  0.1331 -1.6345  0.6392
16749TIP3   OH271661   3.586   6.166  10.772 -0.4561  0.0652  0.2411
16749TIP3    H171662   3.519   6.157  10.704  0.4264 -1.2191 -0.4869
16749TIP3    H271663   3.546   6.225  10.837 -2.3330 -0.7301 -0.1206
16750TIP3   OH271664   6.479   3.899  14.180 -0.2355 -0.4686  0.7568
16750TIP3    H171665   6.433   3.939  14.107  0.1066  0.8563  1.2407
16750TIP3    H271666   6.508   3.814  14.147  2.3712  1.1932 -1.6367
16751TIP3   OH271667   6.317   0.884   5.535  0.2910  0.4736  0.5485
16751TIP3    H171668   6.354   0.967   5.564  0.6423  0.4385  0.2131
16751TIP3    H271669   6.391   0.836   5.500 -0.3474  1.2821 -2.1980
16752TIP3   OH271670   6.122   1.273  17.137  0.0681 -0.5651 -0.2635
16752TIP3    H171671   6.207   1.229  17.133  1.3795  1.8599 -0.9156
16752TIP3    H271672   6.106   1.301  17.047 -0.3018  0.9871  0.2687
16753TIP3   OH271673   3.379   5.324   5.432 -0.0085 -0.1904 -0.1526
16753TIP3    H171674   3.470   5.327   5.464 -0.8639 -0.1034  2.5203
16753TIP3    H271675   3.366   5.409   5.389  1.1982 -0.2540 -0.6848
16754TIP3   OH271676   6.001   4.511   5.230  0.3737 -0.0361  0.4880
16754TIP3    H171677   5.981   4.603   5.215  0.2580 -0.0949  0.2714
16754TIP3    H271678   6.084   4.497   5.185  0.2155 -0.1217  0.2206
16755TIP3   OH271679   2.676   5.932  12.236 -0.0994  0.3594  0.1880
16755TIP3    H171680   2.684   6.005  12.175 -1.0560  1.1069  0.9287
16755TIP3    H271681   2.737   5.866  12.202  1.0363  1.6107 -0.3131
16756TIP3   OH271682   6.370   4.337   1.898  0.0949  0.4599  0.1552
16756TIP3    H171683   6.360   4.243   1.886 -1.0131  0.7023 -1.0162
16756TIP3    H271684   6.464   4.352   1.889  0.9829 -1.0109  4.5146
16757TIP3   OH271685   0.476   0.919   6.023  0.3686  0.0234  0.1836
16757TIP3    H171686   0.514   0.963   6.099  1.3051 -1.1998  0.4528
16757TIP3    H271687   0.405   0.865   6.058  0.7953 -0.5346  0.2092
16758TIP3   OH271688   5.450   2.836   5.255 -0.0695 -0.0318  0.2946
16758TIP3    H171689   5.362   2.822   5.291 -0.3929  2.5862  0.7525
16758TIP3    H271690   5.444   2.805   5.164 -1.2775 -0.4752  0.5091
16759TIP3   OH271691   1.824   3.405   5.368  0.6607  0.4854  0.7490
16759TIP3    H171692   1.771   3.355   5.305  1.3859 -2.5974  2.3553
16759TIP3    H271693   1.759   3.451   5.421 -0.1407  0.3489 -0.0797
16760TIP3   OH271694   1.243   1.839   5.010 -0.3935  0.3326 -0.2384
16760TIP3    H171695   1.270   1.747   5.006  0.5633  0.6052 -0.1885
16760TIP3    H271696   1.325   1.888   5.008 -0.5524  1.1059  3.7264
16761TIP3   OH271697   5.463   6.370   3.757  0.0140  0.6236 -0.0257
16761TIP3    H171698   5.551   6.384   3.723  0.0898  1.6800  0.5384
16761TIP3    H271699   5.413   6.336   3.683  0.3590  2.1186 -0.9901
16762TIP3   OH271700   6.001   5.305  13.953 -0.1142  0.7283  0.3491
16762TIP3    H171701   6.066   5.373  13.933 -0.3909  0.9906  0.3219
16762TIP3    H271702   5.964   5.282  13.868 -1.7730  2.3301  0.5607
16763TIP3   OH271703   2.965   2.434  13.347  0.2371  0.7228 -0.5693
16763TIP3    H171704   3.021   2.386  13.408 -0.3060  2.1396  1.1155
16763TIP3    H271705   2.878   2.430  13.386 -0.4897  0.2387 -2.1374
16764TIP3   OH271706   3.502   4.791  14.484 -0.2472  0.8221  0.2905
16764TIP3    H171707   3.519   4.882  14.510  2.4553  0.4777  0.0063
16764TIP3    H271708   3.569   4.740  14.530  1.2200 -0.4738 -2.9877
16765TIP3   OH271709   2.706   2.551  11.406 -0.2741  0.3230 -0.1313
16765TIP3    H171710   2.702   2.646  11.413 -0.2880  0.3249 -0.1613
16765TIP3    H271711   2.700   2.534  11.311 -1.2325  0.2524 -0.0689
16766TIP3   OH271712   5.959   4.332   2.346 -0.0059  0.2444 -0.8085
16766TIP3    H171713   5.866   4.315   2.355 -0.4103  1.6223 -2.0034
16766TIP3    H271714   5.980   4.393   2.416  0.1018 -0.3216 -0.3318
16767TIP3   OH271715   3.131   2.193  15.074  0.1608  0.1977 -0.1429
16767TIP3    H171716   3.060   2.143  15.034  0.7596 -0.4714 -0.3934
16767TIP3    H271717   3.183   2.128  15.120  0.5984  0.6829  0.0574
16768TIP3   OH271718   4.164   4.728  15.637  0.2166  0.1734 -0.6662
16768TIP3    H171719   4.203   4.701  15.554 -2.2125 -0.7526 -1.6128
16768TIP3    H271720   4.101   4.796  15.614 -1.3697 -0.9232  0.1672
16769TIP3   OH271721   2.288   0.093  13.172  0.5317  0.0031 -0.1162
16769TIP3    H171722   2.261   0.012  13.128  0.9226  0.3271 -0.9915
16769TIP3    H271723   2.248   0.089  13.259  0.3012 -0.9847 -0.2646
16770TIP3   OH271724   3.094   0.797  15.988  0.0018  0.1838 -0.3395
16770TIP3    H171725   3.005   0.781  16.021 -0.3803 -0.4902 -1.6231
16770TIP3    H271726   3.151   0.756  16.053 -0.7021 -0.7083 -0.2552
16771TIP3   OH271727   6.550   5.970  16.118 -0.3625  0.3966 -0.6014
16771TIP3    H171728   6.628   5.926  16.085  1.3253  3.4794 -1.1773
16771TIP3    H271729   6.479   5.940  16.062  0.5374 -1.7960 -0.6613
16772TIP3   OH271730   4.684   3.583   1.316 -0.2063 -0.3538 -0.1788
16772TIP3    H171731   4.690   3.494   1.351  1.5080  0.7674  2.7059
16772TIP3    H271732   4.673   3.639   1.393  1.4227  2.1525 -1.6212
16773TIP3   OH271733   1.764   3.838   4.784 -1.0805 -0.4083 -0.2278
16773TIP3    H171734   1.840   3.892   4.762  0.1034 -2.1777 -0.7035
16773TIP3    H271735   1.787   3.750   4.753 -2.8214 -1.2535  0.7160
16774TIP3   OH271736   1.376   1.348  11.787  0.0858  0.0901  0.4986
16774TIP3    H171737   1.387   1.391  11.701  2.5049 -0.4921  0.4457
16774TIP3    H271738   1.393   1.418  11.850 -2.1461  0.6299  0.5669
16775TIP3   OH271739   6.731   4.884   5.553 -0.4124  0.6848 -0.2734
16775TIP3    H171740   6.772   4.901   5.468 -0.8039  1.1656 -0.3732
16775TIP3    H271741   6.760   4.796   5.577 -1.7151 -0.2003 -1.7472
16776TIP3   OH271742   3.444   4.674   4.269  0.3965  0.4103 -0.3116
16776TIP3    H171743   3.368   4.728   4.247  0.3920  0.1618 -0.9263
16776TIP3    H271744   3.423   4.635   4.353 -0.6820 -0.6129 -1.0417
16777TIP3   OH271745   5.903   2.655   4.042  0.1800 -0.2747  0.4590
16777TIP3    H171746   5.816   2.694   4.029  0.2402 -0.4654 -0.5924
16777TIP3    H271747   5.889   2.561   4.033  0.4436 -0.3246  0.5596
16778TIP3   OH271748   0.290   3.108   3.551 -0.3081  0.0008 -0.2831
16778TIP3    H171749   0.312   3.180   3.609 -0.5563  0.5070 -0.8080
16778TIP3    H271750   0.248   3.043   3.608 -0.2494  0.3449  0.1549
16779TIP3   OH271751   3.620   6.665  17.006 -0.1655  0.6898 -0.2270
16779TIP3    H171752   3.583   6.724  17.071  0.5039  0.1579  0.6663
16779TIP3    H271753   3.618   6.578  17.047 -0.6615  0.1572 -1.3153
16780TIP3   OH271754   1.378   0.781  10.926 -0.1258 -0.4075 -0.2228
16780TIP3    H171755   1.404   0.689  10.919 -0.3402 -0.4312 -0.7968
16780TIP3    H271756   1.336   0.800  10.842 -0.5382  0.0706  0.0883
16781TIP3   OH271757   3.275   3.478   3.136 -0.1208  0.3521 -0.2261
16781TIP3    H171758   3.188   3.487   3.097  1.1958  2.3532 -3.0691
16781TIP3    H271759   3.332   3.455   3.063  1.6309 -2.5207  1.8195
16782TIP3   OH271760   4.645   1.029  15.853  0.2426  0.2370  0.0433
16782TIP3    H171761   4.696   1.079  15.789 -0.1684  0.7028  0.0720
16782TIP3    H271762   4.685   1.049  15.937  0.1945  0.3717  0.0347
16783TIP3   OH271763   4.163   1.447   4.722 -0.3880  0.1900  0.0722
16783TIP3    H171764   4.069   1.442   4.741 -0.3415 -1.4770 -0.0261
16783TIP3    H271765   4.168   1.449   4.627 -0.3929  3.0275  0.0610
16784TIP3   OH271766   6.705   1.210  15.313 -0.1625 -0.6301  0.5963
16784TIP3    H171767   6.795   1.184  15.331 -0.1393 -0.0082  1.4532
16784TIP3    H271768   6.704   1.231  15.220  0.6258 -0.4882  0.6138
16785TIP3   OH271769   6.481   6.004   1.487  0.2876  1.0519 -0.1132
16785TIP3    H171770   6.437   6.085   1.459 -0.0417  0.6387 -0.8188
16785TIP3    H271771   6.545   5.987   1.418 -1.2064 -0.5220 -1.1738
16786TIP3   OH271772   1.749   3.427   0.287  0.7050  0.3542 -0.4332
16786TIP3    H171773   1.742   3.518   0.259 -0.9032  0.3511 -0.1598
16786TIP3    H271774   1.742   3.431   0.383  1.2782 -0.0129 -0.3697
16787TIP3   OH271775   1.701   0.996   3.961 -0.0508 -0.3758 -0.3256
16787TIP3    H171776   1.739   1.036   4.039 -0.6528 -1.3479  0.4798
16787TIP3    H271777   1.747   0.913   3.952 -0.9236 -0.8723 -0.2256
16788TIP3   OH271778   1.898   3.447  15.144 -0.2772 -0.2647 -0.2488
16788TIP3    H171779   1.814   3.491  15.154 -0.4793 -0.6664 -0.1499
16788TIP3    H271780   1.959   3.498  15.197 -0.2646  0.5339 -1.0015
16789TIP3   OH271781   3.674   3.984   3.082  0.0472 -0.1924 -0.0518
16789TIP3    H171782   3.718   4.059   3.042 -0.3051  1.2165  2.0342
16789TIP3    H271783   3.740   3.946   3.141 -0.6922  0.3666  1.1689
16790TIP3   OH271784   1.747   3.617   6.471  0.5309  0.2173 -0.9232
16790TIP3    H171785   1.823   3.652   6.518  0.0998 -0.9692  0.7450
16790TIP3    H271786   1.694   3.574   6.539 -0.8467 -0.3468 -2.2894
16791TIP3   OH271787   5.539   2.102   4.391 -0.5052 -0.1240 -0.8062
16791TIP3    H171788   5.444   2.110   4.393 -0.4504  0.5805 -0.6337
16791TIP3    H271789   5.557   2.023   4.443 -1.0123 -0.5106 -1.2077
16792TIP3   OH271790   6.268   4.937   2.180 -0.0958 -0.2868 -0.5533
16792TIP3    H171791   6.351   4.980   2.162  1.1333 -2.5714 -0.7670
16792TIP3    H271792   6.262   4.935   2.275  2.4132 -3.9002 -0.2608
16793TIP3   OH271793   4.548   4.838   5.195 -0.4150 -0.2775  0.1717
16793TIP3    H171794   4.519   4.747   5.187  0.3955 -0.6957  1.6689
16793TIP3    H271795   4.580   4.846   5.285 -2.2786  2.0483  0.7406
16794TIP3   OH271796   2.034   2.553  12.369  0.0483  0.0738 -0.0064
16794TIP3    H171797   2.020   2.519  12.458 -0.1319 -1.1399 -0.4729
16794TIP3    H271798   1.950   2.538  12.325  1.0658 -2.4281 -1.3111
16795TIP3   OH271799   0.919   5.564   0.278 -0.2833  1.0292  0.5929
16795TIP3    H171800   0.963   5.592   0.197 -2.1921  0.9293 -0.5466
16795TIP3    H271801   0.864   5.638   0.302  0.7540  1.3102  2.2186
16796TIP3   OH271802   3.493   6.618   2.845  0.5184 -0.5394 -0.0023
16796TIP3    H171803   3.583   6.585   2.840  0.7770  0.2858 -2.4185
16796TIP3    H271804   3.438   6.541   2.834  1.0231 -0.7371 -1.2962
16797TIP3   OH271805   4.512   1.561   4.092  0.0956  0.7697  0.2919
16797TIP3    H171806   4.474   1.646   4.113 -0.5657  0.2785  1.1453
16797TIP3    H271807   4.588   1.553   4.150 -1.4626 -0.3884  2.2829
16798TIP3   OH271808   5.789   1.853  17.024 -0.1492 -0.2135 -0.5028
16798TIP3    H171809   5.766   1.864  17.117 -1.5220 -2.1043 -0.5402
16798TIP3    H271810   5.704   1.855  16.979  0.3338 -1.0964 -1.4756
16799TIP3   OH271811   4.235   5.320   3.634 -0.6015 -0.2034  0.2309
16799TIP3    H171812   4.160   5.286   3.584 -1.0294  1.0804 -0.0174
16799TIP3    H271813   4.227   5.415   3.630  1.8431  0.0506 -1.0785
16800TIP3   OH271814   4.340   2.380  13.589  0.2365 -0.1441  0.2671
16800TIP3    H171815   4.319   2.457  13.536 -1.0806 -0.1410  0.7493
16800TIP3    H271816   4.401   2.413  13.656  1.7845 -0.1164 -1.0948
16801TIP3   OH271817   5.897   5.954   4.183 -0.1713  0.3389 -0.5406
16801TIP3    H171818   5.949   5.984   4.257 -0.9939  1.3207 -0.3383
16801TIP3    H271819   5.859   6.034   4.146  1.3128  0.0570 -2.9007
16802TIP3   OH271820   6.515   2.269  14.495  0.2343 -0.2730 -0.4731
16802TIP3    H171821   6.530   2.362  14.514 -0.6928 -0.1953 -0.0958
16802TIP3    H271822   6.538   2.260  14.403 -0.6327  0.5569 -0.7902
16803TIP3   OH271823   0.677   3.171   0.064 -0.0899  0.1218 -0.2290
16803TIP3    H171824   0.664   3.092   0.116 -0.0531  0.3167  0.0852
16803TIP3    H271825   0.740   3.146  -0.003  0.3489  0.0285  0.2117
16804TIP3   OH271826   5.514   5.101  11.659  0.2228  0.3031 -0.3205
16804TIP3    H171827   5.489   5.191  11.638  1.3423  0.7773  0.2808
16804TIP3    H271828   5.522   5.101  11.754  1.4353 -0.0949 -0.4150
16805TIP3   OH271829   2.867   3.986   4.124  0.6697 -0.5591 -0.2187
16805TIP3    H171830   2.799   3.985   4.056 -0.2812 -0.1907  0.6939
16805TIP3    H271831   2.864   4.075   4.159  0.6478 -0.9366  0.7730
16806TIP3   OH271832   0.172   2.707   2.406 -0.2008  0.1770  0.0888
16806TIP3    H171833   0.147   2.745   2.321  1.2851  0.3838 -0.2727
16806TIP3    H271834   0.180   2.614   2.389 -0.4699  0.1383  0.1579
16807TIP3   OH271835   1.867   1.393  11.712  0.1577 -0.0020 -0.1223
16807TIP3    H171836   1.804   1.321  11.715  0.6811 -0.4645  0.0515
16807TIP3    H271837   1.859   1.436  11.797  0.4490 -0.3902  0.1048
16808TIP3   OH271838   6.587   2.371  15.105 -0.1577  0.0063  0.2034
16808TIP3    H171839   6.512   2.417  15.067 -0.0830 -0.5496 -0.6536
16808TIP3    H271840   6.549   2.292  15.144  0.0788 -0.8031 -1.1417
16809TIP3   OH271841   4.541   2.851  10.789  0.0905 -0.1044 -0.6629
16809TIP3    H171842   4.477   2.857  10.718 -2.0499  0.7471  1.1927
16809TIP3    H271843   4.619   2.893  10.755 -0.5398 -0.5462 -2.8007
16810TIP3   OH271844   1.192   3.593   3.643 -0.0902 -0.6215  0.0504
16810TIP3    H171845   1.175   3.620   3.552  0.2051  2.2134  0.7491
16810TIP3    H271846   1.106   3.578   3.681 -0.3369  0.4145 -0.0912
16811TIP3   OH271847   2.102   1.492   1.532  0.3204  0.1614 -0.0519
16811TIP3    H171848   2.070   1.564   1.586  1.4849  1.8162 -1.4668
16811TIP3    H271849   2.197   1.495   1.542  0.4478 -0.5298 -0.9329
16812TIP3   OH271850   0.870   4.596  16.975 -0.2542  0.6850 -0.2570
16812TIP3    H171851   0.886   4.683  17.012  2.4607 -0.0509  0.4652
16812TIP3    H271852   0.837   4.614  16.886  0.4030  2.4517 -0.1808
16813TIP3   OH271853   4.087   3.269   3.380  0.3564  0.9209  0.2124
16813TIP3    H171854   4.147   3.235   3.445  0.4922  1.3377  0.3095
16813TIP3    H271855   4.000   3.260   3.420  0.1857 -1.0255 -0.5034
16814TIP3   OH271856   6.218   1.559  11.911 -0.4313 -0.2560  0.0399
16814TIP3    H171857   6.188   1.615  11.839 -0.6965 -1.0901 -0.5207
16814TIP3    H271858   6.285   1.611  11.956 -1.0406  0.7079 -0.1392
16815TIP3   OH271859   6.436   3.506  13.418  0.5522  0.4236  0.1345
16815TIP3    H171860   6.473   3.558  13.489  0.3480 -0.4601  0.9048
16815TIP3    H271861   6.454   3.416  13.442  2.3124  0.1385 -1.9619
16816TIP3   OH271862   2.427   3.503   4.264 -0.2358 -0.4211 -0.0182
16816TIP3    H171863   2.442   3.425   4.317  0.1789 -0.2285  0.1518
16816TIP3    H271864   2.507   3.555   4.273 -0.9988  0.6418  0.9312
16817TIP3   OH271865   6.757   4.866  12.767  0.0999 -0.3054  0.0353
16817TIP3    H171866   6.778   4.774  12.784  0.6011 -0.1769  0.1359
16817TIP3    H271867   6.841   4.905  12.741 -0.3091 -0.1164 -1.0824
16818TIP3   OH271868   2.195   2.909  10.713 -0.2460 -0.1912  0.2391
16818TIP3    H171869   2.166   2.846  10.647  1.3737  0.0532 -0.7651
16818TIP3    H271870   2.114   2.938  10.755 -1.1190 -2.2226  0.1025
16819TIP3   OH271871   1.496   1.119   2.381  0.1759  0.0472 -0.2328
16819TIP3    H171872   1.428   1.098   2.446 -0.0852 -1.0506 -0.8209
16819TIP3    H271873   1.578   1.117   2.430 -0.0826 -0.1096  0.1996
16820TIP3   OH271874   5.504   2.739   3.360  0.2028  0.2454 -0.2006
16820TIP3    H171875   5.534   2.655   3.394  2.1191  0.7290 -0.5627
16820TIP3    H271876   5.567   2.761   3.291 -0.6364  1.6702 -0.5728
16821TIP3   OH271877   2.808   3.330   1.578 -0.5380  0.1415  0.9227
16821TIP3    H171878   2.886   3.383   1.563 -0.0745 -0.5700  0.7477
16821TIP3    H271879   2.842   3.244   1.602 -1.2119 -0.7745 -1.1195
16822TIP3   OH271880   4.896   1.139   1.638 -0.3505  0.1834 -0.1398
16822TIP3    H171881   4.921   1.215   1.586 -0.3684  0.8109  0.7527
16822TIP3    H271882   4.956   1.140   1.712  1.5151 -2.2597 -1.4639
16823TIP3   OH271883   4.198   2.761  13.225  0.1436  0.4216 -0.0761
16823TIP3    H171884   4.200   2.856  13.238  1.1231  0.3089  0.7188
16823TIP3    H271885   4.116   2.745  13.178 -0.0399  1.6553 -0.2074
16824TIP3   OH271886   4.354   1.944   2.773 -0.0296  0.1602  0.3817
16824TIP3    H171887   4.346   2.040   2.776  1.3345  0.7761 -5.0081
16824TIP3    H271888   4.438   1.926   2.815  0.4887  1.5768  0.0322
16825TIP3   OH271889   0.260   2.560  13.588 -0.2741  0.1937 -0.1734
16825TIP3    H171890   0.226   2.533  13.674  1.1446 -0.0456  0.3396
16825TIP3    H271891   0.189   2.538  13.527 -1.0193 -0.3308  0.8375
16826TIP3   OH271892   5.159   3.836  11.552 -0.0415 -0.0755  0.6137
16826TIP3    H171893   5.080   3.886  11.533 -0.5943 -1.3170 -0.5478
16826TIP3    H271894   5.187   3.803  11.466  3.3706  2.6181  0.4622
16827TIP3   OH271895   4.160   5.032  12.392 -0.7475 -0.4205  0.0767
16827TIP3    H171896   4.147   5.104  12.330 -0.3761 -1.4489 -1.2416
16827TIP3    H271897   4.125   4.955  12.347  0.3307 -1.3532  0.7884
16828TIP3   OH271898   2.994   2.588   4.432  0.8007  0.1314  0.4026
16828TIP3    H171899   2.999   2.636   4.514 -2.4880  1.3412  0.0640
16828TIP3    H271900   3.060   2.629   4.376  1.0814  1.2690  1.5206
16829TIP3   OH271901   5.187   0.485   1.302 -0.5522 -0.3094  0.0460
16829TIP3    H171902   5.099   0.515   1.277 -1.0222 -1.2566  0.5080
16829TIP3    H271903   5.181   0.390   1.302  0.2698 -0.3736  0.8294
16830TIP3   OH271904   1.880   2.338   3.077 -0.6659 -0.1434 -0.6178
16830TIP3    H171905   1.820   2.289   3.021 -0.1061  0.0013 -1.3666
16830TIP3    H271906   1.829   2.413   3.107 -0.8756 -0.0430 -1.2137
16831TIP3   OH271907   0.828   3.988   2.141  0.6201 -0.2459 -0.0585
16831TIP3    H171908   0.855   3.949   2.058  1.3109  1.1177 -0.4984
16831TIP3    H271909   0.891   4.059   2.156 -0.1935  0.2665  1.0434
16832TIP3   OH271910   3.284   5.278  16.960  0.7092  0.1688  0.3548
16832TIP3    H171911   3.376   5.270  16.986  0.5941 -0.3432  0.6202
16832TIP3    H271912   3.285   5.339  16.885  1.3740 -0.5453 -0.2366
16833TIP3   OH271913   2.712   2.989  11.591  0.3320 -0.5320  0.5624
16833TIP3    H171914   2.622   3.020  11.606  0.2337 -0.3493 -0.3907
16833TIP3    H271915   2.746   3.046  11.522  0.9675 -1.0156  0.4710
16834TIP3   OH271916   6.665   0.530  11.194  0.0751  0.1850  0.0012
16834TIP3    H171917   6.614   0.588  11.250 -1.0175  0.1748 -0.9488
16834TIP3    H271918   6.601   0.467  11.160  1.0158 -0.8369  0.0574
16835TIP3   OH271919   2.972   1.655  15.495  0.1174 -0.2454  0.2285
16835TIP3    H171920   3.021   1.572  15.495  0.5341 -0.0602  2.5281
16835TIP3    H271921   2.939   1.663  15.405  2.5477 -1.4246 -0.8767
16836TIP3   OH271922   2.760   3.720   2.027  0.6870 -0.0835 -0.4379
16836TIP3    H171923   2.692   3.667   1.986  0.1669  1.4537 -1.7025
16836TIP3    H271924   2.842   3.676   2.004  0.2388 -0.7593 -0.7836
16837TIP3   OH271925   5.737   6.724  13.862  0.3166 -0.7818  0.0707
16837TIP3    H171926   5.830   6.744  13.853  0.4319 -0.9922  0.7342
16837TIP3    H271927   5.720   6.660  13.793 -0.0505  1.4661 -2.0637
16838TIP3   OH271928   4.251   1.397  14.878  0.1456  0.2692  0.5462
16838TIP3    H171929   4.206   1.360  14.802 -0.8355  1.5756  0.4595
16838TIP3    H271930   4.198   1.472  14.904  0.7683  0.1979  2.1871
16839TIP3   OH271931   4.815   2.581  11.466 -0.1211 -0.0390  0.3893
16839TIP3    H171932   4.903   2.599  11.434  0.1123  0.5352  1.3034
16839TIP3    H271933   4.820   2.494  11.504  0.3666  0.4395  1.4619
16840TIP3   OH271934   4.674   6.417  14.206 -0.4990 -0.0783 -0.1867
16840TIP3    H171935   4.614   6.357  14.250 -0.4047  0.0604  0.1369
16840TIP3    H271936   4.617   6.478  14.158 -0.6293  0.2551  0.3839
16841TIP3   OH271937   4.595   4.432   2.439  0.0576 -0.0943  0.1522
16841TIP3    H171938   4.614   4.361   2.501 -0.4174 -0.9965 -0.7021
16841TIP3    H271939   4.584   4.510   2.494  0.1984 -0.7587  1.1477
16842TIP3   OH271940   6.307   1.048  15.320 -0.4004  0.2374 -0.6427
16842TIP3    H171941   6.222   1.005  15.332 -1.0151  1.3416 -0.8316
16842TIP3    H271942   6.284   1.135  15.288  0.7351  1.0648  0.6885
16843TIP3   OH271943   2.305   6.635   5.803 -0.2598  0.1052 -0.1860
16843TIP3    H171944   2.237   6.626   5.736  0.8668  2.1127 -1.7229
16843TIP3    H271945   2.260   6.670   5.880 -1.3120 -0.7088 -0.4128
16844TIP3   OH271946   2.521   1.943   5.714 -0.2503 -0.4856 -0.1887
16844TIP3    H171947   2.457   1.887   5.759 -0.5593  0.7127  0.9092
16844TIP3    H271948   2.602   1.932   5.763  0.1190 -1.1504 -0.9192
16845TIP3   OH271949   0.595   1.780   0.595 -0.1702  0.2983  0.3992
16845TIP3    H171950   0.600   1.856   0.536 -0.7621 -0.2818 -0.4265
16845TIP3    H271951   0.578   1.818   0.681  0.8879  1.1763  0.2441
16846TIP3   OH271952   3.393   2.262  14.392 -0.2066 -0.5895  0.0396
16846TIP3    H171953   3.299   2.275  14.402 -0.0213  1.5871 -0.6045
16846TIP3    H271954   3.415   2.194  14.456 -2.3415 -1.8924 -0.5084
16847TIP3   OH271955   1.702   4.601  14.441  0.7288 -0.3732 -0.4081
16847TIP3    H171956   1.780   4.555  14.411  1.4079  1.0826 -0.9804
16847TIP3    H271957   1.652   4.620  14.361  1.4670  1.5928 -0.4749
16848TIP3   OH271958   4.457   4.436  13.347 -0.3157 -0.1659 -0.4166
16848TIP3    H171959   4.438   4.351  13.308 -0.8891 -0.3500  0.2401
16848TIP3    H271960   4.480   4.492  13.273 -1.3956 -0.4949 -1.0181
16849TIP3   OH271961   2.673   5.750   5.815  0.0977 -0.5395 -0.0746
16849TIP3    H171962   2.612   5.709   5.876 -0.7019 -2.3057 -1.9566
16849TIP3    H271963   2.759   5.716   5.842 -0.1308 -0.6561  0.5411
16850TIP3   OH271964   1.228   2.744  16.254  0.2618 -0.2020 -0.3828
16850TIP3    H171965   1.315   2.776  16.276 -0.1650  1.3397 -0.8572
16850TIP3    H271966   1.231   2.727  16.160  0.5707 -1.9169 -0.0934
16851TIP3   OH271967   5.428   0.270   1.834 -0.3791  0.3687  0.1162
16851TIP3    H171968   5.386   0.353   1.859  0.2942  0.1631  2.0769
16851TIP3    H271969   5.369   0.203   1.869  0.3997  0.0661  0.8787
16852TIP3   OH271970   5.383   0.127  12.936  0.2672  0.3329 -0.1574
16852TIP3    H171971   5.418   0.100  13.021 -0.7049 -1.8020 -0.3776
16852TIP3    H271972   5.295   0.158  12.954  0.0653 -0.1047 -0.3771
16853TIP3   OH271973   1.344   0.107   0.578  0.2183 -0.1948 -0.3363
16853TIP3    H171974   1.317   0.020   0.608  1.0541 -0.7505 -1.1444
16853TIP3    H271975   1.331   0.105   0.484 -1.4854  1.2069 -0.1957
16854TIP3   OH271976   1.431   5.219   3.570 -0.2583  0.0657 -0.1324
16854TIP3    H171977   1.514   5.261   3.547 -0.9260  1.0098 -0.9172
16854TIP3    H271978   1.434   5.134   3.526  1.2944 -0.9755  1.8216
16855TIP3   OH271979   6.448   6.475  16.165 -0.6731  0.5360 -0.1683
16855TIP3    H171980   6.501   6.400  16.191 -0.4368  0.7563 -0.0054
16855TIP3    H271981   6.359   6.452  16.192 -0.5901  0.3440 -0.0548
16856TIP3   OH271982   6.770   1.592  12.469  0.0793 -0.3316 -0.2007
16856TIP3    H171983   6.712   1.584  12.394  0.2842  0.0263 -0.3993
16856TIP3    H271984   6.763   1.507  12.514  0.7993 -0.9541 -1.2291
16857TIP3   OH271985   2.507   6.126   3.209  0.4787 -0.1513  0.0602
16857TIP3    H171986   2.527   6.106   3.118 -0.0177  1.4079 -0.4312
16857TIP3    H271987   2.586   6.102   3.258  1.1285 -0.0310 -0.9165
16858TIP3   OH271988   3.691   4.150   4.473  0.1837  0.2250 -0.5548
16858TIP3    H171989   3.766   4.197   4.438 -0.0141  0.9645  0.0137
16858TIP3    H271990   3.671   4.192   4.556 -0.5105 -0.3279 -0.4249
16859TIP3   OH271991   5.648   6.125  15.853 -0.1201 -0.0581  0.4965
16859TIP3    H171992   5.583   6.164  15.912 -1.9538 -2.1857  0.0420
16859TIP3    H271993   5.613   6.037  15.835  1.3837 -0.1952 -2.1885
16860TIP3   OH271994   3.597   1.795   4.751 -0.4551 -0.6827 -0.1732
16860TIP3    H171995   3.622   1.758   4.835  0.3976 -0.6907 -0.4196
16860TIP3    H271996   3.679   1.821   4.710 -1.0017  1.3215 -0.0996
16861TIP3   OH271997   3.224   5.949  12.850 -0.1518 -0.1045  0.1400
16861TIP3    H171998   3.276   5.944  12.769 -2.7470 -0.3623 -1.6452
16861TIP3    H271999   3.150   5.891  12.834 -0.2609 -0.9384  3.1804
16862TIP3   OH272000   6.052   2.737  12.640 -0.2362  0.2464 -0.2756
16862TIP3    H172001   6.020   2.760  12.553 -1.2346 -1.5329 -0.4155
16862TIP3    H272002   5.985   2.770  12.700 -0.9085 -0.8714 -0.3817
16863TIP3   OH272003   1.249   4.226  15.508 -0.4771 -0.2538  0.1845
16863TIP3    H172004   1.157   4.199  15.514  0.0663 -1.9495  2.0319
16863TIP3    H272005   1.266   4.270  15.591  0.3400  0.2226 -0.2262
16864TIP3   OH272006   4.195   3.379   3.843 -0.1820  0.0158  0.0268
16864TIP3    H172007   4.201   3.472   3.867  1.0466 -0.0589  0.0715
16864TIP3    H272008   4.149   3.338   3.916 -0.5748  0.5559  0.0910
16865TIP3   OH272009   3.342   3.385  16.193  0.3047  0.0340  0.6518
16865TIP3    H172010   3.359   3.479  16.183  2.0770  0.0693  2.9563
16865TIP3    H272011   3.424   3.349  16.227  0.2837 -2.7484 -1.8196
16866TIP3   OH272012   0.245   2.311  13.327  0.3680 -0.2532  0.5963
16866TIP3    H172013   0.259   2.382  13.264 -0.2956  0.4885  1.2489
16866TIP3    H272014   0.333   2.285  13.354  0.6408 -0.1474 -0.1580
16867TIP3   OH272015   0.465   1.745   0.303  0.4478 -0.1991 -0.0826
16867TIP3    H172016   0.423   1.698   0.375  2.5601  2.0661  2.8612
16867TIP3    H272017   0.550   1.701   0.293  0.8445  0.5537 -0.0343
16868TIP3   OH272018   2.660   2.842   0.767 -0.0315  0.3231  0.0846
16868TIP3    H172019   2.589   2.871   0.709 -0.8524 -0.6142  0.5944
16868TIP3    H272020   2.617   2.828   0.851  0.1418 -2.9331 -0.2399
16869TIP3   OH272021   6.042   5.282   2.248  0.2679  0.5542 -0.3819
16869TIP3    H172022   6.043   5.377   2.234 -0.7886  0.3336 -2.3351
16869TIP3    H272023   5.952   5.256   2.228  0.8649 -1.0156 -1.1786
16870TIP3   OH272024   6.534   5.143   0.670 -0.4856 -0.1767  0.1100
16870TIP3    H172025   6.536   5.232   0.634 -0.5782 -0.0515  0.4043
16870TIP3    H272026   6.580   5.090   0.606 -3.0691 -0.5076 -1.6319
16871TIP3   OH272027   2.864   5.311  14.064 -0.9929  0.4867 -0.1471
16871TIP3    H172028   2.793   5.373  14.079 -0.4796  0.5110  2.7813
16871TIP3    H272029   2.919   5.318  14.142  0.8266 -1.3938 -1.1518
16872TIP3   OH272030   3.940   2.063  10.630  0.0804 -0.1421 -0.1791
16872TIP3    H172031   4.031   2.073  10.603 -0.2305 -0.8572 -1.5321
16872TIP3    H272032   3.933   2.120  10.707  1.2744  1.1025 -0.9242
16873TIP3   OH272033   5.504   0.095   0.668  0.9356  0.2470  0.0232
16873TIP3    H172034   5.413   0.064   0.673  1.6150 -2.0375 -0.4846
16873TIP3    H272035   5.528   0.114   0.758 -0.0150  0.8031  0.1758
16874TIP3   OH272036   5.983   6.537   0.683 -0.2513  0.1455 -0.1874
16874TIP3    H172037   5.963   6.622   0.643 -0.9972  0.3776  0.6419
16874TIP3    H272038   5.993   6.557   0.777 -0.8706 -0.7454  0.0810
16875TIP3   OH272039   3.351   1.286   2.402 -0.1783  0.0565 -0.3507
16875TIP3    H172040   3.432   1.329   2.377  0.1951 -0.5806 -0.2509
16875TIP3    H272041   3.367   1.193   2.388 -0.5252 -0.1736  0.6695
16876TIP3   OH272042   6.496   5.120   5.209 -0.6117  0.0834 -0.0749
16876TIP3    H172043   6.480   5.055   5.278  0.7733 -0.4946 -0.2480
16876TIP3    H272044   6.581   5.094   5.172 -1.7473 -0.2206 -2.6673
16877TIP3   OH272045   4.580   0.695  15.790  0.1293  0.1981 -0.0346
16877TIP3    H172046   4.512   0.628  15.801 -0.4837  0.6771 -0.7796
16877TIP3    H272047   4.648   0.671  15.853 -0.1040 -1.0839 -0.2450
16878TIP3   OH272048   5.839   1.017  14.946 -0.0120 -0.1455 -0.0292
16878TIP3    H172049   5.813   0.953  15.013 -2.3106  1.1614  0.4445
16878TIP3    H272050   5.809   0.979  14.864 -0.0842 -0.3018  0.0687
16879TIP3   OH272051   6.010   2.629   2.840  0.2867  0.1970  0.1649
16879TIP3    H172052   5.943   2.608   2.775  0.2574  0.3060  0.1604
16879TIP3    H272053   5.979   2.710   2.882 -0.5558 -0.7616  1.4944
16880TIP3   OH272054   3.775   2.742   1.749  0.3302 -0.0731  0.6097
16880TIP3    H172055   3.827   2.776   1.676  0.7619 -1.3793  0.2764
16880TIP3    H272056   3.727   2.818   1.782 -0.3491  0.4608 -1.4368
16881TIP3   OH272057   2.218   2.325  14.192 -0.0290 -0.4278 -0.2126
16881TIP3    H172058   2.278   2.396  14.167  0.7783 -1.0284 -0.0309
16881TIP3    H272059   2.156   2.366  14.252  0.6892  0.0424  0.2281
16882TIP3   OH272060   5.310   0.565  11.073  0.2885 -0.4744  0.2326
16882TIP3    H172061   5.323   0.473  11.097  0.5555 -1.0320 -1.8316
16882TIP3    H272062   5.397   0.597  11.051 -0.1170 -0.5460 -1.6384
16883TIP3   OH272063   2.458   5.243  16.243 -0.0245 -0.2057 -0.1543
16883TIP3    H172064   2.387   5.262  16.305  1.6402 -1.1921  2.2034
16883TIP3    H272065   2.492   5.329  16.218  0.8986  0.2428  2.3796
16884TIP3   OH272066   3.198   2.356   2.382  0.1137 -0.2819  0.2154
16884TIP3    H172067   3.110   2.325   2.406  0.2105 -1.1761 -0.4912
16884TIP3    H272068   3.182   2.426   2.319 -0.1101  0.9656  1.6198
16885TIP3   OH272069   5.680   1.081  15.396 -0.3756  0.1587 -0.6027
16885TIP3    H172070   5.598   1.054  15.438 -0.5282 -1.5200 -1.8354
16885TIP3    H272071   5.696   1.012  15.332  2.1547  0.3057 -0.2072
16886TIP3   OH272072   0.423   3.990  15.715  0.1197 -0.0237  0.6578
16886TIP3    H172073   0.355   4.050  15.747  0.9680  0.6919  1.1763
16886TIP3    H272074   0.468   3.960  15.794  0.0411 -0.9531  0.3610
16887TIP3   OH272075   6.077   4.340  11.252 -0.2920  0.0431  0.2671
16887TIP3    H172076   6.133   4.262  11.256  0.4911  0.6053  0.5533
16887TIP3    H272077   5.988   4.305  11.245  0.1900 -0.8861 -2.2551
16888TIP3   OH272078   1.790   6.703   4.335 -0.3193 -0.1108  0.2971
16888TIP3    H172079   1.866   6.648   4.355  0.1699  0.2347 -0.5525
16888TIP3    H272080   1.722   6.641   4.308  0.6661 -0.2955 -2.0676
16889TIP3   OH272081   3.056   1.819   2.252  0.2011 -0.5165 -0.3097
16889TIP3    H172082   3.021   1.897   2.295 -0.9337 -1.9975  1.6555
16889TIP3    H272083   3.008   1.746   2.292  3.0433 -2.4461 -0.0595
16890TIP3   OH272084   5.164   4.092   5.532  0.1524  0.4399 -0.1850
16890TIP3    H172085   5.132   4.053   5.613  0.4040  0.0182 -0.2824
16890TIP3    H272086   5.176   4.017   5.473 -1.9162  0.9047 -1.2969
16891TIP3   OH272087   0.648   4.259   0.351 -0.0645 -0.0404 -0.1012
16891TIP3    H172088   0.646   4.318   0.276 -1.9542  1.4600  1.0522
16891TIP3    H272089   0.566   4.276   0.398  1.0247 -0.9385  2.2881
16892TIP3   OH272090   4.434   3.482  17.034 -0.6621  0.0984  0.0218
16892TIP3    H172091   4.459   3.570  17.008 -0.4159  0.1348  0.3724
16892TIP3    H272092   4.457   3.427  16.959  0.6962  0.0963  0.3989
16893TIP3   OH272093   5.409   3.179   3.288 -0.7397  0.2277  0.1305
16893TIP3    H172094   5.476   3.215   3.346 -1.9667  1.9715  0.5364
16893TIP3    H272095   5.399   3.245   3.219 -3.2342  0.9096  1.0406
16894TIP3   OH272096   4.570   5.144  14.789  0.0284  0.0035 -0.0444
16894TIP3    H172097   4.522   5.062  14.783 -0.6934  0.3160  1.1302
16894TIP3    H272098   4.520   5.206  14.736 -1.2373  0.4696  1.6133
16895TIP3   OH272099   3.278   2.182   4.049  0.1636  0.4295 -0.1192
16895TIP3    H172100   3.209   2.194   3.984  0.6144  0.1895 -0.6424
16895TIP3    H272101   3.232   2.147   4.126  0.0944 -2.7128 -1.4328
16896TIP3   OH272102   1.362   0.456   2.557 -0.7585  0.1396 -0.2528
16896TIP3    H172103   1.279   0.462   2.605 -0.1275  0.7887  0.7997
16896TIP3    H272104   1.378   0.545   2.525 -0.4385  0.0345 -0.3945
16897TIP3   OH272105   5.915   6.225   3.271  0.1111 -0.0766  0.1922
16897TIP3    H172106   5.853   6.229   3.344  0.5029 -1.2506  0.6000
16897TIP3    H272107   5.861   6.242   3.193 -0.3562  0.9022  0.7094
16898TIP3   OH272108   2.887   1.050  10.409  0.6756  0.4169 -0.0036
16898TIP3    H172109   2.839   1.024  10.331 -0.2530  1.7482  0.0877
16898TIP3    H272110   2.844   1.003  10.481  0.0366  0.9428 -0.0297
16899TIP3   OH272111   3.731   5.948  16.550 -0.0722 -0.3886 -0.0511
16899TIP3    H172112   3.826   5.957  16.545 -0.1990  1.8584  0.5135
16899TIP3    H272113   3.700   5.982  16.466 -0.4417  1.4347  0.7647
16900TIP3   OH272114   4.117   2.728   0.746 -0.1788  0.5979 -0.2981
16900TIP3    H172115   4.082   2.671   0.815  0.6861  0.3503 -0.0504
16900TIP3    H272116   4.050   2.727   0.678  0.1084 -1.3012 -0.6101
16901TIP3   OH272117   0.865   0.472  14.932 -0.1414 -0.4925 -0.4325
16901TIP3    H172118   0.914   0.503  14.856  0.6584  0.5939  0.4739
16901TIP3    H272119   0.797   0.416  14.896 -0.1138  0.4067 -1.9805
16902TIP3   OH272120   2.303   4.957   6.273  0.1150  0.3850  0.2076
16902TIP3    H172121   2.386   4.948   6.226 -0.1150  0.0775 -0.1437
16902TIP3    H272122   2.328   4.972   6.364  0.5575 -1.5256  0.4321
16903TIP3   OH272123   1.492   2.219   5.464 -0.5846 -0.8022  0.8087
16903TIP3    H172124   1.427   2.286   5.483 -1.3407 -1.2990  0.0790
16903TIP3    H272125   1.528   2.244   5.379 -1.8650 -2.0203 -0.1451
16904TIP3   OH272126   2.119   5.261   0.841 -0.1781  0.6187  0.1994
16904TIP3    H172127   2.026   5.255   0.817 -1.3499  2.8615  3.5145
16904TIP3    H272128   2.161   5.301   0.765 -2.2135  0.9758 -0.8067
16905TIP3   OH272129   6.413   5.613   6.225 -0.3943  0.3780 -0.0800
16905TIP3    H172130   6.441   5.704   6.231  1.9948 -0.2440 -0.6104
16905TIP3    H272131   6.446   5.572   6.305  0.8021 -0.5112 -0.9875
16906TIP3   OH272132   0.506   0.747  15.837  0.2086  0.1975  0.0445
16906TIP3    H172133   0.499   0.769  15.744 -0.7178  0.6743  0.2172
16906TIP3    H272134   0.438   0.681  15.852 -1.2554  1.7968  0.8541
16907TIP3   OH272135   3.233   0.910  11.869  0.3026 -0.6825  0.0442
16907TIP3    H172136   3.300   0.962  11.825  0.6203 -0.7822  0.4073
16907TIP3    H272137   3.155   0.965  11.867  0.0421 -1.0716 -1.4944
16908TIP3   OH272138   3.566   3.943   5.279 -0.6376 -0.4188  0.4929
16908TIP3    H172139   3.621   3.971   5.206 -0.9150 -2.1702 -0.4469
16908TIP3    H272140   3.611   3.978   5.357  0.1778  0.6780 -0.4242
16909TIP3   OH272141   2.636   0.178  14.323 -0.2557 -0.1708 -0.1601
16909TIP3    H172142   2.542   0.159  14.325 -0.1240 -1.2329 -1.7348
16909TIP3    H272143   2.656   0.210  14.410 -1.7850 -1.3749  0.6938
16910TIP3   OH272144   1.600   0.091  13.212  0.2923 -0.0917  0.1294
16910TIP3    H172145   1.665   0.093  13.142  0.1972 -1.9556 -0.0537
16910TIP3    H272146   1.615   0.172  13.261  1.8177  0.1845 -0.7357
16911TIP3   OH272147   3.804   4.335  13.143  0.0842  0.3253 -0.9907
16911TIP3    H172148   3.774   4.244  13.138  1.8845 -0.3403 -0.3653
16911TIP3    H272149   3.735   4.385  13.099 -1.3256 -1.2362 -0.6652
16912TIP3   OH272150   5.588   1.614   5.319  0.0168 -0.0284  0.2306
16912TIP3    H172151   5.606   1.574   5.234  1.4989  1.5433 -0.2485
16912TIP3    H272152   5.599   1.708   5.304  0.1226  0.2905  2.1111
16913TIP3   OH272153   5.673   5.604   3.468  0.7699 -0.2090 -0.6471
16913TIP3    H172154   5.632   5.563   3.392 -0.9072 -0.1870  0.1974
16913TIP3    H272155   5.691   5.694   3.440 -1.0202  0.1806 -0.6437
16914TIP3   OH272156   1.936   0.323   1.201 -0.2863  0.1737  0.4110
16914TIP3    H172157   2.022   0.302   1.236 -0.1215 -1.5157 -0.8646
16914TIP3    H272158   1.942   0.414   1.174  1.1709  0.0127  0.1336
16915TIP3   OH272159   3.869   5.707   1.306 -0.7472  0.1271 -0.0729
16915TIP3    H172160   3.886   5.633   1.364  2.0909  0.9227  0.2385
16915TIP3    H272161   3.801   5.757   1.351 -1.5616 -1.3975  0.4842
16916TIP3   OH272162   1.914   1.753  13.804  0.1988 -0.1422 -0.1018
16916TIP3    H172163   1.997   1.792  13.831  0.4653 -0.7969  0.0512
16916TIP3    H272164   1.936   1.698  13.729 -0.2772  0.4684 -0.6950
16917TIP3   OH272165   3.265   4.573   5.519  0.1543 -0.2117  0.0900
16917TIP3    H172166   3.349   4.592   5.561 -0.2534  0.5936  0.5443
16917TIP3    H272167   3.239   4.655   5.478 -0.7125 -0.2945  0.4711
16918TIP3   OH272168   6.304   6.518  11.290  0.4073 -0.1624  0.0766
16918TIP3    H172169   6.295   6.461  11.213 -1.0321  0.5287 -0.2938
16918TIP3    H272170   6.267   6.466  11.362 -0.1614 -0.0207 -0.1070
16919TIP3   OH272171   0.180   6.308   5.246  0.0733 -0.2718 -0.0911
16919TIP3    H172172   0.270   6.282   5.227 -0.0234  0.0975 -1.1039
16919TIP3    H272173   0.177   6.315   5.342  0.3959 -2.9011  0.1894
16920TIP3   OH272174   4.605   4.097  16.789  0.1031 -0.3618 -0.1769
16920TIP3    H172175   4.651   4.176  16.816  0.6676 -1.1898  1.3825
16920TIP3    H272176   4.618   4.093  16.694  1.6529  0.4323 -0.0248
16921TIP3   OH272177   6.010   5.649   0.074  0.4156 -0.3678  0.1606
16921TIP3    H172178   6.034   5.591   0.002 -0.2313  0.1045 -0.4515
16921TIP3    H272179   6.018   5.737   0.037  1.2115 -0.0636  1.0183
16922TIP3   OH272180   1.826   0.232  16.674 -0.5483 -0.1607  0.2595
16922TIP3    H172181   1.754   0.175  16.703 -1.2020 -0.2275 -1.3567
16922TIP3    H272182   1.784   0.316  16.656 -0.4132 -0.4192 -1.4574
16923TIP3   OH272183   0.869   4.003  14.704  0.3271  0.0994 -0.3912
16923TIP3    H172184   0.952   4.051  14.709  0.5573 -0.3942  1.5031
16923TIP3    H272185   0.804   4.070  14.680  1.0899  0.7398 -0.7143
16924TIP3   OH272186   1.071   2.432   3.153 -0.2057 -1.1039  0.4207
16924TIP3    H172187   1.080   2.396   3.241  1.9660 -0.5982  0.4668
16924TIP3    H272188   1.109   2.366   3.095 -2.3551 -1.7967 -0.2885
16925TIP3   OH272189   6.670   6.643  14.634 -0.0190 -0.1149 -0.4312
16925TIP3    H172190   6.658   6.549  14.646  1.4405 -0.2334  0.2581
16925TIP3    H272191   6.630   6.682  14.711  0.6868 -0.2815  0.0330
16926TIP3   OH272192   5.624   3.368  16.703  0.0193 -0.8378 -0.2624
16926TIP3    H172193   5.535   3.379  16.670 -0.3466 -1.3867  0.5097
16926TIP3    H272194   5.648   3.279  16.680  0.3884 -0.6835 -0.4922
16927TIP3   OH272195   1.458   2.857  15.021  0.2206  0.1999  0.3743
16927TIP3    H172196   1.526   2.924  15.027 -0.7781  1.1407  1.5442
16927TIP3    H272197   1.441   2.832  15.111 -0.1078 -0.9419  0.0028
16928TIP3   OH272198   0.731   4.014  11.360  0.5128  0.2425 -0.1844
16928TIP3    H172199   0.788   3.955  11.310 -0.1724 -0.0872 -0.5872
16928TIP3    H272200   0.674   4.054  11.295  0.4763  0.7986  0.1814
16929TIP3   OH272201   0.928   4.590   4.115 -0.0524 -0.0028 -0.2719
16929TIP3    H172202   0.833   4.575   4.110  0.0716 -1.0081  0.1536
16929TIP3    H272203   0.937   4.664   4.175 -0.4523 -1.9603  2.3806
16930TIP3   OH272204   1.688   4.301   0.871 -0.2405  0.5557  0.4315
16930TIP3    H172205   1.638   4.360   0.815 -0.3518  0.1822  0.1302
16930TIP3    H272206   1.773   4.293   0.829 -0.3854  0.1327  0.2167
16931TIP3   OH272207   3.097   4.370  12.041  0.0397 -0.0808  0.1961
16931TIP3    H172208   3.089   4.306  11.970 -2.2626 -1.4810  1.6001
16931TIP3    H272209   3.027   4.433  12.024 -0.4418 -0.3498  1.1217
16932TIP3   OH272210   1.923   0.173  12.300 -0.3290  0.3294 -0.1393
16932TIP3    H172211   2.009   0.149  12.265 -0.6011 -0.2527 -0.4298
16932TIP3    H272212   1.861   0.132  12.239 -0.8083  0.4517  0.2639
16933TIP3   OH272213   0.383   0.615   1.515 -0.3592  0.1342 -0.9345
16933TIP3    H172214   0.471   0.638   1.486 -0.0625  0.9022  0.4745
16933TIP3    H272215   0.342   0.575   1.438  1.1043  0.0404 -1.7015
16934TIP3   OH272216   2.795   5.713  13.272 -0.2912  0.4095 -0.1508
16934TIP3    H172217   2.823   5.680  13.187 -2.3134  0.2454 -0.7887
16934TIP3    H272218   2.831   5.650  13.335  1.5934  0.7754 -0.8116
16935TIP3   OH272219   3.627   0.607  12.618  0.0739 -0.3353  0.5780
16935TIP3    H172220   3.672   0.564  12.545 -2.0566 -1.2033 -0.3070
16935TIP3    H272221   3.677   0.582  12.695  2.1014  0.1847 -0.4902
16936TIP3   OH272222   1.534   4.950   5.323  0.2266 -0.4114  0.3964
16936TIP3    H172223   1.479   5.025   5.344  0.6790  0.5378 -1.6230
16936TIP3    H272224   1.512   4.885   5.390 -1.3187  0.9381  1.2626
16937TIP3   OH272225   5.912   4.581   0.307 -0.0055 -0.1014  0.6116
16937TIP3    H172226   5.872   4.640   0.243 -0.7854 -0.6420  0.5907
16937TIP3    H272227   5.842   4.521   0.332  0.4440 -0.2640  1.5406
16938TIP3   OH272228   1.210   2.020   5.252  0.3823 -0.2047 -0.5055
16938TIP3    H172229   1.209   1.957   5.180 -1.1731 -1.6632  0.7161
16938TIP3    H272230   1.251   1.973   5.324  1.0966  0.9354 -0.1402
16939TIP3   OH272231   5.580   3.877   0.056 -0.4631 -0.2903  0.1726
16939TIP3    H172232   5.656   3.921   0.095 -0.1142  1.0978 -1.9419
16939TIP3    H272233   5.593   3.785   0.079  1.3221  0.0506  0.7494
16940TIP3   OH272234   2.320   3.732  16.575  0.2501 -0.6211 -0.0037
16940TIP3    H172235   2.305   3.731  16.480 -0.6785 -2.3218  0.1316
16940TIP3    H272236   2.267   3.806  16.606 -1.1540 -1.3271 -0.5966
16941TIP3   OH272237   6.776   6.082  12.694 -0.1661  0.1772  0.0405
16941TIP3    H172238   6.758   5.989  12.700  1.1950 -0.0829  0.4246
16941TIP3    H272239   6.783   6.111  12.785  2.0407  0.0859 -0.0573
16942TIP3   OH272240   3.118   1.018   2.594 -0.0603  0.3510  0.2837
16942TIP3    H172241   3.071   1.031   2.512 -0.1485 -1.7790 -0.0502
16942TIP3    H272242   3.208   0.998   2.568 -0.0225 -0.0690  0.7296
16943TIP3   OH272243   5.813   6.774  16.016 -0.1862 -0.1710  0.4632
16943TIP3    H172244   5.822   6.752  15.923  0.6088  1.1123  0.2153
16943TIP3    H272245   5.839   6.694  16.062 -0.5776 -0.8182 -0.4159
16944TIP3   OH272246   5.695   2.618  12.223  0.1128  0.4588 -0.0095
16944TIP3    H172247   5.646   2.606  12.142  0.4900  1.5139 -0.4092
16944TIP3    H272248   5.738   2.534  12.238  2.2044  0.9925 -2.3636
16945TIP3   OH272249   5.021   3.085   2.333  0.0608  0.5661 -0.1284
16945TIP3    H172250   4.978   3.170   2.319 -0.0577  0.1532 -2.8269
16945TIP3    H272251   5.059   3.063   2.248  0.0831 -2.1136  0.4766
16946TIP3   OH272252   3.003   5.578  13.894 -0.0484 -0.4105 -0.2028
16946TIP3    H172253   2.941   5.606  13.827  0.8290  0.2064 -0.7596
16946TIP3    H272254   2.947   5.554  13.968 -0.9705 -0.1084 -0.7789
16947TIP3   OH272255   3.357   4.121   5.177  0.3779 -0.5819  0.1073
16947TIP3    H172256   3.395   4.040   5.141 -0.3080 -1.6241  1.6020
16947TIP3    H272257   3.271   4.128   5.136  1.1322  0.4086 -1.3819
16948TIP3   OH272258   4.546   5.989   5.048  0.2383 -0.1442 -0.2782
16948TIP3    H172259   4.598   5.954   4.976 -0.2352  1.0442 -1.2285
16948TIP3    H272260   4.529   6.080   5.024  0.1786  0.3359  1.3981
16949TIP3   OH272261   5.406   1.021  14.791 -0.2320 -0.2091 -0.4390
16949TIP3    H172262   5.426   1.082  14.720 -1.6420  0.3111 -0.4148
16949TIP3    H272263   5.360   1.074  14.856  2.0611 -0.3706  1.4709
16950TIP3   OH272264   5.359   2.656  11.814  0.0691 -0.4724 -0.4292
16950TIP3    H172265   5.312   2.700  11.885 -0.8783 -1.8808 -0.1345
16950TIP3    H272266   5.446   2.695  11.815  0.6248 -1.4966  2.5465
16951TIP3   OH272267   0.530   0.111  16.652  0.1105  0.6634 -0.0529
16951TIP3    H172268   0.523   0.097  16.558 -1.6056  1.0347 -0.0182
16951TIP3    H272269   0.527   0.023  16.690  1.7654  0.4462 -0.3546
16952TIP3   OH272270   6.036   2.648  12.114  0.4030 -0.0753  0.0342
16952TIP3    H172271   6.015   2.673  12.025  0.4714  0.4277  0.1599
16952TIP3    H272272   6.129   2.624  12.111  0.2293 -0.7542 -0.1764
16953TIP3   OH272273   5.921   5.761   2.938 -0.0279 -0.2412 -0.6741
16953TIP3    H172274   5.999   5.707   2.933 -1.7460 -2.8613 -1.1830
16953TIP3    H272275   5.904   5.788   2.848  0.8426  1.2802 -0.4181
16954TIP3   OH272276   3.681   2.247  12.598 -0.2098 -0.4385  0.0024
16954TIP3    H172277   3.653   2.268  12.508 -0.5302 -0.1952  0.1563
16954TIP3    H272278   3.671   2.152  12.605  0.7465 -0.5943 -0.5339
16955TIP3   OH272279   4.740   6.319  15.898  0.1198 -0.5183  0.1675
16955TIP3    H172280   4.721   6.365  15.816  1.3479  0.2327  0.2911
16955TIP3    H272281   4.685   6.241  15.894 -0.5155 -0.0406 -0.9560
16956TIP3   OH272282   3.251   4.778   1.696 -0.1796  0.1916  0.5545
16956TIP3    H172283   3.225   4.689   1.718 -1.4158  0.0983 -1.1066
16956TIP3    H272284   3.311   4.768   1.622  0.0906  0.7113  0.6993
16957TIP3   OH272285   6.084   6.320  15.273 -0.4152 -0.1318  0.0498
16957TIP3    H172286   6.033   6.249  15.234 -1.3284  0.7013 -0.3114
16957TIP3    H272287   6.170   6.282  15.288 -0.6525 -1.0851 -0.8751
16958TIP3   OH272288   6.687   3.637  11.447 -1.0819 -0.1369  0.3269
16958TIP3    H172289   6.729   3.691  11.514 -2.0290  0.3349  0.5556
16958TIP3    H272290   6.621   3.587  11.495 -0.7913 -0.8694 -0.0268
16959TIP3   OH272291   4.596   0.787   0.476  0.5394  0.1183  0.3483
16959TIP3    H172292   4.670   0.729   0.460 -0.4381 -0.8900 -0.7200
16959TIP3    H272293   4.620   0.836   0.555  1.8582 -0.9642  0.6483
16960TIP3   OH272294   1.165   5.315  10.994 -0.5437 -0.5640 -0.4961
16960TIP3    H172295   1.148   5.225  10.964 -1.4081 -0.8491  0.7644
16960TIP3    H272296   1.080   5.358  10.991 -0.4212 -0.2438  0.3406
16961TIP3   OH272297   0.706   3.542   5.176  0.5516  0.6487 -0.3462
16961TIP3    H172298   0.740   3.615   5.229  0.5835  0.2727  0.1553
16961TIP3    H272299   0.782   3.509   5.128  0.9009 -0.1640  0.7415
16962TIP3   OH272300   6.629   4.375  13.164 -0.9900  0.4822  0.1027
16962TIP3    H172301   6.565   4.370  13.235 -1.1768 -0.5961 -0.1266
16962TIP3    H272302   6.672   4.290  13.165 -1.0476  0.4249 -1.1233
16963TIP3   OH272303   3.093   5.071  13.114 -0.2348 -0.0545  0.2384
16963TIP3    H172304   3.021   5.017  13.084  1.0569 -1.6132 -0.2296
16963TIP3    H272305   3.068   5.098  13.203 -1.4470 -0.4201  0.0173
16964TIP3   OH272306   0.748   1.707  16.049 -0.2561 -0.2159 -0.4181
16964TIP3    H172307   0.820   1.764  16.075 -0.4625  0.0294 -0.3753
16964TIP3    H272308   0.669   1.756  16.073 -0.4535 -0.0361 -1.4016
16965TIP3   OH272309   4.436   2.383  15.894 -0.0118 -0.4044  0.3093
16965TIP3    H172310   4.411   2.456  15.951  2.0694 -0.8618  1.9216
16965TIP3    H272311   4.498   2.421  15.832 -0.0631 -0.4931  0.2041
16966TIP3   OH272312   1.063   6.151   4.667  0.5600 -0.2225 -0.3036
16966TIP3    H172313   1.060   6.172   4.760 -2.4258  1.3093 -0.6129
16966TIP3    H272314   1.085   6.234   4.625  0.5379 -0.5797 -1.0352
16967TIP3   OH272315   0.778   2.716   4.745  0.3850  0.0122 -0.2784
16967TIP3    H172316   0.840   2.712   4.673 -0.6021 -1.2135 -1.0921
16967TIP3    H272317   0.817   2.778   4.807  1.9909 -0.0992 -1.1426
16968TIP3   OH272318   0.889   4.939   0.750  0.5091 -0.3266  0.5012
16968TIP3    H172319   0.960   4.986   0.793 -0.4526  1.2511  0.4707
16968TIP3    H272320   0.904   4.952   0.657  0.2622 -0.0671  0.4926
16969TIP3   OH272321   6.239   1.112   4.971 -0.1479 -0.1013 -0.1687
16969TIP3    H172322   6.259   1.195   5.014  1.7731 -0.9554  0.6811
16969TIP3    H272323   6.228   1.050   5.043  0.9139 -1.1008 -0.8514
16970TIP3   OH272324   1.082   2.271   3.501 -0.1187 -0.5086  0.3040
16970TIP3    H172325   1.089   2.367   3.508  1.7513 -0.5832  0.0096
16970TIP3    H272326   1.006   2.258   3.444  0.2035  0.8584 -0.5098
16971TIP3   OH272327   2.294   4.482  13.841 -0.3176 -0.4225 -0.1238
16971TIP3    H172328   2.320   4.525  13.760 -0.4795  0.6193  0.3603
16971TIP3    H272329   2.292   4.388  13.819  0.7442 -0.2623 -1.0052
16972TIP3   OH272330   1.996   1.345  11.037  0.0078  0.0353 -0.5054
16972TIP3    H172331   1.960   1.259  11.060  0.5523 -0.8803 -2.8720
16972TIP3    H272332   1.925   1.407  11.058 -1.1382 -1.1952 -0.5981
16973TIP3   OH272333   5.479   6.635   0.398 -0.4843 -0.5966 -0.3721
16973TIP3    H172334   5.476   6.731   0.401 -0.1899 -0.5974 -0.0466
16973TIP3    H272335   5.523   6.615   0.316 -0.2688 -0.4478 -0.2944
16974TIP3   OH272336   6.239   5.552   0.798  0.4509  0.7921 -0.4232
16974TIP3    H172337   6.302   5.591   0.858 -0.6864  0.3859  1.0803
16974TIP3    H272338   6.222   5.465   0.833 -0.4247  0.6391 -1.1783
16975TIP3   OH272339   1.500   0.708   4.684  0.0280 -0.2796  0.2090
16975TIP3    H172340   1.540   0.715   4.597 -0.2055  1.1231  0.1837
16975TIP3    H272341   1.417   0.665   4.669 -0.0666  0.0657 -0.2920
16976TIP3   OH272342   2.150   4.055  14.088 -0.0129  0.1616  0.2783
16976TIP3    H172343   2.205   4.130  14.067  0.3069 -0.4309 -1.1307
16976TIP3    H272344   2.195   3.980  14.049  0.2718 -0.9678  2.6501
16977TIP3   OH272345   4.344   4.808   0.663 -0.3809 -0.3675 -0.2731
16977TIP3    H172346   4.378   4.828   0.576  0.1223  0.2815  0.0648
16977TIP3    H272347   4.272   4.869   0.676  1.0629  1.2221  0.6993
16978TIP3   OH272348   4.260   4.054  13.949 -0.0699 -0.6482  0.2349
16978TIP3    H172349   4.243   4.136  13.904  1.2836 -1.1281 -1.2128
16978TIP3    H272350   4.280   4.080  14.039 -0.8597  0.4812  0.1123
16979TIP3   OH272351   1.490   5.109  12.102 -0.3209  0.4813 -1.0674
16979TIP3    H172352   1.444   5.156  12.171 -1.6049  1.0330 -2.2581
16979TIP3    H272353   1.421   5.070  12.048  0.6295  0.1094 -2.0837
16980TIP3   OH272354   4.390   2.763  12.393 -0.0694  0.1115 -0.3357
16980TIP3    H172355   4.312   2.784  12.446 -0.2737  0.6710 -0.8481
16980TIP3    H272356   4.461   2.811  12.436 -0.1480  0.2044 -0.3090
16981TIP3   OH272357   4.879   1.516  17.087 -0.3905 -0.6286  0.2856
16981TIP3    H172358   4.866   1.611  17.085 -1.0695 -0.7310 -0.9774
16981TIP3    H272359   4.944   1.503  17.157 -1.5175  0.5929  1.6364
16982TIP3   OH272360   4.817   4.038   4.737 -0.4645 -0.2064 -0.0918
16982TIP3    H172361   4.898   4.042   4.788 -0.8656 -1.9646  0.7448
16982TIP3    H272362   4.845   4.016   4.648 -0.0750 -2.1120  0.4649
16983TIP3   OH272363   0.342   1.888   2.713 -0.0982 -0.6346  0.8584
16983TIP3    H172364   0.252   1.898   2.681  0.7358  3.5080 -0.8304
16983TIP3    H272365   0.395   1.879   2.634  1.1720 -0.6333  1.6831
16984TIP3   OH272366   3.045   3.159   0.659  0.2443  0.7770 -0.0237
16984TIP3    H172367   3.109   3.222   0.627 -0.7980  1.2344 -1.2847
16984TIP3    H272368   3.016   3.112   0.581 -1.7430  1.3245  0.3469
16985TIP3   OH272369   2.934   1.391  16.289 -0.0760  0.0294 -0.0492
16985TIP3    H172370   2.985   1.381  16.369  1.9768  1.1285 -1.1397
16985TIP3    H272371   2.872   1.462  16.309 -1.3361 -1.3713  1.3100
16986TIP3   OH272372   3.420   4.044   4.421  0.0356 -0.2753  0.1221
16986TIP3    H172373   3.508   4.058   4.456 -0.6605  0.8091  1.5414
16986TIP3    H272374   3.434   4.031   4.327  1.8287 -1.7330  0.5277
16987TIP3   OH272375   1.657   0.590   2.297 -0.1542 -0.3503  0.0930
16987TIP3    H172376   1.613   0.519   2.344 -0.1705 -1.3785 -1.4120
16987TIP3    H272377   1.727   0.546   2.248  0.4988  0.8284 -0.0621
16988TIP3   OH272378   2.412   0.878  11.679  0.6795 -0.1898 -0.4949
16988TIP3    H172379   2.333   0.824  11.678  1.4440 -1.3719  0.2489
16988TIP3    H272380   2.441   0.881  11.588  0.0362 -0.1153 -0.7027
16989TIP3   OH272381   0.860   0.909  15.467  0.0546  0.1164  1.0150
16989TIP3    H172382   0.806   0.913  15.387  0.6245 -0.8419  0.5664
16989TIP3    H272383   0.920   0.837  15.452  0.2650  0.0057  2.2756
16990TIP3   OH272384   3.699   0.121  16.318  0.7919  0.2406  0.3421
16990TIP3    H172385   3.614   0.162  16.329  0.8401  1.0559 -1.8453
16990TIP3    H272386   3.732   0.108  16.407 -0.2307  2.8376  1.1746
16991TIP3   OH272387   2.893   1.584   3.277 -0.1958  0.0088 -0.1542
16991TIP3    H172388   2.857   1.666   3.243  0.4478 -0.2088 -1.4079
16991TIP3    H272389   2.859   1.517   3.218  1.7443 -0.2751 -1.0127
16992TIP3   OH272390   5.174   1.152   2.459  0.0154  0.4184 -0.3509
16992TIP3    H172391   5.255   1.127   2.415  0.3143  0.6454  0.0541
16992TIP3    H272392   5.109   1.090   2.428  0.4304 -0.0000 -0.3998
16993TIP3   OH272393   2.001   5.597   0.602  0.1306 -0.3800 -0.1864
16993TIP3    H172394   1.989   5.515   0.554 -1.0550  0.1029 -0.7561
16993TIP3    H272395   2.051   5.653   0.542  1.1691 -0.7440  0.3031
16994TIP3   OH272396   6.482   5.382   1.793  0.7453  0.1248 -0.4783
16994TIP3    H172397   6.459   5.299   1.753  1.3677 -0.9791  1.3111
16994TIP3    H272398   6.474   5.366   1.887  2.2713  1.6445 -0.0386
16995TIP3   OH272399   1.756   0.842  14.236  0.7973  0.5795 -0.2700
16995TIP3    H172400   1.733   0.763  14.284  2.6802 -1.3127 -2.2528
16995TIP3    H272401   1.849   0.856  14.255  0.4814  2.4421  0.1337
16996TIP3   OH272402   4.412   3.968  16.992 -0.4235 -0.1422 -0.6211
16996TIP3    H172403   4.492   4.017  17.008  0.6605 -0.9424 -3.0852
16996TIP3    H272404   4.440   3.889  16.945 -2.4560 -1.4702  0.2378
16997TIP3   OH272405   3.389   2.541  16.757 -0.4326 -0.5192 -0.0681
16997TIP3    H172406   3.333   2.506  16.687 -0.4465  0.6817 -0.6883
16997TIP3    H272407   3.329   2.586  16.816 -0.4916 -2.0264  1.0628
16998TIP3   OH272408   5.334   5.849   4.507 -0.1490  0.0819 -0.6672
16998TIP3    H172409   5.407   5.805   4.462 -0.8346 -0.6414 -1.1011
16998TIP3    H272410   5.273   5.778   4.527 -1.2263  0.8255 -1.2612
16999TIP3   OH272411   0.075   6.210   1.738  0.4282  0.0684  0.5237
16999TIP3    H172412   0.031   6.246   1.816 -0.3852 -0.2440  0.2219
16999TIP3    H272413   0.049   6.117   1.737 -0.4331  0.2917 -0.6837
17000TIP3   OH272414   6.570   1.412  12.825 -0.5110 -0.7706  0.0073
17000TIP3    H172415   6.544   1.499  12.796  1.7631  0.5750  1.6616
17000TIP3    H272416   6.526   1.352  12.764 -0.5931  1.5789 -2.4397
17001TIP3   OH272417   3.568   3.935  13.380  0.2427  0.1227 -0.4651
17001TIP3    H172418   3.579   3.871  13.310  0.0575  1.3897 -1.6860
17001TIP3    H272419   3.508   3.892  13.442  1.2612 -1.4420 -0.5073
17002TIP3   OH272420   5.589   2.901   4.091 -0.6081  0.0766 -0.2952
17002TIP3    H172421   5.535   2.832   4.131  0.2060  0.4973  1.6713
17002TIP3    H272422   5.595   2.876   3.999 -0.7027 -2.2811  0.2525
17003TIP3   OH272423   4.528   1.389  11.715  0.1463  0.4778  0.2625
17003TIP3    H172424   4.521   1.372  11.809  0.7720  0.7692  0.3674
17003TIP3    H272425   4.560   1.306  11.679 -0.2452  0.3153  0.2802
17004TIP3   OH272426   0.671   0.426  14.327  0.5405 -0.2673 -0.1229
17004TIP3    H172427   0.730   0.457  14.395 -0.2643 -0.0749  0.5044
17004TIP3    H272428   0.656   0.502  14.271 -1.7447  0.7213  1.6329
17005TIP3   OH272429   0.702   5.176  15.438  0.0344 -0.1608  0.0789
17005TIP3    H172430   0.659   5.097  15.471  0.9568 -1.3912 -1.5615
17005TIP3    H272431   0.653   5.200  15.360 -0.6080  1.2993  0.8741
17006TIP3   OH272432   0.018   5.328  16.780  0.2619 -0.2225  0.0267
17006TIP3    H172433   0.111   5.304  16.787  0.5143  0.4625 -0.8046
17006TIP3    H272434   0.018   5.423  16.773 -0.6695 -0.0048  2.2609
17007TIP3   OH272435   5.612   2.477   5.350  0.0501 -0.5212 -0.3862
17007TIP3    H172436   5.541   2.488   5.287 -1.3618 -0.3110  1.1690
17007TIP3    H272437   5.577   2.416   5.415  1.2770 -0.3548  0.4623
17008TIP3   OH272438   2.153   6.647  17.083  0.2388 -0.1952 -0.1152
17008TIP3    H172439   2.094   6.672  17.012  2.6271  0.9654 -1.7829
17008TIP3    H272440   2.185   6.730  17.118  0.6034 -0.8009  1.0389
17009TIP3   OH272441   5.225   5.042  13.252  0.0816 -0.6669 -0.1100
17009TIP3    H172442   5.301   5.086  13.215  0.7680 -2.3505 -0.7964
17009TIP3    H272443   5.220   5.075  13.342  1.2953 -0.1286 -0.2187
17010TIP3   OH272444   3.379   2.783  12.760 -0.0978  0.4235  0.1770
17010TIP3    H172445   3.383   2.800  12.855  0.6779 -1.1197  0.4520
17010TIP3    H272446   3.470   2.785  12.731 -0.4072  2.1557 -0.8259
17011TIP3   OH272447   4.936   6.217  11.043 -0.2296 -0.1120  0.2477
17011TIP3    H172448   4.960   6.202  10.952 -0.1931 -0.4869  0.3181
17011TIP3    H272449   5.019   6.217  11.091 -0.2141  0.4493  0.2359
17012TIP3   OH272450   1.392   0.540  11.550 -0.2227  0.1272  0.2822
17012TIP3    H172451   1.433   0.455  11.566 -0.1241  0.1066 -0.0860
17012TIP3    H272452   1.390   0.582  11.637 -1.1947 -0.6561  0.6601
17013TIP3   OH272453   6.470   3.211   5.683 -0.6610  0.7159 -0.4375
17013TIP3    H172454   6.468   3.125   5.641  0.3383 -1.2070  3.0813
17013TIP3    H272455   6.547   3.254   5.646  0.2178 -0.8959 -0.5801
17014TIP3   OH272456   5.300   4.463   3.591  0.2942  0.0360  0.2046
17014TIP3    H172457   5.314   4.538   3.647 -2.4482  1.3965 -0.7842
17014TIP3    H272458   5.353   4.482   3.513  1.2228 -0.1112  0.7756
17015TIP3   OH272459   6.266   2.054   3.112  0.6719 -0.1283 -0.4018
17015TIP3    H172460   6.253   2.114   3.186 -1.1427 -1.1926  0.2125
17015TIP3    H272461   6.268   2.111   3.035 -2.2447  0.7280  0.0344
17016TIP3   OH272462   4.407   6.299  15.801  0.2152 -0.2291  0.7343
17016TIP3    H172463   4.352   6.236  15.754 -1.4236  1.4675  0.2574
17016TIP3    H272464   4.379   6.292  15.892  1.7328 -1.8275  1.1386
17017TIP3   OH272465   6.699   4.682   2.233 -0.0439  0.3572  0.0056
17017TIP3    H172466   6.669   4.696   2.143 -0.8864  1.8617  0.4859
17017TIP3    H272467   6.702   4.587   2.243  0.7209  0.1466 -1.8128
17018TIP3   OH272468   5.238   5.371  14.736  0.1244  0.4722  0.3422
17018TIP3    H172469   5.242   5.276  14.731 -0.4728  0.4844 -2.3534
17018TIP3    H272470   5.154   5.393  14.695  1.5157  2.2111 -1.8020
17019TIP3   OH272471   1.989   2.015  13.375  0.1311 -0.6799 -0.3743
17019TIP3    H172472   2.074   2.024  13.331 -1.7872 -1.3068 -4.7744
17019TIP3    H272473   1.960   2.105  13.387  0.4750 -0.4793 -0.9698
17020TIP3   OH272474   0.871   6.514  12.264  0.4760 -0.1970  0.4023
17020TIP3    H172475   0.905   6.576  12.328  2.4121  0.6818 -1.3523
17020TIP3    H272476   0.927   6.526  12.187 -2.1500 -0.7105 -1.7233
17021TIP3   OH272477   0.898   1.797  13.568  0.4931  0.7603 -0.1364
17021TIP3    H172478   0.870   1.712  13.534 -0.7526  0.5657  1.2130
17021TIP3    H272479   0.832   1.858  13.536  1.4268  1.2519 -1.1626
17022TIP3   OH272480   1.911   1.085   4.165  0.5179  0.4604  0.5276
17022TIP3    H172481   1.899   1.159   4.225 -1.7100  0.2133  0.4875
17022TIP3    H272482   1.907   1.008   4.221  0.4620  0.2965  0.2997
17023TIP3   OH272483   3.476   2.011  11.167 -0.1731  0.3016  0.0783
17023TIP3    H172484   3.381   2.005  11.155  0.0279  0.9425 -2.3996
17023TIP3    H272485   3.510   1.934  11.121  0.5164 -0.2697  1.4890
17024TIP3   OH272486   2.365   6.007   4.963  0.1519 -0.0185 -0.2153
17024TIP3    H172487   2.326   6.018   4.877  1.6305 -0.3060 -0.9648
17024TIP3    H272488   2.397   5.917   4.964  0.6002  0.1370  0.4269
17025TIP3   OH272489   4.429   0.030  12.573 -0.4943 -0.2226  0.0824
17025TIP3    H172490   4.359   0.006  12.634 -0.5110  0.6840  0.4413
17025TIP3    H272491   4.404  -0.011  12.490  0.0893 -2.4189  0.9075
17026TIP3   OH272492   1.029   2.147  10.462  0.2060  0.4600 -0.0710
17026TIP3    H172493   0.935   2.165  10.462 -0.1028 -0.9766  0.4205
17026TIP3    H272494   1.059   2.173  10.549  0.4365  1.6362 -0.4854
17027TIP3   OH272495   3.959   4.790   2.996  0.7973  0.3880 -0.0784
17027TIP3    H172496   3.958   4.697   2.975 -0.6858  0.1161  1.0176
17027TIP3    H272497   3.870   4.821   2.976  0.9012  1.2766  0.7327
17028TIP3   OH272498   0.949   3.860   5.575 -0.2849 -0.4076 -0.1483
17028TIP3    H172499   1.022   3.871   5.635  1.9405 -1.9669 -2.3829
17028TIP3    H272500   0.956   3.933   5.514 -1.7430  0.4453  0.6516
17029TIP3   OH272501   2.857   0.117  14.733 -0.0743 -0.8409 -0.0610
17029TIP3    H172502   2.899   0.055  14.792  1.1767 -0.5038 -0.5594
17029TIP3    H272503   2.917   0.191  14.729 -1.1930  0.0907 -0.0503
17030TIP3   OH272504   5.257   5.839  11.621  0.1930  0.3767  0.1128
17030TIP3    H172505   5.309   5.915  11.595 -1.2026  1.3356  0.0028
17030TIP3    H272506   5.275   5.828  11.714  1.1089  0.2459 -0.0651
17031TIP3   OH272507   3.897   5.045   0.631 -0.1959 -0.4334 -0.3698
17031TIP3    H172508   3.857   4.968   0.673 -1.2579  0.6830  0.7703
17031TIP3    H272509   3.888   5.114   0.697  0.7923  0.6515 -1.3495
17032TIP3   OH272510   0.233   5.702  12.563  0.2514 -0.5901 -0.2464
17032TIP3    H172511   0.196   5.615  12.575 -0.7455 -0.3077 -1.1246
17032TIP3    H272512   0.327   5.690  12.573  0.1951 -1.9233 -1.1468
17033TIP3   OH272513   6.466   2.111  13.528  0.1078 -0.4309  0.3073
17033TIP3    H172514   6.509   2.121  13.613  2.7959 -2.3585 -0.6572
17033TIP3    H272515   6.531   2.141  13.465 -1.7344  0.7284 -1.1350
17034TIP3   OH272516   2.279   3.981  16.757 -0.1202 -0.2272 -0.1782
17034TIP3    H172517   2.232   4.064  16.743 -0.8692 -0.6205 -0.0592
17034TIP3    H272518   2.369   4.000  16.730  0.1152  1.0887  1.3570
17035TIP3   OH272519   0.466   1.380   2.783 -0.4623 -0.3193  0.1448
17035TIP3    H172520   0.413   1.356   2.859 -0.7481  1.4055  0.5379
17035TIP3    H272521   0.543   1.424   2.820 -1.2286  1.7319 -0.5354
17036TIP3   OH272522   1.322   4.486   5.564  0.2444  0.0911  0.1751
17036TIP3    H172523   1.336   4.473   5.470 -1.3601 -1.0066  0.0556
17036TIP3    H272524   1.355   4.406   5.604 -0.4752 -0.1048  0.3906
17037TIP3   OH272525   2.858   1.481   4.736  0.6358 -0.0922  0.0635
17037TIP3    H172526   2.940   1.443   4.768  1.2138  0.7986 -0.3156
17037TIP3    H272527   2.803   1.490   4.813  0.6051 -1.3819  0.2126
17038TIP3   OH272528   5.107   3.386   1.607 -0.4975 -0.1983  0.1996
17038TIP3    H172529   5.079   3.339   1.528 -2.9555  3.8348 -1.7038
17038TIP3    H272530   5.032   3.381   1.666 -0.1150 -0.1772  0.6873
17039TIP3   OH272531   6.241   0.875  13.522 -0.3714  0.0418 -0.4838
17039TIP3    H172532   6.214   0.924  13.444  0.4146  1.7621  0.2708
17039TIP3    H272533   6.322   0.918  13.550 -1.0453 -0.0202  1.7179
17040TIP3   OH272534   5.314   5.614  12.459  0.2749 -0.2337  0.2661
17040TIP3    H172535   5.315   5.707  12.438 -0.8842 -0.0777  0.8497
17040TIP3    H272536   5.223   5.587  12.445  0.3965 -1.0643  0.9768
17041TIP3   OH272537   0.629   3.486   5.782 -0.7265  0.0374  0.1934
17041TIP3    H172538   0.702   3.547   5.772 -1.4024  1.7322  3.8037
17041TIP3    H272539   0.665   3.413   5.832 -0.8794 -0.5638 -0.5510
17042TIP3   OH272540   2.271   0.618   2.446 -0.9073  0.0160  0.1131
17042TIP3    H172541   2.298   0.526   2.453 -0.3504  0.2267  0.9286
17042TIP3    H272542   2.321   0.652   2.371  1.7989  0.5813  2.0038
17043TIP3   OH272543   0.589   2.407  11.676  0.0456  0.3378 -0.4367
17043TIP3    H172544   0.635   2.483  11.713  1.3487  0.1226 -1.5440
17043TIP3    H272545   0.587   2.423  11.582  1.0105 -1.3429 -0.7776
17044TIP3   OH272546   4.955   5.132  15.838 -0.3756  0.2950  0.1986
17044TIP3    H172547   5.038   5.108  15.798 -0.8798  0.5817 -1.0570
17044TIP3    H272548   4.977   5.155  15.928  0.6829 -1.0374  0.2982
17045TIP3   OH272549   4.546   2.605   3.540 -0.1994 -0.6265 -0.3256
17045TIP3    H172550   4.457   2.632   3.517  1.1617  3.2015 -2.0167
17045TIP3    H272551   4.575   2.671   3.603  1.7318 -1.2223 -0.5242
17046TIP3   OH272552   5.498   1.384   4.175  0.1758  0.1184  0.1540
17046TIP3    H172553   5.473   1.458   4.120 -0.9036 -0.4076 -0.0923
17046TIP3    H272554   5.457   1.308   4.134  2.8405 -0.9769 -0.7083
17047TIP3   OH272555   4.661   6.275  11.600 -0.8924 -0.0075 -0.0136
17047TIP3    H172556   4.730   6.227  11.646 -0.0635 -0.1215 -1.3369
17047TIP3    H272557   4.615   6.208  11.549  1.2532  0.6858 -3.1068
17048TIP3   OH272558   5.140   0.038  13.321 -0.1348  0.0330 -0.7991
17048TIP3    H172559   5.211   0.064  13.379 -0.6800 -0.0156 -0.0857
17048TIP3    H272560   5.137  -0.058  13.329  0.1114 -0.0209 -1.3054
17049TIP3   OH272561   4.131   6.720  13.472 -0.6707 -0.1034 -0.0427
17049TIP3    H172562   4.067   6.741  13.404 -0.7155 -1.7932 -0.5876
17049TIP3    H272563   4.182   6.648  13.435  0.5935  0.2358  0.9657
17050TIP3   OH272564   5.192   3.267  13.077  0.0489  0.4239  0.4289
17050TIP3    H172565   5.263   3.322  13.107 -0.7910  0.0246  3.4688
17050TIP3    H272566   5.234   3.185  13.050  0.8409  0.5298  1.3037
17051TIP3   OH272567   3.599   6.765  13.769 -0.4736  0.0117 -0.5836
17051TIP3    H172568   3.537   6.693  13.781 -1.4683  0.3617 -3.0235
17051TIP3    H272569   3.545   6.838  13.739  0.9570  0.7371 -1.4818
17052TIP3   OH272570   5.028   6.177   0.071 -0.0505 -0.0700 -0.0247
17052TIP3    H172571   5.087   6.112   0.032 -0.3066  0.6104 -1.6107
17052TIP3    H272572   5.086   6.237   0.117  0.2307 -1.0939  1.0022
17053TIP3   OH272573   6.020   6.506  15.727 -0.0175 -0.0443 -0.6451
17053TIP3    H172574   6.091   6.474  15.783 -0.4032  1.7243  0.9426
17053TIP3    H272575   6.057   6.583  15.684 -1.1516  1.3591  0.7862
17054TIP3   OH272576   2.499   0.829  14.704 -0.8684  0.2767  0.2631
17054TIP3    H172577   2.546   0.797  14.627 -1.8038  0.5433 -0.4372
17054TIP3    H272578   2.560   0.889  14.746 -0.1443 -0.2839  0.0411
17055TIP3   OH272579   1.353   0.553   5.565  0.3533 -1.0053 -0.6292
17055TIP3    H172580   1.332   0.642   5.536 -1.4021 -2.0930 -2.9988
17055TIP3    H272581   1.296   0.538   5.640 -1.3808 -1.0155 -1.8994
17056TIP3   OH272582   1.029   0.828   4.588  0.9595  0.3631 -0.0468
17056TIP3    H172583   0.937   0.853   4.584  1.1573  1.3646  1.1283
17056TIP3    H272584   1.070   0.895   4.642  2.2131 -0.5541  0.1899
17057TIP3   OH272585   5.281   2.829  12.101 -0.2849  0.5089 -0.4961
17057TIP3    H172586   5.228   2.904  12.127  0.3722  0.7208  0.2661
17057TIP3    H272587   5.361   2.837  12.152 -0.4669 -1.0727  0.0968
17058TIP3   OH272588   1.638   4.583   4.919 -0.1576  0.5055 -0.1599
17058TIP3    H172589   1.657   4.576   5.012  0.7356  1.3892 -0.2544
17058TIP3    H272590   1.713   4.540   4.876 -0.5345  0.1535 -0.4811
17059TIP3   OH272591   4.336   4.005   0.551  0.2817  0.0455 -0.3366
17059TIP3    H172592   4.420   4.050   0.560 -0.0688  0.7574 -0.5815
17059TIP3    H272593   4.352   3.938   0.485  1.4615 -1.8160  1.7035
17060TIP3   OH272594   4.160   5.928   3.151  0.4240  0.4172  0.0416
17060TIP3    H172595   4.148   5.834   3.139 -1.6631  0.5982  0.3881
17060TIP3    H272596   4.071   5.964   3.158  1.1490  2.4474 -0.2711
17061TIP3   OH272597   2.221   0.121   3.960 -0.1786 -0.0718 -0.3673
17061TIP3    H172598   2.287   0.150   4.024  2.5382 -1.6515 -2.2429
17061TIP3    H272599   2.168   0.058   4.008  0.8008 -0.0874  0.7698
17062TIP3   OH272600   2.837   0.765   1.646  0.1744  0.0666  0.4555
17062TIP3    H172601   2.909   0.712   1.613 -0.6591 -0.4542 -0.5970
17062TIP3    H272602   2.777   0.772   1.571 -1.6023 -0.8312  1.7337
17063TIP3   OH272603   1.371   5.853  15.350 -0.1995 -0.3223  0.2699
17063TIP3    H172604   1.421   5.932  15.329  0.9154 -1.3296 -1.0873
17063TIP3    H272605   1.349   5.863  15.443  0.5663  1.2159  0.3342
17064TIP3   OH272606   5.165   4.404   6.257  0.5434  0.3166 -0.4621
17064TIP3    H172607   5.238   4.439   6.306 -0.1754  0.1810  0.7510
17064TIP3    H272608   5.138   4.326   6.306  0.3873 -0.3667 -1.5931
17065TIP3   OH272609   0.127   2.437   2.330 -0.3601 -0.5760 -0.6370
17065TIP3    H172610   0.162   2.348   2.327  1.1549 -0.0877  0.7765
17065TIP3    H272611   0.059   2.439   2.262 -0.3574 -2.7581 -0.7757
17066TIP3   OH272612   2.561   2.472  12.244  0.2137  0.3275 -0.1659
17066TIP3    H172613   2.517   2.557  12.245 -3.4689 -1.3523  2.0350
17066TIP3    H272614   2.618   2.474  12.321  0.9491  1.0880 -0.7043
17067TIP3   OH272615   1.398   4.574  14.001 -0.0474 -0.4747 -0.1181
17067TIP3    H172616   1.388   4.516  13.926  3.1602 -2.5986  0.8537
17067TIP3    H272617   1.335   4.542  14.065  0.1501 -1.4996 -0.4132
17068TIP3   OH272618   1.198   5.013   4.461  0.1298  0.0269 -0.3461
17068TIP3    H172619   1.222   5.096   4.502  0.9375  0.1432 -1.0405
17068TIP3    H272620   1.146   4.968   4.528 -1.6101  1.7035 -0.4935
17069TIP3   OH272621   3.970   0.083  14.286  0.2706  0.1119  0.9099
17069TIP3    H172622   4.016   0.002  14.310 -0.1145 -0.2631  0.4025
17069TIP3    H272623   4.009   0.109  14.203 -0.7342 -0.4648  0.2391
17070TIP3   OH272624   1.346   2.631   0.075  0.3037  0.3582 -0.1294
17070TIP3    H172625   1.413   2.673   0.020  0.1143  0.3882 -0.3373
17070TIP3    H272626   1.267   2.683   0.060  0.4912  0.9986  0.9521
17071TIP3   OH272627   2.827   1.061  12.691 -0.4405 -0.2377  0.6274
17071TIP3    H172628   2.804   0.988  12.748 -0.2132 -1.0061 -0.2421
17071TIP3    H272629   2.764   1.057  12.619  0.1477 -0.1548  0.0959
17072TIP3   OH272630   0.564   1.243  16.079  0.2337 -0.1965 -0.0856
17072TIP3    H172631   0.648   1.253  16.123  0.0525  0.9466  0.0215
17072TIP3    H272632   0.586   1.240  15.986  0.4091 -0.0366 -0.0502
17073TIP3   OH272633   4.572   6.428  13.069 -0.5581 -0.0870 -0.1594
17073TIP3    H172634   4.517   6.364  13.114  1.1065 -2.0886 -0.8425
17073TIP3    H272635   4.578   6.396  12.979  1.8797 -0.0844 -0.0579
17074TIP3   OH272636   5.993   6.247   4.678 -0.0979 -0.3952  0.0096
17074TIP3    H172637   6.051   6.171   4.676 -1.6771 -1.6484 -1.7137
17074TIP3    H272638   5.910   6.213   4.710 -0.9872  0.4669 -1.2700
17075TIP3   OH272639   1.514   0.743   5.340  0.0695  0.0757 -0.3285
17075TIP3    H172640   1.575   0.698   5.399 -0.8979 -0.9026 -0.0617
17075TIP3    H272641   1.568   0.810   5.298  1.0238  0.1109  0.8826
17076TIP3   OH272642   3.939   1.933  12.631 -0.4580  0.5374  0.4903
17076TIP3    H172643   4.013   1.943  12.571  0.0230 -0.1985  0.9500
17076TIP3    H272644   3.971   1.874  12.699 -2.0217 -1.2755 -0.2544
17077TIP3   OH272645   1.084   3.471  16.855 -0.1386 -0.2612 -0.1440
17077TIP3    H172646   0.998   3.449  16.819 -0.4216 -1.3373  1.1194
17077TIP3    H272647   1.092   3.417  16.933  1.6631 -0.1113 -0.1846
17078TIP3   OH272648   5.684   5.374   3.908 -0.1673 -0.2374 -0.1511
17078TIP3    H172649   5.733   5.427   3.846  1.3154 -1.5860 -0.1943
17078TIP3    H272650   5.636   5.311   3.854 -2.3622  1.3198 -0.1380
17079TIP3   OH272651   5.106   3.525   6.485 -0.1584  0.4548 -0.1639
17079TIP3    H172652   5.058   3.512   6.403 -0.9433 -1.2653  0.5058
17079TIP3    H272653   5.049   3.487   6.552  0.9120  0.9236  1.0492
17080TIP3   OH272654   2.762   6.041   1.188  0.3741  0.0425  0.4199
17080TIP3    H172655   2.833   5.989   1.224 -1.1250 -2.3747  0.0813
17080TIP3    H272656   2.795   6.073   1.104  0.0091 -4.0853 -1.5460
17081TIP3   OH272657   1.839   2.864  16.068  0.0887  0.2471  0.7325
17081TIP3    H172658   1.890   2.790  16.102  1.0353  0.5441  0.0126
17081TIP3    H272659   1.873   2.940  16.116  0.5058  0.4800  0.0814
17082TIP3   OH272660   5.201   4.849   2.118 -0.1621 -0.8401 -0.2075
17082TIP3    H172661   5.199   4.831   2.024 -0.2516  3.2248 -1.1624
17082TIP3    H272662   5.289   4.824   2.145 -0.2898 -2.5142 -1.1995
17083TIP3   OH272663   3.014   1.150  12.105 -0.0884 -0.0152  0.1739
17083TIP3    H172664   2.939   1.159  12.046 -0.8248 -0.4641  1.0344
17083TIP3    H272665   3.084   1.200  12.061 -1.6679  2.9395  0.7525
17084TIP3   OH272666   4.419   5.098   0.264  0.5322  0.1939 -0.7098
17084TIP3    H172667   4.353   5.141   0.209  1.9949  2.0088 -1.1361
17084TIP3    H272668   4.491   5.079   0.203  0.7224 -1.1021 -0.1102
17085TIP3   OH272669   5.830   2.432   2.987  0.7502 -0.3997  0.3394
17085TIP3    H172670   5.745   2.440   3.029  1.3760 -1.1843  1.8126
17085TIP3    H272671   5.894   2.434   3.058  1.9255 -0.6838 -0.6503
17086TIP3   OH272672   5.680   4.526  11.043  0.3781 -0.1291  0.1553
17086TIP3    H172673   5.769   4.561  11.043  0.2949  0.0801 -0.0088
17086TIP3    H272674   5.672   4.481  10.959 -1.1344  3.5595 -1.8722
17087TIP3   OH272675   5.995   0.201  12.729  0.3932  0.5840 -0.0002
17087TIP3    H172676   6.077   0.250  12.726 -0.9148  2.8630 -0.7069
17087TIP3    H272677   5.954   0.217  12.644 -0.1625 -1.7461 -0.2491
17088TIP3   OH272678   4.507   3.581   5.801 -0.0707 -0.2453 -0.3312
17088TIP3    H172679   4.441   3.514   5.788  0.9932 -0.9978 -2.3655
17088TIP3    H272680   4.494   3.612   5.891 -0.9729 -2.7538  0.4702
17089TIP3   OH272681   0.865   4.216   1.895  0.0089 -0.0809  0.1718
17089TIP3    H172682   0.836   4.280   1.960 -0.8260 -2.0689  1.8781
17089TIP3    H272683   0.926   4.159   1.943 -0.4754 -1.4999 -0.8241
17090TIP3   OH272684   5.592   0.411  13.455 -0.4326 -0.5598  0.1097
17090TIP3    H172685   5.668   0.465  13.431 -0.9603 -1.1180 -3.2369
17090TIP3    H272686   5.630   0.326  13.479  0.0650 -0.8409 -1.5409
17091TIP3   OH272687   4.232   4.840  13.183 -0.0607  0.4917 -0.0638
17091TIP3    H172688   4.172   4.774  13.149  0.6726 -0.6925  0.8455
17091TIP3    H272689   4.181   4.887  13.249 -0.8279  1.3765 -1.2645
17092TIP3   OH272690   6.289   2.195  10.780 -0.3010 -0.2527 -0.3622
17092TIP3    H172691   6.337   2.277  10.769 -0.4176  0.1546  1.7910
17092TIP3    H272692   6.343   2.129  10.737  1.3394  0.4732  0.5191
17093TIP3   OH272693   5.596   4.900  12.410  0.4157  0.2021 -0.3842
17093TIP3    H172694   5.647   4.979  12.427 -1.1200  0.9303  1.0253
17093TIP3    H272695   5.658   4.828  12.425  0.6172  0.9697  3.3830
17094TIP3   OH272696   0.889   4.692   0.847  0.1552  0.1451  0.4508
17094TIP3    H172697   0.853   4.770   0.805  0.2090 -0.1711 -0.1860
17094TIP3    H272698   0.833   4.620   0.817 -0.4883  0.0574  1.7825
17095TIP3   OH272699   6.587   2.051  15.720  0.6504  0.0610  0.1146
17095TIP3    H172700   6.510   2.107  15.711  2.1085  2.1334 -0.1121
17095TIP3    H272701   6.571   2.000  15.799 -0.7439  0.7831  0.3186
17096TIP3   OH272702   4.796   0.776   6.297 -0.2352 -0.0745  0.3105
17096TIP3    H172703   4.728   0.796   6.361  0.9236 -0.3154  1.6510
17096TIP3    H272704   4.786   0.844   6.230 -0.2408  1.3877  1.7266
17097TIP3   OH272705   2.171   4.530   5.519  0.3882 -0.0413 -0.4649
17097TIP3    H172706   2.119   4.540   5.439 -0.1220 -0.4275 -0.1864
17097TIP3    H272707   2.114   4.562   5.589  0.1470 -1.3644 -0.0308
17098TIP3   OH272708   4.520   2.322  11.070 -0.2352  0.0041 -0.1219
17098TIP3    H172709   4.546   2.264  10.999 -1.6425 -2.7881  1.4548
17098TIP3    H272710   4.453   2.379  11.032 -1.4717 -1.9105 -0.9220
17099TIP3   OH272711   3.306   3.616   2.169 -0.5271 -0.4399  0.3095
17099TIP3    H172712   3.308   3.543   2.108 -0.1145  1.6138 -2.3408
17099TIP3    H272713   3.216   3.618   2.200 -1.4784 -0.1739 -2.1869
17100TIP3   OH272714   0.505   3.325  13.379 -0.2674  0.4527  0.3486
17100TIP3    H172715   0.482   3.327  13.286  3.3838  0.8914 -0.6873
17100TIP3    H272716   0.514   3.231  13.399  0.2123  0.3878 -0.1367
17101TIP3   OH272717   2.367   3.166   1.031 -0.0039  0.0346 -0.2604
17101TIP3    H172718   2.337   3.085   1.073  2.7565 -0.5356  0.8122
17101TIP3    H272719   2.335   3.160   0.941 -0.1564 -2.0894 -0.1127
17102TIP3   OH272720   4.977   0.134  15.257  0.6707  0.6702  0.0507
17102TIP3    H172721   4.927   0.127  15.176 -1.3585 -0.8463  1.3129
17102TIP3    H272722   5.069   0.133  15.230  0.1296 -2.3376 -2.1296
17103TIP3   OH272723   3.744   2.833  13.196  0.1109  0.4092 -0.0943
17103TIP3    H172724   3.762   2.782  13.276 -0.4132  0.7505  0.2525
17103TIP3    H272725   3.777   2.920  13.216 -1.7172  1.0220  0.5194
17104TIP3   OH272726   4.482   3.509  13.535 -0.3357  0.6738 -0.0453
17104TIP3    H172727   4.437   3.467  13.608  0.2716  0.2222  0.0785
17104TIP3    H272728   4.460   3.602  13.543 -0.2056  0.6439  0.7660
17105TIP3   OH272729   5.063   3.572  15.568 -0.1927  0.0879  0.1688
17105TIP3    H172730   5.045   3.664  15.547  0.3276 -0.3243 -2.4071
17105TIP3    H272731   4.978   3.537  15.595 -0.3432  1.3662  1.4724
17106TIP3   OH272732   3.879   5.669  13.869  0.2657 -0.0502  0.3422
17106TIP3    H172733   3.839   5.603  13.811  0.4218  0.1603 -0.0088
17106TIP3    H272734   3.845   5.752  13.837 -0.8846 -0.0163  1.5362
17107TIP3   OH272735   3.115   4.647   1.340  0.2405 -0.4169  0.3698
17107TIP3    H172736   3.160   4.732   1.348 -0.2807  0.1669 -1.9894
17107TIP3    H272737   3.025   4.665   1.370  0.4564 -0.4979  1.0944
17108TIP3   OH272738   0.329   0.685  11.314 -0.3537 -0.1655  1.0971
17108TIP3    H172739   0.234   0.682  11.301 -0.4225  3.3918 -0.4691
17108TIP3    H272740   0.364   0.624  11.250 -1.5711  0.1610  0.0824
17109TIP3   OH272741   3.123   4.215   1.339 -0.4409 -0.3433 -0.4129
17109TIP3    H172742   3.121   4.196   1.433  0.2665 -2.4467 -0.7612
17109TIP3    H272743   3.162   4.302   1.333 -1.8832  0.4766  1.2895
17110TIP3   OH272744   3.124   0.161  16.449 -0.2902 -0.3935  0.1578
17110TIP3    H172745   3.103   0.135  16.359  1.8990  1.9881 -1.1910
17110TIP3    H272746   3.181   0.092  16.481 -0.4100 -0.8576 -0.6109
17111TIP3   OH272747   2.228   0.329  10.942 -0.0110  0.2881  0.4739
17111TIP3    H172748   2.241   0.267  11.014 -0.4480 -1.2312 -0.7022
17111TIP3    H272749   2.135   0.350  10.945  0.4780  2.5735  2.1295
17112TIP3   OH272750   6.102   3.369   4.371  1.0105 -0.2081 -0.3113
17112TIP3    H172751   6.010   3.361   4.395  0.3251 -1.7035 -3.0186
17112TIP3    H272752   6.104   3.436   4.303  1.9533 -0.0959 -0.1875
17113TIP3   OH272753   4.727   1.762   1.856  0.6495 -0.2080  0.5933
17113TIP3    H172754   4.786   1.688   1.840  0.2886 -0.2694 -0.5664
17113TIP3    H272755   4.640   1.723   1.865 -0.0594  0.1642 -2.9391
17114TIP3   OH272756   0.720   3.810   0.477  0.3007  0.2675  0.2503
17114TIP3    H172757   0.729   3.783   0.386  0.4875 -1.9842  0.8927
17114TIP3    H272758   0.746   3.902   0.477 -2.0121  1.0692 -2.3695
17115TIP3   OH272759   6.245   2.170  15.454  0.4928  0.0971 -0.0162
17115TIP3    H172760   6.151   2.172  15.472  0.5324 -0.0048  0.2167
17115TIP3    H272761   6.270   2.080  15.474  0.4269 -0.2009 -1.2003
17116TIP3   OH272762   5.300   1.494  11.038  0.1310 -0.4406 -0.4831
17116TIP3    H172763   5.225   1.542  11.003  0.4052  0.3211 -0.0451
17116TIP3    H272764   5.369   1.506  10.972 -0.0318 -0.8696 -0.7323
17117TIP3   OH272765   4.604   2.955  11.599  0.0497 -0.0064  0.0280
17117TIP3    H172766   4.518   2.932  11.634  0.0777 -0.8961 -0.4527
17117TIP3    H272767   4.632   2.877  11.551 -0.2984  1.3739 -2.6339
17118TIP3   OH272768   4.622   5.279   0.758  0.2479 -0.1478  0.0983
17118TIP3    H172769   4.631   5.306   0.667 -0.8663  0.6402  0.2015
17118TIP3    H272770   4.551   5.215   0.758  1.7624 -1.8996  0.1110
17119TIP3   OH272771   0.989   6.455  15.095  0.6879  0.3799  0.6502
17119TIP3    H172772   1.006   6.547  15.078 -0.9905  0.7255  0.7092
17119TIP3    H272773   1.037   6.409  15.026  2.5466  1.1886  1.3340
17120TIP3   OH272774   5.537   2.689   4.734  0.0428  0.7014  0.2011
17120TIP3    H172775   5.461   2.671   4.678 -0.7239 -0.6955  1.6149
17120TIP3    H272776   5.575   2.603   4.751  0.1914  1.0663  1.8835
17121TIP3   OH272777   2.805   0.842  11.180  0.6012  0.0215  0.0686
17121TIP3    H172778   2.781   0.862  11.089 -1.1846 -0.5101  0.3865
17121TIP3    H272779   2.797   0.747  11.187 -1.9697  0.2347  1.4195
17122TIP3   OH272780   5.005   1.301   0.200  0.8062 -0.0555 -0.6068
17122TIP3    H172781   5.003   1.354   0.120 -0.7912 -1.0466 -1.2676
17122TIP3    H272782   5.013   1.365   0.271 -1.9806  1.2276 -1.3144
17123TIP3   OH272783   1.832   4.974  11.539  0.0941  0.3860 -0.6659
17123TIP3    H172784   1.809   4.882  11.527 -1.9087  0.2691  2.6265
17123TIP3    H272785   1.759   5.022  11.500 -1.6377  0.2877  2.1948
17124TIP3   OH272786   1.248   4.121  11.110  0.0111  0.0771 -0.4027
17124TIP3    H172787   1.243   4.040  11.061  1.4206  0.2047 -0.8000
17124TIP3    H272788   1.339   4.150  11.101 -0.7935  2.5336 -1.6402
17125TIP3   OH272789   5.041   4.593   0.563 -0.7416 -0.1332 -0.3756
17125TIP3    H172790   5.125   4.573   0.604 -0.6821 -1.6513 -1.1704
17125TIP3    H272791   5.017   4.679   0.598  0.3644 -0.3877  1.0991
17126TIP3   OH272792   3.185   2.514   4.643  0.1636  0.2380  0.7418
17126TIP3    H172793   3.226   2.566   4.573  0.8374 -1.1549  0.0739
17126TIP3    H272794   3.256   2.460   4.677 -0.6132 -0.5320  1.1582
17127TIP3   OH272795   0.933   6.550  14.682  0.5915 -0.6130 -0.7436
17127TIP3    H172796   0.916   6.546  14.776 -1.5011  0.4039 -1.0236
17127TIP3    H272797   1.016   6.504  14.671  1.0130 -0.5500  1.6148
17128TIP3   OH272798   2.121   2.557  12.083 -0.0976 -0.1928  0.0985
17128TIP3    H172799   2.109   2.625  12.018 -0.9469 -0.8058 -0.4018
17128TIP3    H272800   2.069   2.585  12.158 -0.4265 -0.2774 -0.0981
17129TIP3   OH272801   1.223   3.367  11.948  0.1295 -0.2782  0.0248
17129TIP3    H172802   1.250   3.291  11.897  2.2056  0.7530 -0.5225
17129TIP3    H272803   1.302   3.420  11.956 -1.2928  1.9656  0.1690
17130TIP3   OH272804   1.080   4.361   4.039 -0.3989 -0.2761  0.6197
17130TIP3    H172805   1.155   4.421   4.043  0.9515 -1.5858 -2.0336
17130TIP3    H272806   1.005   4.418   4.022  0.3200  0.8987  1.2362
17131TIP3   OH272807   6.082   5.834   6.717  0.2698 -0.3354 -0.5005
17131TIP3    H172808   5.997   5.830   6.673  0.8192 -2.6217 -1.5416
17131TIP3    H272809   6.146   5.828   6.646  1.2057 -2.2087  0.4108
17132TIP3   OH272810   6.330   5.493   2.294  0.1466 -0.0574 -0.1437
17132TIP3    H172811   6.247   5.540   2.301 -0.2288 -0.0311 -3.3868
17132TIP3    H272812   6.309   5.403   2.318 -1.2045 -0.3286 -2.0819
17133TIP3   OH272813   6.422   1.815  10.934 -0.5705 -0.0399  0.0051
17133TIP3    H172814   6.399   1.740  10.881 -1.6161 -0.1902  0.6313
17133TIP3    H272815   6.338   1.858  10.952  0.0691  1.6909 -0.9406
17134TIP3   OH272816   5.818   4.745  11.370  0.1972 -0.1406 -0.1988
17134TIP3    H172817   5.734   4.773  11.332  0.9054  1.3782 -0.7584
17134TIP3    H272818   5.857   4.689  11.303 -0.1396 -0.4256 -0.1590
17135TIP3   OH272819   2.476   5.829   0.603  0.5707  0.0261  0.1892
17135TIP3    H172820   2.414   5.768   0.644  0.8921 -0.8753 -0.6076
17135TIP3    H272821   2.421   5.889   0.552  0.3112 -0.5816 -0.2712
17136TIP3   OH272822   6.253   0.376  14.405 -0.5279 -0.0969 -0.1017
17136TIP3    H172823   6.306   0.393  14.482 -0.5958 -1.0496  0.1706
17136TIP3    H272824   6.309   0.324  14.348 -1.0163 -0.7608  0.0107
17137TIP3   OH272825   1.467   1.678  17.039  0.3378 -0.0879  0.4401
17137TIP3    H172826   1.493   1.759  16.994 -0.3508 -0.1586 -0.1029
17137TIP3    H272827   1.418   1.708  17.116 -1.1317  0.0356 -0.4906
17138TIP3   OH272828   1.208   5.141   3.044  0.0413 -0.1202 -0.1721
17138TIP3    H172829   1.272   5.202   3.080 -1.0417  1.0251 -0.1435
17138TIP3    H272830   1.131   5.194   3.024  0.1485 -0.8841 -3.1287
17139TIP3   OH272831   0.616   6.013  11.570  0.5596  0.0869 -0.1248
17139TIP3    H172832   0.579   6.076  11.507 -2.2403  0.8797  2.1125
17139TIP3    H272833   0.631   6.065  11.649  1.5305 -1.4008  0.7058
17140TIP3   OH272834   3.850   5.825   0.841 -0.2235 -0.3714  0.1836
17140TIP3    H172835   3.922   5.819   0.778 -0.9961 -0.6025 -0.7046
17140TIP3    H272836   3.850   5.917   0.869 -0.3716 -0.0641 -0.7825
17141TIP3   OH272837   0.132   4.453   3.342  0.3599  0.0076  0.5452
17141TIP3    H172838   0.151   4.447   3.436  2.2394 -0.2377  0.1909
17141TIP3    H272839   0.150   4.544   3.320 -0.7874  0.2471  0.5373
17142TIP3   OH272840   4.839   6.087  16.496 -0.2022  0.2182 -0.1163
17142TIP3    H172841   4.863   6.114  16.407 -0.6621  0.9367 -0.0374
17142TIP3    H272842   4.908   6.124  16.552  0.3730 -0.6763 -0.2110
17143TIP3   OH272843   3.785   0.851  12.556  0.4472  0.8610  0.2116
17143TIP3    H172844   3.741   0.775  12.595  0.0674  1.5397  1.1268
17143TIP3    H272845   3.878   0.828  12.559  0.2450 -0.3508 -1.2402
17144TIP3   OH272846   3.865   2.934   1.007  0.0880  0.1894 -0.7318
17144TIP3    H172847   3.880   2.880   0.930 -1.3510 -1.7666  0.2480
17144TIP3    H272848   3.816   2.876   1.067  1.1838  1.5886  1.6529
17145TIP3   OH272849   3.698   1.893  16.449 -0.3640  0.1093 -0.2903
17145TIP3    H172850   3.672   1.806  16.480 -0.1437  0.2771  0.3814
17145TIP3    H272851   3.615   1.941  16.443 -0.4442 -0.0249 -0.2799
17146TIP3   OH272852   0.796   6.334  12.055 -0.0575  0.3794 -0.4119
17146TIP3    H172853   0.851   6.403  12.091  1.3278 -1.3187  0.8597
17146TIP3    H272854   0.801   6.262  12.118 -0.0913 -1.5415 -2.4504
17147TIP3   OH272855   2.475   5.547   5.570  0.0658 -0.1961 -0.1127
17147TIP3    H172856   2.432   5.477   5.620  1.6959 -1.8257 -0.8858
17147TIP3    H272857   2.568   5.529   5.580  0.4798  0.8814 -1.7434
17148TIP3   OH272858   1.550   4.692  16.633  0.5255  0.2033  0.3963
17148TIP3    H172859   1.591   4.761  16.580  1.0912  0.3616  1.0231
17148TIP3    H272860   1.584   4.707  16.721 -1.1052  0.5084  0.9999
17149TIP3   OH272861   6.589   5.222  12.540 -0.3272 -0.0177  0.1237
17149TIP3    H172862   6.567   5.244  12.630  1.1715  0.4396  0.4030
17149TIP3    H272863   6.652   5.151  12.547  0.2382  0.4032 -0.5320
17150TIP3   OH272864   3.854   1.976   0.262 -0.0405 -0.1780 -0.7122
17150TIP3    H172865   3.785   1.978   0.328  2.0017 -0.4393  1.5536
17150TIP3    H272866   3.815   1.928   0.188 -2.2250 -0.3464  0.4654
17151TIP3   OH272867   0.316   1.637   5.790 -0.0103 -0.3115  0.6303
17151TIP3    H172868   0.365   1.584   5.727 -0.4173  0.6745 -0.5586
17151TIP3    H272869   0.384   1.688   5.836  0.1998 -0.1861  0.1804
17152TIP3   OH272870   6.377   3.579  15.069  0.0385 -0.5219  0.5964
17152TIP3    H172871   6.362   3.554  15.160  1.8152 -1.9578  0.5481
17152TIP3    H272872   6.297   3.551  15.023 -0.1505 -1.4033  1.4324
17153TIP3   OH272873   3.547   5.929  15.948 -0.3009 -0.3901  0.1579
17153TIP3    H172874   3.505   5.923  15.861  0.2689  0.5119 -0.1972
17153TIP3    H272875   3.520   6.015  15.980  0.0805 -0.4259  0.5673
17154TIP3   OH272876   3.581   1.694   1.140  0.2914  0.8324 -0.1308
17154TIP3    H172877   3.674   1.711   1.149  0.4636 -0.1388  0.0814
17154TIP3    H272878   3.542   1.778   1.116  1.4671  0.8600 -2.1416
17155TIP3   OH272879   5.928   5.321  11.923 -0.4389  0.1231 -0.0176
17155TIP3    H172880   5.938   5.257  11.993  0.4242  0.8102  0.5072
17155TIP3    H272881   5.847   5.368  11.945 -0.0569  0.4844  0.6507
17156TIP3   OH272882   0.971   1.224  12.924  0.7277  0.6127 -0.2274
17156TIP3    H172883   1.023   1.260  12.851  1.1878 -0.1290 -0.2768
17156TIP3    H272884   0.891   1.277  12.924  0.7534  0.6809 -1.2252
17157TIP3   OH272885   4.411   0.643   5.031 -0.0577 -0.0024  0.0862
17157TIP3    H172886   4.335   0.640   5.089 -0.3689  0.8564 -0.2692
17157TIP3    H272887   4.475   0.586   5.073 -1.5155 -2.2208 -0.5132
17158TIP3   OH272888   2.463   3.645  12.336  0.7192  0.1899 -0.1038
17158TIP3    H172889   2.459   3.739  12.318  0.3190  0.3200  0.6189
17158TIP3    H272890   2.527   3.637  12.407 -1.9546  0.3747  2.5077
17159TIP3   OH272891   0.794   5.705   0.674  0.1124 -0.2976 -0.4932
17159TIP3    H172892   0.747   5.689   0.592 -0.7108 -1.1404  0.1281
17159TIP3    H272893   0.781   5.626   0.725  1.5563 -0.2253  0.0347
17160TIP3   OH272894   1.094   2.771  13.826  0.5249  0.4730  0.0225
17160TIP3    H172895   1.106   2.689  13.778  3.0842  1.2603 -0.8640
17160TIP3    H272896   1.063   2.744  13.912  0.0385 -1.3130 -0.6655
17161TIP3   OH272897   6.462   5.598  10.192  0.6768 -0.0075  0.5426
17161TIP3    H172898   6.421   5.530  10.246 -1.8272  0.6097 -0.4525
17161TIP3    H272899   6.509   5.549  10.125 -1.1707 -0.8604 -0.2239
17162TIP3   OH272900   5.003   1.914   0.910  0.3052  0.4800 -0.2330
17162TIP3    H172901   4.922   1.920   0.962 -0.8993  0.8666 -2.0663
17162TIP3    H272902   5.073   1.929   0.974 -1.0992  0.9580  1.2813
17163TIP3   OH272903   3.163   4.021   4.827  0.6280 -0.3605  0.3621
17163TIP3    H172904   3.218   4.020   4.905 -2.2702 -0.9365  2.5613
17163TIP3    H272905   3.168   3.931   4.793  1.5932 -0.2065  0.0563
17164TIP3   OH272906   3.909   2.820   4.178 -0.7068 -0.3413  0.0572
17164TIP3    H172907   3.848   2.872   4.127  0.2950  1.2505  0.3859
17164TIP3    H272908   3.979   2.798   4.117 -0.6788 -0.5043  0.1479
17165TIP3   OH272909   2.372   0.875  15.347  0.0265  0.4528 -0.0890
17165TIP3    H172910   2.357   0.968  15.360 -1.4651  0.3742 -0.9902
17165TIP3    H272911   2.456   0.870  15.301 -1.4973  1.6615 -3.3403
17166TIP3   OH272912   4.664   3.883   2.928 -0.1983 -0.0893  0.2020
17166TIP3    H172913   4.591   3.822   2.920 -0.5578  0.4991 -1.4450
17166TIP3    H272914   4.739   3.835   2.893 -0.4892  0.3968 -1.1303
17167TIP3   OH272915   6.782   5.115  15.367  0.2561  0.2249  0.2007
17167TIP3    H172916   6.867   5.081  15.338 -0.5743 -0.1894 -1.9807
17167TIP3    H272917   6.797   5.143  15.457  2.0556 -2.1334  0.7373
17168TIP3   OH272918   4.754   6.412  11.946 -0.0464 -0.0037  0.0967
17168TIP3    H172919   4.801   6.342  11.991  0.9622  0.8336  0.3877
17168TIP3    H272920   4.740   6.480  12.012 -0.8042  0.1790 -0.2338
17169TIP3   OH272921   2.499   4.169   5.467  0.3006 -0.4803  0.0057
17169TIP3    H172922   2.469   4.227   5.537  0.6155 -0.0647 -0.2009
17169TIP3    H272923   2.591   4.193   5.454 -0.2383  0.8512 -1.8938
17170TIP3   OH272924   1.120   2.305  11.892  0.1357 -0.1738  0.6342
17170TIP3    H172925   1.048   2.249  11.863 -0.3867 -0.7569  2.8503
17170TIP3    H272926   1.077   2.387  11.918  0.2722 -0.4408  1.7481
17171TIP3   OH272927   4.628   4.738   2.632  0.2639  0.3278  0.2530
17171TIP3    H172928   4.588   4.654   2.656 -1.7337  1.1316 -0.0439
17171TIP3    H272929   4.567   4.804   2.665  1.0695  1.6343 -0.7597
17172TIP3   OH272930   2.913   4.270  15.927  0.2582  0.0230  0.2831
17172TIP3    H172931   2.894   4.212  15.854 -0.3127 -0.6919  0.9736
17172TIP3    H272932   3.008   4.266  15.938  0.2407 -0.6741  0.2304
17173TIP3   OH272933   0.467   1.932  15.499  0.6314 -0.0358  0.0515
17173TIP3    H172934   0.476   1.844  15.462  0.3542  0.4739 -1.2625
17173TIP3    H272935   0.373   1.950  15.496  0.7208  0.4262  0.0280
17174TIP3   OH272936   1.277   2.697   0.813 -0.3649 -0.8597  0.4521
17174TIP3    H172937   1.260   2.763   0.881 -1.9020 -2.2509  1.4848
17174TIP3    H272938   1.294   2.749   0.734 -1.1284  0.8009  1.3130
17175TIP3   OH272939   0.194   2.892  15.003 -0.0482 -0.9783  0.5869
17175TIP3    H172940   0.158   2.964  14.951  2.7731  0.0854 -0.0852
17175TIP3    H272941   0.188   2.816  14.945  2.4951  0.0661 -1.2455
17176TIP3   OH272942   1.879   2.894  12.927  0.0069  0.5066 -0.2022
17176TIP3    H172943   1.815   2.847  12.873  1.4147 -1.7145 -0.0610
17176TIP3    H272944   1.963   2.854  12.905  0.7610  0.1104  2.9669
17177TIP3   OH272945   3.974   3.814  15.760 -0.2514 -0.4440 -0.5264
17177TIP3    H172946   3.999   3.785  15.672 -0.1879 -0.2709 -0.5653
17177TIP3    H272947   3.953   3.907  15.749  0.9434 -0.1207 -0.1182
17178TIP3   OH272948   0.217   0.646  13.377  0.6064  0.1345  0.1730
17178TIP3    H172949   0.209   0.727  13.326  0.7772 -0.7540 -1.3009
17178TIP3    H272950   0.176   0.668  13.461 -0.6944  1.3147 -0.7076
17179TIP3   OH272951   5.730   0.321   5.629  0.2221 -0.2209 -0.2204
17179TIP3    H172952   5.772   0.248   5.586 -1.2356  0.0220 -2.1800
17179TIP3    H272953   5.638   0.314   5.604 -0.5959  0.3812  2.2932
17180TIP3   OH272954   2.709   6.058   5.826 -0.0748 -0.0799  0.0283
17180TIP3    H172955   2.629   6.108   5.810 -0.8553 -1.0938  0.5884
17180TIP3    H272956   2.686   5.999   5.898  1.6372  0.6122  1.1958
17181TIP3   OH272957   2.683   1.052   4.374  0.3999  0.0688 -0.0410
17181TIP3    H172958   2.769   1.091   4.360 -0.1916  0.8245 -1.8943
17181TIP3    H272959   2.625   1.101   4.316 -1.2822 -0.4694  1.1141
17182TIP3   OH272960   6.651   2.196   0.571  0.4633  0.7393 -0.6547
17182TIP3    H172961   6.591   2.163   0.637 -0.8799  0.0431 -2.1466
17182TIP3    H272962   6.639   2.291   0.573  1.0369  0.7965  0.6210
17183TIP3   OH272963   3.099   3.027  16.051  0.2835  0.2298 -0.2557
17183TIP3    H172964   3.060   2.944  16.025 -0.1111 -0.5818  2.5986
17183TIP3    H272965   3.169   3.042  15.987 -0.4616 -1.6179 -1.5708
17184TIP3   OH272966   1.219   5.195   1.697  0.0327  0.5422 -0.7181
17184TIP3    H172967   1.132   5.182   1.734 -0.2584  0.0748 -1.5323
17184TIP3    H272968   1.228   5.125   1.632  0.0565  1.9955 -2.3440
17185TIP3   OH272969   2.788   3.022   3.398 -1.1278 -0.0547 -0.2539
17185TIP3    H172970   2.739   3.008   3.479  0.8988 -1.3829  0.8284
17185TIP3    H272971   2.865   3.072   3.424 -0.5545 -0.3088 -1.3887
17186TIP3   OH272972   3.963   4.361   2.031  0.2931 -0.1502  0.1112
17186TIP3    H172973   4.056   4.377   2.022  0.6155 -0.9167  1.6842
17186TIP3    H272974   3.945   4.377   2.124 -0.8916 -1.1374  0.0799
17187TIP3   OH272975   2.573   2.527  15.312  0.2069  0.0431 -0.2679
17187TIP3    H172976   2.659   2.496  15.286  0.0178 -1.1628  0.4556
17187TIP3    H272977   2.567   2.616  15.276  2.3943  0.7996  1.0820
17188TIP3   OH272978   2.738   3.842  12.551  0.1185 -0.2028 -0.0723
17188TIP3    H172979   2.692   3.896  12.487  0.6487 -1.2262 -1.3773
17188TIP3    H272980   2.702   3.754  12.538 -0.2174 -0.3243  1.5037
17189TIP3   OH272981   0.037   0.247   3.821  0.1696 -0.3729  0.5349
17189TIP3    H172982   0.079   0.292   3.894  0.0745  0.8102 -0.1166
17189TIP3    H272983   0.011   0.162   3.857 -0.2970  0.3651  2.0045
17190TIP3   OH272984   6.240   0.261   0.160  0.1721 -0.0092 -0.1706
17190TIP3    H172985   6.255   0.354   0.178  1.0085 -0.2892  0.6722
17190TIP3    H272986   6.255   0.217   0.244  0.3397 -0.9626 -0.6788
17191TIP3   OH272987   5.639   4.939  14.319  0.1264 -0.0029 -0.2884
17191TIP3    H172988   5.689   4.934  14.401  0.5064  0.9692 -0.4529
17191TIP3    H272989   5.573   5.006  14.335  0.6870  0.7405 -1.0275
17192TIP3   OH272990   3.065   1.663   6.333  0.3352  0.4447  0.9016
17192TIP3    H172991   2.979   1.673   6.373 -0.6548  0.6320 -1.1153
17192TIP3    H272992   3.074   1.569   6.317  0.0678  0.5266  0.2449
17193TIP3   OH272993   1.786   3.989   5.683 -0.1405  0.1977  0.0589
17193TIP3    H172994   1.749   4.049   5.618 -0.6343  0.2948  0.4228
17193TIP3    H272995   1.720   3.985   5.752  0.2321 -0.1664  0.3992
17194TIP3   OH272996   5.764   6.134  14.683 -0.0418 -0.3179 -0.1954
17194TIP3    H172997   5.711   6.194  14.735  0.4498 -0.0526  0.0000
17194TIP3    H272998   5.839   6.112  14.739  0.6961  0.2811 -0.9256
17195TIP3   OH272999   2.082   0.239  17.019  0.2950  0.3132  0.2017
17195TIP3    H173000   2.146   0.210  17.084 -0.6668 -3.6020 -0.3812
17195TIP3    H273001   2.024   0.298  17.067  0.4428 -1.3520  2.5622
17196TIP3   OH273002   3.618   0.801   3.199  0.2124 -0.2407  0.7265
17196TIP3    H173003   3.572   0.884   3.190 -0.8362 -0.6747  1.8818
17196TIP3    H273004   3.580   0.744   3.131  0.7953  0.1370  0.0644
17197TIP3   OH273005   0.347   2.407   2.648 -0.2536 -0.1403  0.2492
17197TIP3    H173006   0.396   2.465   2.590 -0.4815  0.8877  1.0487
17197TIP3    H273007   0.412   2.344   2.680 -0.0717 -0.5332 -0.8816
17198TIP3   OH273008   4.179   3.216   0.961 -0.0422 -0.5286  0.1735
17198TIP3    H173009   4.153   3.215   0.869  0.0992  0.4617  0.1143
17198TIP3    H273010   4.102   3.247   1.008  1.0330  2.9564 -0.0570
17199TIP3   OH273011   2.310   1.772  13.530  0.5271 -0.2681  0.0109
17199TIP3    H173012   2.401   1.744  13.535  0.2395 -1.0414  1.5928
17199TIP3    H273013   2.279   1.769  13.620 -1.1542 -0.3286 -0.5334
17200TIP3   OH273014   1.317   0.942   3.187 -0.3008 -0.3020  0.2147
17200TIP3    H173015   1.372   0.987   3.250  1.0910 -2.9187  1.0115
17200TIP3    H273016   1.377   0.912   3.119 -1.3395 -0.1015 -0.8401
17201TIP3   OH273017   5.327   2.902  15.230  0.6113 -0.4417 -0.2273
17201TIP3    H173018   5.304   2.886  15.322 -1.4529 -1.7098 -0.8974
17201TIP3    H273019   5.414   2.862  15.220  0.6257 -0.7878  1.0314
17202TIP3   OH273020   0.446   0.655  12.817  0.5263  0.6245  0.1892
17202TIP3    H173021   0.371   0.714  12.806  0.5777  0.5722 -0.4631
17202TIP3    H273022   0.517   0.698  12.768 -0.0361 -1.1030 -2.3525
17203TIP3   OH273023   6.220   3.254  15.220 -0.5350  0.2632  0.5027
17203TIP3    H173024   6.196   3.241  15.129 -0.8900 -2.0355  0.8661
17203TIP3    H273025   6.314   3.237  15.224  0.5336  4.8290 -0.1248
17204TIP3   OH273026   0.213   2.690   6.493  0.0335 -0.1581  1.0389
17204TIP3    H173027   0.224   2.731   6.579  0.1274  2.0474  0.0342
17204TIP3    H273028   0.303   2.674   6.463  0.0631  0.9854  0.4966
17205TIP3   OH273029   0.985   2.245   1.165  0.0749 -0.1646 -0.6396
17205TIP3    H173030   1.072   2.273   1.137  0.2459 -0.1639 -0.1331
17205TIP3    H273031   0.976   2.157   1.129  1.0986 -0.9580  0.8969
17206TIP3   OH273032   1.640   4.062  12.791  0.4883 -0.1078  1.0381
17206TIP3    H173033   1.557   4.042  12.834 -0.0713 -1.1528 -0.4390
17206TIP3    H273034   1.662   3.983  12.741  0.1669  1.5459 -1.9793
17207TIP3   OH273035   4.402   1.142   4.472 -0.2007 -0.5257 -0.0365
17207TIP3    H173036   4.439   1.193   4.545 -0.1952 -1.9500  0.9997
17207TIP3    H273037   4.478   1.109   4.425 -0.1833  1.5962 -1.6361
17208TIP3   OH273038   5.286   1.473  15.945  0.0349 -0.0500  0.1002
17208TIP3    H173039   5.360   1.433  15.989  0.8750  1.1793 -0.1562
17208TIP3    H273040   5.265   1.413  15.874 -2.5609 -3.0852  3.0956
17209TIP3   OH273041   3.554   5.638   5.186  0.3730 -0.6609  0.0476
17209TIP3    H173042   3.640   5.630   5.143  0.7506 -0.9495  0.8347
17209TIP3    H273043   3.543   5.555   5.232  1.2288  0.5909  2.7262
17210TIP3   OH273044   4.620   0.909  16.207 -0.1266 -0.1319  0.1898
17210TIP3    H173045   4.700   0.960  16.218 -0.7780  0.6844  1.2702
17210TIP3    H273046   4.650   0.827  16.167  1.4255 -0.3352  1.6862
17211TIP3   OH273047   6.292   0.910  16.948 -0.5148 -0.1174 -0.6798
17211TIP3    H173048   6.243   0.923  16.867  0.0960  1.0626 -0.8749
17211TIP3    H273049   6.290   0.815  16.962 -1.0049 -0.2902 -1.8351
17212TIP3   OH273050   3.341   2.289   1.522 -0.0370  0.5848  0.5612
17212TIP3    H173051   3.419   2.329   1.483 -1.1078  1.0744 -1.1606
17212TIP3    H273052   3.373   2.206   1.559  1.5786  1.4810  1.2555
17213TIP3   OH273053   2.836   5.933   3.790  0.4486  0.4562  0.4430
17213TIP3    H173054   2.786   5.868   3.839  1.0083 -0.2060  0.1485
17213TIP3    H273055   2.769   5.986   3.747 -0.0123 -0.2055  0.3219
17214TIP3   OH273056   5.490   4.868   2.142  0.3993 -0.1065 -0.1200
17214TIP3    H173057   5.528   4.794   2.095 -0.9119 -1.0060  0.1675
17214TIP3    H273058   5.558   4.894   2.204  0.9773 -0.9262 -0.3825
17215TIP3   OH273059   2.387   6.367   6.379 -0.0296  0.0423 -0.6387
17215TIP3    H173060   2.332   6.299   6.339 -0.6402 -0.8775  1.5731
17215TIP3    H273061   2.465   6.320   6.409  0.8526  0.8821 -1.5552
17216TIP3   OH273062   4.786   6.565   5.315  0.0469 -0.2043  0.0072
17216TIP3    H173063   4.745   6.598   5.235 -0.3980  0.7349  0.6050
17216TIP3    H273064   4.783   6.470   5.306  2.8276 -0.2286 -2.5221
17217TIP3   OH273065   0.723   6.577   5.076  0.5109  0.8436  0.5539
17217TIP3    H173066   0.673   6.638   5.023 -0.8995  0.3623  1.2794
17217TIP3    H273067   0.729   6.618   5.162 -1.2213 -0.3528  1.3107
17218TIP3   OH273068   4.816   2.350  14.060  0.5729 -0.4813 -0.0743
17218TIP3    H173069   4.760   2.380  13.989  2.3265 -0.5253 -1.5579
17218TIP3    H273070   4.894   2.405  14.053  1.9398 -2.3157  0.0257
17219TIP3   OH273071   1.731   4.148  16.102 -0.3561  0.7964  0.3417
17219TIP3    H173072   1.653   4.200  16.122 -1.4243 -0.5234 -0.1852
17219TIP3    H273073   1.762   4.183  16.019 -0.9791  0.7002  0.0610
17220TIP3   OH273074   1.839   5.967   0.214  0.1357 -0.0228  0.2355
17220TIP3    H173075   1.902   5.991   0.282  1.1049 -0.3673 -0.5171
17220TIP3    H273076   1.870   6.013   0.136  0.4415 -1.4924 -0.5486
17221TIP3   OH273077   4.051   3.899  11.426  0.5145 -0.6363  0.2181
17221TIP3    H173078   4.049   3.830  11.359 -2.7733 -1.0445  0.5790
17221TIP3    H273079   4.039   3.980  11.377  1.9799 -0.5160  0.0170
17222TIP3   OH273080   1.416   2.011   1.788 -0.1823  0.4920 -0.0495
17222TIP3    H173081   1.511   2.020   1.785  0.2941 -2.4562  1.8784
17222TIP3    H273082   1.393   1.970   1.705  0.0282  2.1618 -0.9696
17223TIP3   OH273083   1.022   0.961   0.443 -0.5396 -0.4734 -0.6001
17223TIP3    H173084   1.043   1.036   0.388  1.3309  0.7959  1.7099
17223TIP3    H273085   0.947   0.990   0.495  0.3935 -0.0246  0.5323
17224TIP3   OH273086   2.473   4.651   3.109  0.0870  0.4031 -0.0450
17224TIP3    H173087   2.385   4.642   3.072  0.0618  1.1527 -0.1917
17224TIP3    H273088   2.470   4.734   3.158  1.2634  1.4828 -1.6992
17225TIP3   OH273089   5.356   5.013  10.863 -0.2011 -0.2047  0.2668
17225TIP3    H173090   5.301   4.950  10.816  0.6098  0.5293 -1.7629
17225TIP3    H273091   5.307   5.095  10.858  0.9165  0.4169 -1.4158
17226TIP3   OH273092   6.373   0.240  16.555  0.1414  0.2032  0.0668
17226TIP3    H173093   6.432   0.168  16.575  0.9104  0.7160 -0.3233
17226TIP3    H273094   6.366   0.241  16.460  1.8925  1.9699 -0.1180
17227TIP3   OH273095   4.366   1.633   2.700  0.0239 -0.2663 -0.0051
17227TIP3    H173096   4.390   1.722   2.724  0.5407 -0.5084  0.4007
17227TIP3    H273097   4.423   1.611   2.627  1.3525 -0.9740  1.1985
17228TIP3   OH273098   3.169   3.567   6.369  0.0795  0.3342 -0.0086
17228TIP3    H173099   3.079   3.567   6.401 -0.6259 -0.9832 -1.8185
17228TIP3    H273100   3.204   3.482   6.394  1.2709  1.2686  1.7063
17229TIP3   OH273101   2.622   2.801  12.966 -0.1659  0.1146 -0.5564
17229TIP3    H173102   2.583   2.889  12.962  1.6109  1.0019  0.2659
17229TIP3    H273103   2.685   2.807  13.038  2.2669 -0.8820 -2.4582
17230TIP3   OH273104   2.623   3.576   5.196  1.1766  0.0424  0.3505
17230TIP3    H173105   2.553   3.593   5.260  0.4551 -0.1194 -0.3818
17230TIP3    H273106   2.668   3.499   5.231 -1.1278 -1.9791 -0.8270
17231TIP3   OH273107   5.454   0.260  14.571  0.0213 -0.0690  0.2065
17231TIP3    H173108   5.477   0.327  14.506  1.8598  0.3175  1.1802
17231TIP3    H273109   5.391   0.303  14.629  0.4472  0.5163  0.2472
17232TIP3   OH273110   4.473   2.234  11.325 -0.3930 -0.7244  0.2946
17232TIP3    H173111   4.523   2.238  11.242  1.8676  0.2068  1.5996
17232TIP3    H273112   4.483   2.144  11.354  0.4587 -0.5868  0.4638
17233TIP3   OH273113   1.334   0.357   4.496 -0.0930 -0.0172 -0.8942
17233TIP3    H173114   1.358   0.397   4.412 -0.9644 -0.1409 -1.2116
17233TIP3    H273115   1.381   0.274   4.498  0.4137  0.2660 -0.9835
17234TIP3   OH273116   1.821   3.506  11.057 -0.1752  0.6197 -0.3852
17234TIP3    H173117   1.790   3.545  11.139  1.4923  0.6601  0.2721
17234TIP3    H273118   1.816   3.576  10.993  1.3293  1.5326  0.4223
17235TIP3   OH273119   3.472   3.231   5.947 -0.0255  0.1624 -0.5060
17235TIP3    H173120   3.517   3.284   5.881 -2.3379  2.3125 -0.5333
17235TIP3    H273121   3.526   3.240   6.025  0.7150  0.8810 -1.0770
17236TIP3   OH273122   4.770   5.182   3.243  0.7907  0.1806  0.3681
17236TIP3    H173123   4.767   5.103   3.297  0.5885  0.7094  1.1484
17236TIP3    H273124   4.757   5.151   3.154  0.0049 -0.5937  0.7432
17237TIP3   OH273125   2.351   5.599  16.094  0.1302 -0.0359  0.1375
17237TIP3    H173126   2.433   5.557  16.067 -0.5899 -0.5480 -1.3708
17237TIP3    H273127   2.290   5.527  16.106 -0.5156  0.4407 -0.2442
17238TIP3   OH273128   1.894   0.131   5.128 -0.0436  0.1168  0.0660
17238TIP3    H173129   1.874   0.167   5.214 -2.4739  1.3285 -0.8956
17238TIP3    H273130   1.819   0.076   5.107  0.7385 -0.5553 -1.0883
17239TIP3   OH273131   0.175   1.041   0.757  0.0186 -0.2596 -0.7618
17239TIP3    H173132   0.112   1.032   0.685  0.7744  1.3153 -1.6680
17239TIP3    H273133   0.192   1.135   0.762  2.4691 -0.6436 -0.6979
17240TIP3   OH273134   0.569   0.942   1.436 -0.2272 -0.0925  0.0890
17240TIP3    H173135   0.594   0.865   1.385 -2.2532 -0.9765  0.3431
17240TIP3    H273136   0.567   1.013   1.372 -0.3814 -0.6831 -0.5739
17241TIP3   OH273137   0.980   0.442  12.538  0.3443  0.4252 -0.3039
17241TIP3    H173138   1.002   0.404  12.452 -1.9292  0.9030 -1.1781
17241TIP3    H273139   1.024   0.527  12.538  1.8195 -0.3066 -0.2128
17242TIP3   OH273140   4.688   2.122   1.829  0.3777  0.6677 -0.2459
17242TIP3    H173141   4.681   2.204   1.779  0.4030  0.3978 -0.6948
17242TIP3    H273142   4.782   2.111   1.843  0.5924 -0.5078 -2.2574
17243TIP3   OH273143   6.216   5.469  12.462 -0.4354  0.0276 -0.5794
17243TIP3    H173144   6.180   5.411  12.530  1.8265  0.0976  0.7609
17243TIP3    H273145   6.175   5.439  12.381 -1.9354 -1.1744  0.5614
17244TIP3   OH273146   6.497   1.303   6.469  0.1909  0.6864  0.3207
17244TIP3    H173147   6.427   1.291   6.534  0.8050  0.9219  1.0406
17244TIP3    H273148   6.452   1.337   6.392 -0.8827 -1.5396 -0.1322
17245TIP3   OH273149   2.212   2.128   0.022  0.1484  0.5086 -0.3289
17245TIP3    H173150   2.238   2.181  -0.053 -1.2067  0.5215 -0.8172
17245TIP3    H273151   2.278   2.059   0.028  0.0809  0.3011 -1.7627
17246TIP3   OH273152   2.043   5.174  13.539  0.6469  0.1213  0.1685
17246TIP3    H173153   1.985   5.176  13.463  0.6528 -0.8455  0.1288
17246TIP3    H273154   2.004   5.237  13.600 -1.4319 -1.6672  0.8246
17247TIP3   OH273155   6.161   3.893  11.154 -0.7900 -0.2188 -0.5650
17247TIP3    H173156   6.108   3.814  11.163 -0.1016 -0.5617  0.7846
17247TIP3    H273157   6.249   3.861  11.137 -0.7172  0.3123 -1.2479
17248TIP3   OH273158   2.498   4.176   6.564  0.0103 -0.5888 -0.1211
17248TIP3    H173159   2.412   4.139   6.582 -0.4932 -0.1385 -1.4794
17248TIP3    H273160   2.499   4.259   6.611 -1.6709  1.0635 -2.7682
17249TIP3   OH273161   1.206   2.970   2.859 -0.2069 -0.5931  0.1423
17249TIP3    H173162   1.197   2.896   2.919  2.9349 -1.3544 -0.1260
17249TIP3    H273163   1.265   2.938   2.791  0.0159  1.7013 -0.8377
17250TIP3   OH273164   2.086   4.165   6.739  0.1085  0.4636 -0.5019
17250TIP3    H173165   1.995   4.189   6.721 -0.3588 -0.2770  0.7423
17250TIP3    H273166   2.119   4.237   6.793 -0.8557 -0.8509  2.0109
17251TIP3   OH273167   1.324   1.968   2.168 -0.7133 -0.2096 -0.2384
17251TIP3    H173168   1.272   1.971   2.248 -0.4193  0.9102 -0.0666
17251TIP3    H273169   1.260   1.964   2.097 -0.9662 -1.7859  0.0517
17252TIP3   OH273170   2.898   2.073   0.696 -0.4930 -0.3376 -0.4906
17252TIP3    H173171   2.958   2.001   0.714  0.9729  0.8486 -0.4926
17252TIP3    H273172   2.871   2.059   0.605 -1.7093 -1.8985  0.0627
17253TIP3   OH273173   2.102   2.122  14.350 -0.1090  0.1277  0.4142
17253TIP3    H173174   2.083   2.171  14.430 -0.7015  1.7253 -0.6494
17253TIP3    H273175   2.125   2.189  14.285  2.3681 -1.2465 -0.2706
17254TIP3   OH273176   4.424   6.521   4.146 -0.2828 -0.1577  0.0650
17254TIP3    H173177   4.504   6.477   4.116  0.8021  1.4177  0.5415
17254TIP3    H273178   4.354   6.477   4.098  0.6114 -2.8986  1.0468
17255TIP3   OH273179   5.798   1.723   2.290 -0.1473  0.1713 -0.4935
17255TIP3    H173180   5.771   1.639   2.326 -2.4195  0.6026 -1.0143
17255TIP3    H273181   5.812   1.779   2.367  0.1354 -0.3382 -0.1757
17256TIP3   OH273182   6.451   6.007   5.179 -0.3118 -0.1957 -0.8542
17256TIP3    H173183   6.408   5.966   5.104  0.4379 -2.4764 -0.1308
17256TIP3    H273184   6.383   6.060   5.220 -1.2236 -0.3248 -2.1380
17257TIP3   OH273185   6.035   3.926  12.954  0.1731  0.2229  0.6572
17257TIP3    H173186   6.119   3.909  12.998  0.0848 -0.1468  0.6900
17257TIP3    H273187   6.038   3.871  12.875 -0.7866 -1.2208  1.5747
17258TIP3   OH273188   3.827   1.644   0.970 -0.7389  0.5180 -0.4131
17258TIP3    H173189   3.864   1.630   1.057  0.8393 -0.4346 -1.2033
17258TIP3    H273190   3.839   1.738   0.954  0.3930  0.4199 -0.2201
17259TIP3   OH273191   0.300   2.939  11.960 -0.2622  0.1488  0.0312
17259TIP3    H173192   0.256   3.014  11.921 -0.9111  0.1793  0.7994
17259TIP3    H273193   0.311   2.962  12.052  1.9098  0.3896 -0.2333
17260TIP3   OH273194   3.477   1.210   3.527  0.0518  0.3336  0.0967
17260TIP3    H173195   3.483   1.305   3.518  1.7931  0.1808 -0.8398
17260TIP3    H273196   3.434   1.181   3.446  0.2716  0.2653  0.0040
17261TIP3   OH273197   4.939   2.977  13.730  0.0833 -0.4731  0.6321
17261TIP3    H173198   4.975   2.985  13.819  3.1951  0.3297 -0.5750
17261TIP3    H273199   4.919   3.067  13.704  1.0392 -0.4740 -0.1504
17262TIP3   OH273200   4.861   2.546   4.328  0.4361 -0.2619 -0.0275
17262TIP3    H173201   4.812   2.605   4.386  0.5840  0.9447 -1.0980
17262TIP3    H273202   4.944   2.591   4.313 -0.3633  0.4748 -2.7715
17263TIP3   OH273203   6.310   3.133   1.596  0.0228 -0.2673 -0.0247
17263TIP3    H173204   6.247   3.060   1.596  2.5593 -2.6051  0.5282
17263TIP3    H273205   6.359   3.121   1.677  1.2102  1.4755 -0.4434
17264TIP3   OH273206   1.529   0.952  15.726  0.0079 -0.0348 -0.1480
17264TIP3    H173207   1.616   0.921  15.700 -0.1853 -1.1343  0.4378
17264TIP3    H273208   1.544   1.006  15.803  0.0944 -1.2283  0.7107
17265TIP3   OH273209   3.992   2.455   0.186 -0.4939 -0.0174  0.9564
17265TIP3    H173210   4.042   2.378   0.212 -0.9940 -0.3321  0.9895
17265TIP3    H273211   4.058   2.515   0.151 -0.3964 -1.4651 -1.5395
17266TIP3   OH273212   3.619   4.194   0.051 -0.6597  0.4436 -0.6509
17266TIP3    H173213   3.549   4.231   0.105  0.2988 -1.1253  1.8291
17266TIP3    H273214   3.697   4.245   0.074 -0.5150  0.6967 -1.6693
17267TIP3   OH273215   2.905   0.186   5.348 -0.0357  0.0476  0.4240
17267TIP3    H173216   2.996   0.157   5.342  0.0501  0.3817  0.0085
17267TIP3    H273217   2.903   0.268   5.298 -1.3211 -1.7080 -2.7025
17268TIP3   OH273218   0.567   1.999   2.516 -0.1481 -0.4399  0.5642
17268TIP3    H173219   0.553   2.036   2.429 -0.8540  0.9424  1.2367
17268TIP3    H273220   0.580   1.905   2.500  4.3696  0.2661 -1.4845
17269TIP3   OH273221   3.865   3.044   5.662 -0.7224  0.4759  0.2199
17269TIP3    H173222   3.801   3.113   5.644 -0.3546  1.2565  1.7659
17269TIP3    H273223   3.892   3.059   5.752  3.1229  1.4494 -0.8849
17270TIP3   OH273224   1.860   4.901   0.128 -0.2764 -0.5884  0.7211
17270TIP3    H173225   1.783   4.888   0.073  0.8782  1.3941 -1.6033
17270TIP3    H273226   1.832   4.964   0.194 -0.2748  1.7975 -1.3719
17271TIP3   OH273227   3.780   0.012   4.258  0.0278  0.7047 -0.4604
17271TIP3    H173228   3.773   0.053   4.171  1.7015 -0.1540 -1.0536
17271TIP3    H273229   3.788   0.086   4.318  2.5988  1.3767 -1.4714
17272TIP3   OH273230   4.359   6.396   0.615 -0.0081 -0.2399 -0.2697
17272TIP3    H173231   4.436   6.441   0.651  0.1377 -0.8235  0.1581
17272TIP3    H273232   4.336   6.332   0.682 -0.2462 -0.7683 -0.8570
17273TIP3   OH273233   5.015   2.140  14.922 -0.3670  0.0081  0.2998
17273TIP3    H173234   5.039   2.217  14.974 -1.8725  0.4403  0.3877
17273TIP3    H273235   5.034   2.165  14.832 -0.9412  0.5180  0.3204
17274TIP3   OH273236   4.115   2.079   5.960  0.3170 -0.7092 -0.1500
17274TIP3    H173237   4.174   2.154   5.971 -2.2871  1.2294  2.1682
17274TIP3    H273238   4.166   2.004   5.992  1.9935  0.5904  0.4222
17275TIP3   OH273239   1.845   4.375   3.900  0.4531 -0.1329  0.1273
17275TIP3    H173240   1.770   4.426   3.930  0.1278  0.1936 -1.1943
17275TIP3    H273241   1.887   4.430   3.834  0.5352 -1.2435 -0.7846
17276TIP3   OH273242   6.690   0.859   5.104  0.6696  0.1066  0.0718
17276TIP3    H173243   6.617   0.870   5.042  1.1875 -1.5647 -0.9033
17276TIP3    H273244   6.761   0.822   5.051  0.9065 -2.0795  1.7533
17277TIP3   OH273245   1.611   2.761   3.983  0.0332 -0.1071 -0.3390
17277TIP3    H173246   1.565   2.706   3.920 -1.2148  0.9634 -0.4041
17277TIP3    H273247   1.637   2.701   4.053 -2.7044 -0.5913  0.3752
17278TIP3   OH273248   6.450   1.110  13.283  0.1408 -0.0577  0.6303
17278TIP3    H173249   6.433   1.103  13.189 -0.0722 -0.0786  0.6707
17278TIP3    H273250   6.470   1.020  13.311  1.8499  0.1722  0.2923
17279TIP3   OH273251   0.327   4.248   5.366 -0.0190  0.0262  0.0115
17279TIP3    H173252   0.293   4.281   5.283 -2.9390 -1.8063  0.3514
17279TIP3    H273253   0.382   4.174   5.342 -0.7416 -0.4111 -0.3373
17280TIP3   OH273254   3.053   4.698   3.600 -0.0052  0.2597 -0.1266
17280TIP3    H173255   3.033   4.669   3.689  0.2186  1.0513  0.1861
17280TIP3    H273256   3.070   4.792   3.608 -0.9667  0.5483 -1.1672
17281TIP3   OH273257   1.896   4.081   0.477 -0.0969 -0.3532 -0.0071
17281TIP3    H173258   1.975   4.065   0.426 -0.6070  2.2556 -1.8866
17281TIP3    H273259   1.834   4.014   0.449  1.0697 -1.7475  0.6748
17282TIP3   OH273260   5.318   5.238   0.775  0.4778 -0.2558  0.4779
17282TIP3    H173261   5.240   5.189   0.802 -1.6209  2.0480 -1.0702
17282TIP3    H273262   5.327   5.307   0.841 -0.1313  0.7776 -0.4873
17283TIP3   OH273263   6.264   6.483  14.974  0.3519 -0.0026  0.3449
17283TIP3    H173264   6.286   6.543  15.045 -2.7089  0.6978  0.8344
17283TIP3    H273265   6.301   6.523  14.896  0.4239  1.2660  1.0091
17284TIP3   OH273266   4.341   4.200   6.562 -0.4536  0.2628 -0.2060
17284TIP3    H173267   4.321   4.272   6.502  0.4614 -0.7062 -1.7400
17284TIP3    H273268   4.436   4.201   6.570 -0.5959  1.7975  3.1607
17285TIP3   OH273269   0.715   0.730   2.749 -0.4580  0.9567  0.0919
17285TIP3    H173270   0.757   0.721   2.835 -0.5315 -1.7838 -0.0815
17285TIP3    H273271   0.625   0.754   2.768 -1.0728 -1.7441  0.9901
17286TIP3   OH273272   1.433   6.349  16.963 -0.8172  0.0479 -0.1870
17286TIP3    H173273   1.366   6.370  17.028 -0.9278 -0.4710 -0.1315
17286TIP3    H273274   1.416   6.411  16.891  0.4585  1.8887  1.0268
17287TIP3   OH273275   2.931   5.316   1.473 -0.2200 -0.2156 -0.4981
17287TIP3    H173276   2.956   5.227   1.452  1.2553  0.4434 -1.7340
17287TIP3    H273277   2.995   5.371   1.427 -1.4449  1.4885 -0.2883
17288TIP3   OH273278   5.161   5.624  17.139  0.0702  0.3015 -0.3878
17288TIP3    H173279   5.076   5.595  17.107 -0.2588 -0.8478  1.3518
17288TIP3    H273280   5.224   5.573  17.089 -0.3753 -0.6257 -0.0306
17289TIP3   OH273281   1.964   0.903   1.499 -0.0922  0.2976 -0.4475
17289TIP3    H173282   1.928   0.989   1.524  1.0331  0.8006 -0.5073
17289TIP3    H273283   2.051   0.923   1.465  1.4288 -1.1191  2.3025
17290TIP3   OH273284   2.875   6.485  14.238  0.3078  0.2982  0.2101
17290TIP3    H173285   2.947   6.468  14.177  0.1373  2.6041 -0.7407
17290TIP3    H273286   2.800   6.506  14.182 -0.3169  0.7662  1.1870
17291TIP3   OH273287   6.124   2.205  14.746  0.2189 -0.0333  0.3081
17291TIP3    H173288   6.070   2.191  14.824  0.4704  0.0048  0.4900
17291TIP3    H273289   6.210   2.171  14.770 -0.2317 -2.0253 -0.6920
17292TIP3   OH273290   4.269   0.514  11.815 -0.4393  0.1656  0.2324
17292TIP3    H173291   4.297   0.574  11.746 -1.3442  0.8909  0.4706
17292TIP3    H273292   4.305   0.429  11.789  0.1283  0.6341 -0.5682
17293TIP3   OH273293   6.011   4.234   2.792  0.4300 -0.1043 -0.2863
17293TIP3    H173294   6.075   4.198   2.853  0.3218 -0.3656 -0.3237
17293TIP3    H273295   6.064   4.269   2.720  0.5837  0.7743  0.2520
17294TIP3   OH273296   1.703   4.168  15.789  0.0681 -0.2911 -0.2480
17294TIP3    H173297   1.792   4.138  15.807  0.1543  0.8221  1.4134
17294TIP3    H273298   1.679   4.125  15.707  1.8866 -1.1202 -0.3889
17295TIP3   OH273299   0.378   4.880  12.156  0.2808 -0.1156 -0.2406
17295TIP3    H173300   0.355   4.957  12.208  0.1380  0.2233 -0.7946
17295TIP3    H273301   0.415   4.916  12.075  0.2040 -0.6304 -0.5108
17296TIP3   OH273302   5.628   5.623   2.769 -0.1137  0.1585 -0.3040
17296TIP3    H173303   5.536   5.646   2.779  0.2243  1.2481  0.5016
17296TIP3    H273304   5.635   5.588   2.680 -1.2448  0.3861 -0.4892
17297TIP3   OH273305   2.868   4.075  16.313 -0.1125 -0.1162  0.1364
17297TIP3    H173306   2.875   4.161  16.273 -2.3522  0.0311 -0.0849
17297TIP3    H273307   2.814   4.025  16.252 -1.1039 -0.8089  1.5238
17298TIP3   OH273308   3.734   2.047   5.412 -0.2342  0.0906  0.1965
17298TIP3    H173309   3.652   2.083   5.446 -0.7352  0.6656 -1.5274
17298TIP3    H273310   3.708   1.995   5.337  1.1036  2.0656 -1.7690
17299TIP3   OH273311   6.574   4.077  11.828 -0.1707 -0.1308  0.4217
17299TIP3    H173312   6.572   4.033  11.742 -1.1685 -2.8009  1.6977
17299TIP3    H273313   6.655   4.048  11.868  0.3306  1.1759  0.3946
17300TIP3   OH273314   5.123   1.627  11.487  0.4675  0.2275  0.1075
17300TIP3    H173315   5.213   1.632  11.520  0.8879  1.8482 -1.1721
17300TIP3    H273316   5.113   1.705  11.432 -2.0273  0.5688  0.9322
17301TIP3   OH273317   0.991   5.106  11.726 -0.6784 -0.1859 -0.0577
17301TIP3    H173318   1.075   5.150  11.740 -0.9416 -0.3031  2.3212
17301TIP3    H273319   0.937   5.171  11.682 -0.1444  0.8664  0.7825
17302TIP3   OH273320   0.879   2.097   1.928  0.3275 -0.2548  0.0255
17302TIP3    H173321   0.876   2.147   2.010  0.7752 -0.2137  0.0208
17302TIP3    H273322   0.812   2.029   1.938 -0.5442  0.5720 -0.1190
17303TIP3   OH273323   3.141   4.468   2.410  0.2629 -0.7305  0.7926
17303TIP3    H173324   3.057   4.434   2.440  1.0003 -3.1091  0.4071
17303TIP3    H273325   3.142   4.450   2.316  0.7851  0.2916  0.5832
17304TIP3   OH273326   0.278   4.019  10.634 -0.0548  0.4447  0.7942
17304TIP3    H173327   0.227   4.025  10.714  0.6605 -1.3499  1.4287
17304TIP3    H273328   0.356   4.072  10.651  1.3909 -2.0295  2.3858
17305TIP3   OH273329   4.146   4.409   5.090  0.0570 -0.6994 -0.1238
17305TIP3    H173330   4.157   4.457   5.008  0.2565  0.0562  0.3315
17305TIP3    H273331   4.169   4.319   5.069  1.5523 -0.2354 -0.5436
17306TIP3   OH273332   6.136   2.870  15.200  0.2275  0.1719  0.0458
17306TIP3    H173333   6.167   2.805  15.263  2.3852  1.7979  0.8030
17306TIP3    H273334   6.202   2.870  15.130  1.0437  2.3736  0.7096
17307TIP3   OH273335   4.250   4.517  11.719  0.5387 -0.4577 -0.2280
17307TIP3    H173336   4.202   4.540  11.640  0.8008 -0.6672 -0.4526
17307TIP3    H273337   4.325   4.465  11.687  0.0616 -1.4614  0.2328
17308TIP3   OH273338   5.152   6.623  15.609  0.2235 -0.0904  0.4315
17308TIP3    H173339   5.208   6.632  15.532  0.5891 -0.5654  0.6366
17308TIP3    H273340   5.214   6.621  15.682 -0.0216 -1.2566  0.6192
17309TIP3   OH273341   0.980   3.066   1.964 -0.8740  0.3622  0.4438
17309TIP3    H173342   1.043   3.116   1.913  0.5266 -0.2314  1.5100
17309TIP3    H273343   0.919   3.131   1.998 -1.0513  0.9102 -0.8873
17310TIP3   OH273344   4.923   2.790   5.576 -0.1869 -0.2123 -0.0365
17310TIP3    H173345   4.986   2.719   5.592 -1.3361 -1.4572 -0.8643
17310TIP3    H273346   4.925   2.803   5.481  0.3226  1.1977  0.1405
17311TIP3   OH273347   1.343   2.194   1.473 -0.4498 -0.1514  0.3453
17311TIP3    H173348   1.386   2.222   1.392  2.6613  0.3658  2.0079
17311TIP3    H273349   1.400   2.126   1.508 -2.1153 -0.8816  1.7627
17312TIP3   OH273350   3.185   5.505  15.501  0.0372  0.1991 -0.0200
17312TIP3    H173351   3.133   5.581  15.526  1.7161  1.6286 -0.6435
17312TIP3    H273352   3.136   5.465  15.429 -1.2767  0.1853  0.8605
17313TIP3   OH273353   4.836   5.400  12.449 -0.1408 -0.4719 -0.4835
17313TIP3    H173354   4.745   5.378  12.471 -0.5546  0.7837 -0.8445
17313TIP3    H273355   4.878   5.316  12.434 -0.3823 -1.3154  2.8114
17314TIP3   OH273356   6.470   1.861  14.485  0.8787 -0.8249  0.0068
17314TIP3    H173357   6.381   1.867  14.522  0.1832 -2.1670 -1.3638
17314TIP3    H273358   6.474   1.774  14.445  2.0013  0.0681 -1.9828
17315TIP3   OH273359   6.079   1.466   4.744  0.0604 -0.4823 -0.1607
17315TIP3    H173360   6.145   1.466   4.674 -0.4023 -2.1473 -0.6452
17315TIP3    H273361   6.044   1.377   4.743 -1.0507 -0.0843  1.1796
17316TIP3   OH273362   0.450   6.066   5.643 -0.0992  0.2602 -0.0957
17316TIP3    H173363   0.503   6.037   5.569 -0.2693 -1.4666  0.4308
17316TIP3    H273364   0.366   6.022   5.632 -0.0108 -0.3095  1.3113
17317TIP3   OH273365   6.005   6.055  10.856 -0.9477  0.1643 -0.3630
17317TIP3    H173366   6.077   6.011  10.901  0.1772  0.8908 -1.4180
17317TIP3    H273367   6.022   6.148  10.867 -2.6067  0.3913  0.7185
17318TIP3   OH273368   6.349   2.537  14.332 -0.5129  0.3651  0.4232
17318TIP3    H173369   6.338   2.460  14.389 -0.4647  0.0636  0.0278
17318TIP3    H273370   6.281   2.526  14.265  0.1752  0.1194 -0.2412
17319TIP3   OH273371   1.049   5.232  14.786 -0.3983 -0.1842 -0.0513
17319TIP3    H173372   1.114   5.215  14.718  2.4717 -0.9312  2.6446
17319TIP3    H273373   1.073   5.317  14.823 -1.5259 -0.0469  0.4099
17320TIP3   OH273374   0.962   6.498   0.578 -0.6752  0.0267  0.0180
17320TIP3    H173375   0.867   6.500   0.590 -0.6130  0.2157  0.5045
17320TIP3    H273376   0.981   6.409   0.547 -0.9210 -0.2956  0.7533
17321TIP3   OH273377   6.048   5.986  15.252 -0.3491 -0.2440  0.6130
17321TIP3    H173378   5.979   6.034  15.207  0.3833 -1.2147 -1.6933
17321TIP3    H273379   6.003   5.919  15.302 -1.2001  0.8998  1.4217
17322TIP3   OH273380   0.364   5.153   2.892 -1.3193 -0.5458  0.3183
17322TIP3    H173381   0.342   5.084   2.955  1.7910 -2.8859 -0.8698
17322TIP3    H273382   0.408   5.220   2.944 -2.5608 -0.3687  1.1927
17323TIP3   OH273383   4.785   0.461  10.564  0.6633 -0.0244 -0.3415
17323TIP3    H173384   4.735   0.479  10.644 -0.9405  1.7847 -1.6410
17323TIP3    H273385   4.839   0.539  10.552  1.5706 -0.6760 -0.5645
17324TIP3   OH273386   1.500   2.625   4.661 -0.3086 -0.4142 -0.0281
17324TIP3    H173387   1.486   2.685   4.734 -1.0059  0.7946 -1.1000
17324TIP3    H273388   1.593   2.635   4.639 -0.3957  0.2122 -0.1273
17325TIP3   OH273389   6.349   5.465  13.055 -0.5205 -0.0595 -0.0344
17325TIP3    H173390   6.443   5.458  13.038 -0.2010 -1.3913  1.9749
17325TIP3    H273391   6.319   5.375  13.068 -1.6489  0.4703  1.3678
17326TIP3   OH273392   2.013   3.195   5.357  0.2158 -0.0266  0.0384
17326TIP3    H173393   2.010   3.158   5.269  0.8337 -1.5315  0.6156
17326TIP3    H273394   1.930   3.241   5.366 -0.3355 -0.7777 -0.9525
17327TIP3   OH273395   4.787   1.042  11.875  0.6580  0.3966  0.6141
17327TIP3    H173396   4.780   0.984  11.951  0.0338 -1.0510 -0.4946
17327TIP3    H273397   4.878   1.032  11.845  0.4272 -0.3992  0.1533
17328TIP3   OH273398   4.008   3.441  13.833  0.2682  0.8312 -0.1801
17328TIP3    H173399   4.070   3.372  13.810  0.7498  0.4914  1.9959
17328TIP3    H273400   3.922   3.406  13.807  0.6975  0.2536 -0.8689
17329TIP3   OH273401   4.613   4.988   4.170 -0.2875  0.0943 -0.0649
17329TIP3    H173402   4.630   4.943   4.253 -0.0868  1.9443  0.9579
17329TIP3    H273403   4.687   5.048   4.160 -0.2774 -0.1392 -1.6406
17330TIP3   OH273404   5.915   0.722   4.274 -0.5838  0.4971  0.0763
17330TIP3    H173405   5.895   0.794   4.214 -2.3964 -1.3855 -1.7958
17330TIP3    H273406   5.985   0.674   4.230  0.0863  0.6645  0.9364
17331TIP3   OH273407   3.558   5.155  14.900 -0.1028 -0.4745  0.0340
17331TIP3    H173408   3.554   5.113  14.986 -0.3746  1.9645  1.3086
17331TIP3    H273409   3.549   5.248  14.919  0.5328  0.2039 -2.6083
17332TIP3   OH273410   5.671   4.839   2.365 -0.7426 -0.1281 -0.4309
17332TIP3    H173411   5.699   4.930   2.374 -2.9575  0.7839 -1.9667
17332TIP3    H273412   5.741   4.797   2.315 -0.0373  0.9135 -0.3522
17333TIP3   OH273413   4.367   1.587  14.485 -0.1987  0.0280 -0.6450
17333TIP3    H173414   4.339   1.496  14.476 -0.5594 -0.2359  2.3814
17333TIP3    H273415   4.459   1.581  14.513 -1.0919  0.3815  2.7189
17334TIP3   OH273416   2.141   4.137  16.480  0.0932  0.1725 -0.0491
17334TIP3    H173417   2.106   4.177  16.400  1.1842  1.1622 -0.0749
17334TIP3    H273418   2.098   4.052  16.486  0.2798 -0.0925 -1.9149
17335TIP3   OH273419   6.703   3.827  16.131  0.1052  0.1845  0.1173
17335TIP3    H173420   6.701   3.734  16.108  0.4892  0.2202 -0.0726
17335TIP3    H273421   6.630   3.838  16.191  0.1063 -0.2603  0.2083
17336TIP3   OH273422   3.804   6.238  13.254  0.3601  0.2342 -0.0004
17336TIP3    H173423   3.894   6.270  13.259  1.5315 -2.7185 -0.0957
17336TIP3    H273424   3.767   6.258  13.339  0.7557  2.2808 -0.2510
17337TIP3   OH273425   5.106   4.225  13.511 -0.1901  0.6375  0.2418
17337TIP3    H173426   5.013   4.212  13.495 -0.0265 -0.5501  0.1649
17337TIP3    H273427   5.147   4.213  13.425 -0.1405  3.3311 -0.1825
17338TIP3   OH273428   0.252   6.252   4.550 -0.2536 -0.1153  0.4667
17338TIP3    H173429   0.347   6.240   4.560 -0.3655 -1.0099  0.5537
17338TIP3    H273430   0.221   6.168   4.514 -1.1782 -0.2698  1.5594
17339TIP3   OH273431   5.447   2.187   3.135 -0.5262 -0.6837 -0.0004
17339TIP3    H173432   5.417   2.273   3.165 -0.5487 -0.5830 -0.3131
17339TIP3    H273433   5.378   2.157   3.076  0.1001 -0.3396 -0.9290
17340TIP3   OH273434   1.801   3.572   3.241  0.1313  0.6147  0.4284
17340TIP3    H173435   1.744   3.587   3.317 -0.1145  0.0230  0.3630
17340TIP3    H273436   1.772   3.637   3.177 -3.0071 -1.9584 -1.0078
17341TIP3   OH273437   5.849   4.024   0.432 -0.6097 -0.2110 -0.3795
17341TIP3    H173438   5.821   4.115   0.440 -2.8563 -0.8506 -0.4604
17341TIP3    H273439   5.835   4.002   0.340  1.0216 -0.3539 -0.6365
17342TIP3   OH273440   5.115   1.410  13.982  0.2896  0.7847 -0.2059
17342TIP3    H173441   5.040   1.469  13.976 -1.3084 -1.1173  0.1687
17342TIP3    H273442   5.123   1.372  13.895 -0.1960 -0.1769  0.1574
17343TIP3   OH273443   0.481   1.592  15.542 -0.0952 -0.0572 -0.2161
17343TIP3    H173444   0.397   1.604  15.586 -0.3546 -1.8758 -0.1500
17343TIP3    H273445   0.469   1.635  15.457 -1.5385 -1.2912 -0.6901
17344TIP3   OH273446   0.837   4.475  12.716 -0.7687 -0.4047 -0.1650
17344TIP3    H173447   0.892   4.397  12.715 -1.5244 -1.0016  1.5068
17344TIP3    H273448   0.760   4.450  12.766 -0.6123  1.6595  1.2457
17345TIP3   OH273449   5.731   0.175   1.630 -0.2772 -0.2281  0.3849
17345TIP3    H173450   5.711   0.088   1.595 -0.2974 -0.3330  0.6563
17345TIP3    H273451   5.709   0.169   1.723  0.0290 -0.0311  0.4718
17346TIP3   OH273452   2.460   4.675   2.774 -0.1813 -0.2229 -0.0299
17346TIP3    H173453   2.424   4.675   2.863 -0.4086 -2.4945 -0.0560
17346TIP3    H273454   2.444   4.763   2.742 -2.0774  0.0333  1.4143
17347TIP3   OH273455   4.722   5.924  12.179  0.4353 -0.6045 -0.1053
17347TIP3    H173456   4.753   5.836  12.200  2.3247  0.0315 -0.0095
17347TIP3    H273457   4.779   5.954  12.108  1.4937  1.4104  1.4608
17348TIP3   OH273458   0.240   2.116   3.759  0.4386 -0.1694  0.3425
17348TIP3    H173459   0.184   2.162   3.696 -0.4452 -1.3070  0.2702
17348TIP3    H273460   0.196   2.033   3.774  1.4232 -0.5349  1.3338
17349TIP3   OH273461   3.831   1.664  12.781 -0.3336  0.0088 -0.1467
17349TIP3    H173462   3.834   1.594  12.715 -1.4147  0.0565 -0.2639
17349TIP3    H273463   3.752   1.713  12.760 -1.2206 -0.5122  1.7242
17350TIP3   OH273464   0.974   1.794  12.970  0.0470 -0.0364 -0.2121
17350TIP3    H173465   1.068   1.785  12.956  0.2394  0.7726  0.4973
17350TIP3    H273466   0.958   1.888  12.961 -0.6740 -0.1519 -0.1750
17351TIP3   OH273467   5.297   1.496  13.133  0.4611  0.6350  1.3411
17351TIP3    H173468   5.330   1.570  13.082  3.2963 -2.8247 -2.5549
17351TIP3    H273469   5.361   1.484  13.203  2.0104 -0.0357 -0.1127
17352TIP3   OH273470   0.329   0.020  15.577 -0.5660  0.5095 -0.2115
17352TIP3    H173471   0.285   0.094  15.534  1.5722  1.1893 -1.3965
17352TIP3    H273472   0.329  -0.049  15.512  0.3198  0.6156 -0.3386
17353TIP3   OH273473   5.349   0.838   2.752  0.1849 -0.0849  0.0740
17353TIP3    H173474   5.380   0.850   2.842  0.0702  2.4292 -0.1562
17353TIP3    H273475   5.256   0.862   2.756 -0.1708 -1.2881 -0.4910
17354TIP3   OH273476   2.125   6.388  10.751 -0.0560 -0.4307 -0.2243
17354TIP3    H173477   2.104   6.410  10.841  1.0551  1.4554 -0.3757
17354TIP3    H273478   2.220   6.401  10.744 -0.0721 -0.8001 -1.5885
17355TIP3   OH273479   1.371   3.966  12.476 -0.4323  0.2454  0.0504
17355TIP3    H173480   1.367   4.032  12.545  0.4537  0.3257  0.0285
17355TIP3    H273481   1.463   3.962  12.451 -0.4773 -0.9451 -0.0019
17356TIP3   OH273482   3.566   3.661  15.311 -0.1792  0.1100  0.3733
17356TIP3    H173483   3.630   3.607  15.264 -0.4987 -0.7241  0.8656
17356TIP3    H273484   3.503   3.688  15.245  0.1468  0.1252  0.0647
17357TIP3   OH273485   1.173   2.796  16.585 -0.0977 -0.5360  0.0004
17357TIP3    H173486   1.161   2.872  16.529 -1.0819 -1.6773 -1.4072
17357TIP3    H273487   1.145   2.722  16.532  0.2117 -1.8287  1.5511
17358TIP3   OH273488   1.346   2.770   3.466 -0.3939 -0.8988 -0.4675
17358TIP3    H173489   1.393   2.844   3.504  0.1563 -1.2940 -0.3754
17358TIP3    H273490   1.370   2.771   3.373  1.3207 -2.2263 -0.0768
17359TIP3   OH273491   2.208   0.698   4.633  0.6436 -0.0154  0.4036
17359TIP3    H173492   2.221   0.648   4.552  1.9688  1.3201 -0.2491
17359TIP3    H273493   2.154   0.641   4.688 -0.0479 -1.0750 -1.3000
17360TIP3   OH273494   4.870   4.951   3.336 -0.3702  0.0381  0.0263
17360TIP3    H173495   4.932   4.930   3.266 -0.4486  2.0562 -0.6951
17360TIP3    H273496   4.799   4.889   3.324  0.4687 -0.8600 -0.5056
17361TIP3   OH273497   1.601   3.242  11.556  0.2091  0.7781  0.3284
17361TIP3    H173498   1.650   3.181  11.609  1.5942  1.3602 -0.2332
17361TIP3    H273499   1.536   3.280  11.616 -1.2455 -1.7469  0.5051
17362TIP3   OH273500   4.453   1.878  12.609  0.3058 -0.3039 -0.2835
17362TIP3    H173501   4.506   1.871  12.688  0.1645  1.4843  0.0127
17362TIP3    H273502   4.515   1.861  12.537  1.0820  0.8122  0.0990
17363TIP3   OH273503   4.274   5.693  12.145 -0.2060  0.2711  0.1052
17363TIP3    H173504   4.339   5.625  12.158 -0.0590  0.4666  0.4262
17363TIP3    H273505   4.235   5.705  12.232  0.8421  1.6653  0.4183
17364TIP3   OH273506   6.142   3.571   5.368  0.1099  0.2322  0.1225
17364TIP3    H173507   6.103   3.524   5.441  0.8311 -1.4726 -0.5294
17364TIP3    H273508   6.219   3.519   5.344  1.5946  2.3215  0.0070
17365TIP3   OH273509   5.235   1.153  15.366  0.1348  0.2382  0.0763
17365TIP3    H173510   5.264   1.196  15.285  1.0037  1.9733  1.2635
17365TIP3    H273511   5.309   1.098  15.392  0.3181  0.5990  0.3193
17366TIP3   OH273512   2.410   4.083  15.423  0.0508 -0.0145 -0.3958
17366TIP3    H173513   2.367   4.154  15.470  1.8605 -0.8167  2.7303
17366TIP3    H273514   2.345   4.013  15.420 -0.4710  0.4510 -0.0625
17367TIP3   OH273515   6.494   5.721  13.248  0.2672  0.1506 -0.5613
17367TIP3    H173516   6.507   5.790  13.314 -3.2395 -0.2818  0.7907
17367TIP3    H273517   6.532   5.757  13.168  0.1517  2.9057  0.5190
17368TIP3   OH273518   4.585   0.627  16.155 -0.1655 -0.0835  0.1960
17368TIP3    H173519   4.494   0.618  16.128 -0.7231  0.3100  1.8704
17368TIP3    H273520   4.583   0.624  16.250  1.6766 -0.9531  0.2609
17369TIP3   OH273521   5.853   5.057   4.746  0.7737 -0.2821 -0.0149
17369TIP3    H173522   5.860   4.965   4.723 -1.1674 -1.5169  3.5363
17369TIP3    H273523   5.938   5.078   4.786  1.3974 -0.3113 -1.2709
17370TIP3   OH273524   2.702   2.668  13.511 -0.3543 -0.5585 -0.4277
17370TIP3    H173525   2.741   2.582  13.493 -1.1026 -0.9948  0.0197
17370TIP3    H273526   2.734   2.723  13.440 -0.6664 -1.4562 -1.2905
17371TIP3   OH273527   2.439   4.304   5.690  0.1487  0.2361 -0.5405
17371TIP3    H173528   2.386   4.270   5.762  0.2680 -0.2859 -0.6996
17371TIP3    H273529   2.495   4.370   5.730  0.9103 -0.7318  0.0389
17372TIP3   OH273530   6.072   6.054  12.590 -0.3698 -0.0578 -0.3560
17372TIP3    H173531   6.159   6.027  12.558 -0.0561  1.3781 -0.7804
17372TIP3    H273532   6.056   6.137  12.546 -1.2009  0.5526  1.0770
17373TIP3   OH273533   6.330   1.118  16.108  0.0000 -0.4174  0.3546
17373TIP3    H173534   6.298   1.049  16.166 -0.9837  1.7347  2.5553
17373TIP3    H273535   6.346   1.192  16.166 -0.4881  1.7247 -2.0638
17374TIP3   OH273536   0.477   3.538   2.524  0.3574 -0.1591  1.1400
17374TIP3    H173537   0.537   3.494   2.463 -0.8652  0.9561 -0.9976
17374TIP3    H273538   0.464   3.475   2.595  3.3767 -0.7512  1.3017
17375TIP3   OH273539   4.357   3.692  11.455  0.7520  0.0302 -0.3449
17375TIP3    H173540   4.277   3.667  11.411  0.9591 -1.3940  0.0289
17375TIP3    H273541   4.416   3.720  11.385 -0.2276  1.6130 -0.5670
17376TIP3   OH273542   1.418   0.008  15.940 -0.1403  0.1519 -0.7955
17376TIP3    H173543   1.390  -0.083  15.945 -3.4616  1.0853 -0.3592
17376TIP3    H273544   1.497   0.012  15.995 -0.0479 -2.3594 -0.6386
17377TIP3   OH273545   0.498   5.297   4.165  0.2603  0.0404  0.4474
17377TIP3    H173546   0.461   5.330   4.083  0.1168 -1.0416  0.0679
17377TIP3    H273547   0.583   5.341   4.172  1.3836 -1.6039 -1.5308
17378TIP3   OH273548   6.587   0.689  10.949  0.5186  0.2358 -0.7533
17378TIP3    H173549   6.640   0.641  10.886  0.3395  0.0545 -0.7643
17378TIP3    H273550   6.617   0.657  11.034  2.3684  2.0920 -0.6292
17379TIP3   OH273551   0.082   2.352  12.226 -0.3582  0.3316 -0.1585
17379TIP3    H173552   0.098   2.260  12.248  0.3233  0.3969 -0.3751
17379TIP3    H273553  -0.006   2.369  12.259 -0.8192 -0.6343 -0.8407
17380TIP3   OH273554   4.517   6.212   4.872 -0.1960 -0.6855 -0.2281
17380TIP3    H173555   4.503   6.303   4.847 -1.5123 -1.0027 -0.6812
17380TIP3    H273556   4.431   6.172   4.869 -0.0661 -1.3605  2.3977
17381TIP3   OH273557   2.956   3.471  13.221 -0.0331  0.0847  0.1238
17381TIP3    H173558   2.970   3.387  13.265 -0.7062 -0.2169 -0.2240
17381TIP3    H273559   2.945   3.534  13.293  0.5132 -0.1095  0.3835
17382TIP3   OH273560   1.073   3.295  15.808 -0.1366 -0.6256  0.1694
17382TIP3    H173561   1.124   3.248  15.742 -1.1266  0.2742 -1.3046
17382TIP3    H273562   1.002   3.336  15.758 -1.5252 -0.7503  1.9445
17383TIP3   OH273563   3.845   6.345   2.431  0.5070  0.4044 -0.1059
17383TIP3    H173564   3.848   6.303   2.517 -1.0275 -0.0449 -0.2418
17383TIP3    H273565   3.936   6.365   2.411  1.2040 -1.8943  0.4515
17384TIP3   OH273566   1.609   5.957   4.245 -0.1289  0.4084 -0.1039
17384TIP3    H173567   1.622   5.916   4.330  1.0391 -2.1133 -1.3881
17384TIP3    H273568   1.565   6.039   4.264 -1.9218 -1.0712  2.7300
17385TIP3   OH273569   1.868   3.675  16.585 -0.0833 -0.1154 -0.1796
17385TIP3    H173570   1.799   3.687  16.520 -0.6700 -1.9613  0.0697
17385TIP3    H273571   1.826   3.695  16.669  0.6638  2.2293 -0.2948
17386TIP3   OH273572   1.238   6.122  14.918 -0.2369 -0.1679  0.1298
17386TIP3    H173573   1.293   6.176  14.861  1.1115 -0.1704  1.3760
17386TIP3    H273574   1.271   6.138  15.007 -0.2851 -2.4261  0.6374
17387TIP3   OH273575   2.071   4.861  17.138  0.1651  0.0113  0.4470
17387TIP3    H173576   2.116   4.937  17.174 -1.1489  0.6564  0.7832
17387TIP3    H273577   1.989   4.856  17.187 -1.6505  0.8209 -2.2978
17388TIP3   OH273578   3.545   2.115   3.926 -0.5204 -0.1023 -0.2004
17388TIP3    H173579   3.604   2.094   3.998  0.2356 -0.1352 -0.8142
17388TIP3    H273580   3.466   2.150   3.969  0.2477  0.6901  0.6112
17389TIP3   OH273581   4.630   4.517  11.961  0.1510  0.2162 -0.1783
17389TIP3    H173582   4.638   4.501  11.867 -2.0141 -0.4366 -0.2965
17389TIP3    H273583   4.537   4.534  11.975  0.7211  2.3564  1.5637
17390TIP3   OH273584   5.320   0.052  13.878  0.2621 -0.1433 -0.2406
17390TIP3    H173585   5.394   0.108  13.854 -0.0028  0.2224 -0.2062
17390TIP3    H273586   5.353  -0.037  13.865  0.9243 -0.0041  0.4024
17391TIP3   OH273587   2.698   0.118  14.989  0.1038 -0.2083  0.2826
17391TIP3    H173588   2.775   0.176  14.986 -0.2936  0.4037  1.4376
17391TIP3    H273589   2.698   0.083  15.078  0.0268 -1.5903 -0.2439
17392TIP3   OH273590   2.426   4.350   2.686 -0.3337 -0.3602  0.1026
17392TIP3    H173591   2.515   4.375   2.709  0.4953 -0.3623 -2.7483
17392TIP3    H273592   2.419   4.258   2.712  0.3956 -0.2942  0.5541
17393TIP3   OH273593   1.140   5.096   3.562 -0.1887  0.4812 -0.4586
17393TIP3    H173594   1.174   5.183   3.583 -0.9546  0.9680 -1.1894
17393TIP3    H273595   1.070   5.081   3.626  0.4159  0.0885  0.1239
17394TIP3   OH273596   3.616   0.763  16.894  0.2088  0.3159 -0.0752
17394TIP3    H173597   3.693   0.813  16.867 -0.9980  1.9316 -0.6472
17394TIP3    H273598   3.558   0.827  16.933 -1.1718 -0.7370 -0.3150
17395TIP3   OH273599   3.650   2.865  11.953 -1.0599  0.0392 -0.1283
17395TIP3    H173600   3.710   2.870  11.879  0.4587 -0.7617  0.9999
17395TIP3    H273601   3.686   2.925  12.018 -1.0074 -1.0258  0.8578
17396TIP3   OH273602   0.270   4.557   1.396  0.0342 -0.1167 -0.3989
17396TIP3    H173603   0.365   4.545   1.394  0.2785  1.7398 -1.1539
17396TIP3    H273604   0.246   4.568   1.304 -0.2615  3.7519  0.0064
17397TIP3   OH273605   4.066   0.102  11.803 -0.0633  0.1154  0.0813
17397TIP3    H173606   4.020   0.179  11.772  0.2131 -0.0461 -0.7598
17397TIP3    H273607   4.008   0.029  11.783 -0.1198  0.0566  0.4487
17398TIP3   OH273608   6.762   5.586  16.726 -0.3731  0.1422 -0.1881
17398TIP3    H173609   6.783   5.639  16.649 -0.5461  0.5195  0.0226
17398TIP3    H273610   6.666   5.591  16.733 -0.5720 -1.5300 -1.1233
17399TIP3   OH273611   1.832   4.722  16.230 -0.7333  0.0261  0.1637
17399TIP3    H173612   1.782   4.651  16.190  0.0075 -0.9083  0.8549
17399TIP3    H273613   1.892   4.679  16.290  1.5330  1.0091 -1.2533
17400TIP3   OH273614   2.837   3.393   0.169 -0.1763  0.2495  0.2267
17400TIP3    H173615   2.903   3.458   0.148 -0.1316  0.3554  0.6724
17400TIP3    H273616   2.754   3.442   0.170 -0.0064  0.5716  1.7277
17401TIP3   OH273617   0.855   3.569  15.451 -0.8014 -0.7043  0.1758
17401TIP3    H173618   0.790   3.606  15.392 -1.3689 -0.0936  1.1534
17401TIP3    H273619   0.865   3.479  15.422 -2.1767 -0.8458  0.0522
17402TIP3   OH273620   3.527   1.250  11.603 -0.2787 -0.2569  0.1351
17402TIP3    H173621   3.462   1.263  11.535 -0.4684 -0.1812  0.3322
17402TIP3    H273622   3.566   1.336  11.616 -0.4047 -0.2223  0.2871
17403TIP3   OH273623   4.960   3.969  14.054  0.2224  0.2136 -0.3300
17403TIP3    H173624   4.953   3.881  14.020 -0.1900  0.0805  0.0844
17403TIP3    H273625   5.054   3.986  14.060  0.5338 -1.7003  3.2808
17404TIP3   OH273626   1.732   3.498  11.642  0.4487  0.3517  0.0739
17404TIP3    H173627   1.791   3.434  11.602 -1.2813 -2.2990  1.3865
17404TIP3    H273628   1.675   3.527  11.570  2.4199  1.9529 -0.9218
17405TIP3   OH273629   5.954   6.066   1.516 -0.2272  0.4565  0.0652
17405TIP3    H173630   6.042   6.038   1.489 -0.7184 -2.2460  0.9011
17405TIP3    H273631   5.968   6.146   1.565  1.9951 -0.6985  1.4936
17406TIP3   OH273632   2.925   1.923   3.808  0.2430 -0.5039  0.0659
17406TIP3    H173633   2.910   1.924   3.713 -0.6741  0.7327  0.1879
17406TIP3    H273634   2.981   1.847   3.823  0.9144 -0.3705 -1.5366
17407TIP3   OH273635   3.598   3.267   2.015 -0.0145 -0.3309 -0.3439
17407TIP3    H173636   3.522   3.236   1.967  0.4170  0.5239 -1.6333
17407TIP3    H273637   3.661   3.195   2.010 -0.0717 -0.3470 -0.8317
17408TIP3   OH273638   5.858   0.475  12.344 -0.4469  0.0636 -0.7157
17408TIP3    H173639   5.898   0.545  12.293  1.0786 -1.1478 -1.2765
17408TIP3    H273640   5.806   0.426  12.280 -0.7224  0.1131 -0.5315
17409TIP3   OH273641   4.269   4.536   3.044  0.1653  0.2636  0.2467
17409TIP3    H173642   4.284   4.442   3.034 -2.6150 -0.0864 -2.0055
17409TIP3    H273643   4.230   4.545   3.131 -0.6466 -0.8964  0.0309
17410TIP3   OH273644   3.023   1.737   5.155 -0.1438  0.1103 -0.0577
17410TIP3    H173645   3.080   1.660   5.155  0.8012  0.7857 -0.6802
17410TIP3    H273646   3.064   1.797   5.217 -0.4977  0.3821 -0.0849
17411TIP3   OH273647   4.559   4.192   1.659 -0.2606  0.0898 -0.3826
17411TIP3    H173648   4.511   4.132   1.602 -1.2986  0.9636 -0.4632
17411TIP3    H273649   4.648   4.193   1.624 -0.1598 -1.5938 -0.2089
17412TIP3   OH273650   0.522   6.499  15.474 -0.1773 -0.2267  0.4369
17412TIP3    H173651   0.454   6.434  15.457 -0.1907 -0.3524  0.9738
17412TIP3    H273652   0.523   6.510  15.569 -0.5173  0.9255  0.3186
17413TIP3   OH273653   3.771   1.027  15.545  0.3785 -0.0151 -0.1599
17413TIP3    H173654   3.760   0.970  15.621 -0.6619  0.9096  0.4182
17413TIP3    H273655   3.763   0.969  15.469  1.3627 -0.9438  0.4206
17414TIP3   OH273656   5.408   4.318   3.336  0.6418  0.1865 -0.1379
17414TIP3    H173657   5.395   4.380   3.265  0.2398  1.1627  0.7597
17414TIP3    H273658   5.489   4.347   3.379  1.8258 -1.4001 -1.1712
17415TIP3   OH273659   1.615   3.616  13.898  0.0216 -0.2648  0.1386
17415TIP3    H173660   1.530   3.580  13.874 -0.0420  0.5010 -0.8176
17415TIP3    H273661   1.666   3.615  13.817  1.3030 -1.6789  0.9006
17416TIP3   OH273662   2.817   5.347   0.892 -0.5384  0.2729  0.0443
17416TIP3    H173663   2.737   5.381   0.932 -0.0517 -0.1988  1.4990
17416TIP3    H273664   2.888   5.375   0.950  0.3234  0.3141 -0.9812
17417TIP3   OH273665   6.239   1.721  12.233 -0.7111 -0.6509 -0.1299
17417TIP3    H173666   6.227   1.805  12.276 -1.1897 -1.4843  1.4430
17417TIP3    H273667   6.299   1.740  12.161  0.8855  0.6946  1.4226
17418TIP3   OH273668   0.954   5.358  17.047 -0.0555  0.4882  0.7911
17418TIP3    H173669   0.919   5.356  16.958 -0.6732 -0.7567  1.0416
17418TIP3    H273670   1.037   5.312  17.041 -0.0717  0.4520  0.8508
17419TIP3   OH273671   2.882   1.883  10.914  0.0434  0.1650 -0.0095
17419TIP3    H173672   2.857   1.889  10.821 -2.6223 -1.8225  0.4646
17419TIP3    H273673   2.939   1.959  10.928 -0.8363  1.4958 -2.8420
17420TIP3   OH273674   5.012   0.182   5.332  0.0226  0.3814  0.2769
17420TIP3    H173675   5.046   0.099   5.300 -1.3676 -0.5557  1.1322
17420TIP3    H273676   4.964   0.160   5.411  0.1095  2.0955  0.8524
17421TIP3   OH273677   0.874   0.660  13.048  0.2568 -0.0088  0.4092
17421TIP3    H173678   0.919   0.585  13.010 -1.5268 -1.7708  1.5837
17421TIP3    H273679   0.818   0.692  12.977 -0.4195 -1.0567  0.4426
17422TIP3   OH273680   0.980   0.818  16.418  0.0075 -0.3866 -0.2213
17422TIP3    H173681   0.885   0.805  16.428  0.4150 -2.1333  1.9972
17422TIP3    H273682   1.013   0.732  16.394  1.2165 -0.2168  0.7582
17423TIP3   OH273683   4.162   6.098  11.429  0.3032  0.1057  0.0681
17423TIP3    H173684   4.084   6.146  11.402  0.6370  1.3964  1.3013
17423TIP3    H273685   4.217   6.163  11.472  1.3784 -1.1072  0.5941
17424TIP3   OH273686   6.224   2.409  11.027  0.0583  0.7133  0.4736
17424TIP3    H173687   6.285   2.375  11.092  0.4799  0.6288  0.0384
17424TIP3    H273688   6.169   2.471  11.075  1.1714  1.5877  0.6567
17425TIP3   OH273689   0.311   2.589  11.702  0.1297 -0.1966  0.1942
17425TIP3    H173690   0.369   2.514  11.695  1.3766  0.7968 -0.5022
17425TIP3    H273691   0.242   2.572  11.637  0.8469 -0.3862 -0.5423
17426TIP3   OH273692   3.762   0.441  14.867 -0.4589 -0.1250  0.3914
17426TIP3    H173693   3.740   0.366  14.922 -0.7447 -0.2469  0.1141
17426TIP3    H273694   3.772   0.514  14.928  1.4794 -0.7265  0.8588
17427TIP3   OH273695   5.654   2.104  12.458 -0.5711  0.1445  0.3513
17427TIP3    H173696   5.683   2.017  12.484 -0.4060  0.1448  0.1706
17427TIP3    H273697   5.585   2.126  12.521 -0.8214 -0.2398  0.2166
17428TIP3   OH273698   0.249   0.540   0.921 -0.1877 -0.3140 -0.5152
17428TIP3    H173699   0.166   0.581   0.899 -0.3984 -1.0513 -1.1343
17428TIP3    H273700   0.285   0.512   0.837  1.3024  1.1159 -0.4042
17429TIP3   OH273701   3.635   4.458  16.275  0.0933 -0.4135  0.3899
17429TIP3    H173702   3.641   4.363  16.286  0.3619 -0.2526  1.9406
17429TIP3    H273703   3.541   4.477  16.277  0.0814 -0.5306  1.4548
17430TIP3   OH273704   3.593   0.736   0.983  0.2236  0.0441 -0.3965
17430TIP3    H173705   3.609   0.819   0.938  0.6445 -1.1429 -2.5715
17430TIP3    H273706   3.533   0.688   0.926  1.3235 -1.8215 -0.0786
17431TIP3   OH273707   1.886   6.618   5.125 -0.0584  0.9131 -0.0231
17431TIP3    H173708   1.925   6.645   5.208  0.9786  0.6233 -0.3900
17431TIP3    H273709   1.960   6.620   5.063 -0.5352 -0.1384 -0.6447
17432TIP3   OH273710   2.076   2.287  15.884  0.3289  0.5340  0.1941
17432TIP3    H173711   2.022   2.243  15.820  2.1314 -1.0970 -0.2754
17432TIP3    H273712   2.113   2.362  15.837  1.9368 -0.8534 -0.8944
17433TIP3   OH273713   3.126   2.803   4.306  0.2070  0.5488 -0.2447
17433TIP3    H173714   3.078   2.875   4.347 -1.7444  0.1368 -1.6536
17433TIP3    H273715   3.125   2.823   4.213 -1.2842 -1.7310 -0.8120
17434TIP3   OH273716   0.888   4.231   2.567 -0.3135  0.1766  0.2848
17434TIP3    H173717   0.950   4.216   2.496 -1.2895 -1.1929 -0.3263
17434TIP3    H273718   0.912   4.317   2.602  1.5429 -0.0662 -0.2780
17435TIP3   OH273719   0.045   6.265  16.402 -0.2611 -0.5206  0.0571
17435TIP3    H173720   0.027   6.359  16.411 -1.0812 -0.8578  2.5644
17435TIP3    H273721   0.138   6.261  16.381  0.1727  0.8269  1.5350
17436TIP3   OH273722   4.394   2.525  11.690  0.3592 -0.1195  0.0574
17436TIP3    H173723   4.468   2.525  11.629  0.5237 -0.5175  0.2517
17436TIP3    H273724   4.417   2.590  11.756  0.1790  0.3160 -0.3029
17437TIP3   OH273725   2.713   2.798  13.264  0.0990  0.0354 -0.0862
17437TIP3    H173726   2.768   2.739  13.212 -0.9211  0.1415 -1.3320
17437TIP3    H273727   2.635   2.746  13.285 -1.0157  1.0087 -1.5731
17438TIP3   OH273728   2.434   5.695   1.179  0.0892  0.3167 -0.1151
17438TIP3    H173729   2.460   5.717   1.090  0.1125 -2.1330 -0.7904
17438TIP3    H273730   2.364   5.757   1.200 -1.2535 -0.2414 -2.5948
17439TIP3   OH273731   2.873   3.531  15.736 -0.3426  0.2362  0.3077
17439TIP3    H173732   2.934   3.599  15.709  1.4039 -1.2616  0.3263
17439TIP3    H273733   2.832   3.501  15.655 -1.3469  1.4580  0.3299
17440TIP3   OH273734   1.954   3.124   2.933 -0.4986  0.6321  0.4976
17440TIP3    H173735   2.005   3.119   2.852 -0.8728  0.8840  0.2448
17440TIP3    H273736   1.895   3.198   2.920 -0.9677  0.3111  0.7634
17441TIP3   OH273737   6.058   0.536   2.034 -0.1671 -0.7974  0.3099
17441TIP3    H173738   6.062   0.617   1.982 -2.0899  0.9211  2.6277
17441TIP3    H273739   6.150   0.513   2.048  0.4887  1.6999  0.5621
17442TIP3   OH273740   3.867   3.438   5.045 -0.4826 -0.0675 -0.5849
17442TIP3    H173741   3.826   3.459   5.129 -1.1193  1.0228 -1.1433
17442TIP3    H273742   3.825   3.357   5.018 -2.6162  1.1733 -1.2882
17443TIP3   OH273743   5.531   3.194   0.098  0.6887 -0.1841 -0.0502
17443TIP3    H173744   5.464   3.195   0.166  1.2573  0.8796  0.5140
17443TIP3    H273745   5.495   3.135   0.031  0.2963 -1.5698  1.3131
17444TIP3   OH273746   1.159   6.558   0.313 -0.2904 -0.2473  0.4288
17444TIP3    H173747   1.075   6.552   0.269  0.3418  0.2398 -0.8983
17444TIP3    H273748   1.191   6.646   0.293  0.2544 -0.1851  1.4641
17445TIP3   OH273749   4.228   4.923   0.157  0.2631  0.0560  0.9437
17445TIP3    H173750   4.193   4.943   0.244  0.2436  1.0050  0.7378
17445TIP3    H273751   4.150   4.911   0.103  0.2628  0.1700  0.9168
17446TIP3   OH273752   0.566   4.897  11.202 -0.2890 -0.1190 -0.0021
17446TIP3    H173753   0.628   4.828  11.178  0.2881  0.7694 -1.1676
17446TIP3    H273754   0.558   4.951  11.123 -1.2535  0.7551  0.6667
17447TIP3   OH273755   4.686   6.556   2.729  0.6001 -0.5205 -0.6456
17447TIP3    H173756   4.758   6.511   2.772  0.2443  0.2796  0.8497
17447TIP3    H273757   4.720   6.644   2.712  0.5529 -0.6626 -1.5587
17448TIP3   OH273758   3.333   6.688   4.137  0.5202 -0.3668  0.2436
17448TIP3    H173759   3.245   6.714   4.106  0.8635 -0.3968 -0.8157
17448TIP3    H273760   3.360   6.760   4.194  0.0124 -0.1044  0.1621
17449TIP3   OH273761   4.339   0.863   2.366  0.0038 -0.0433 -0.3045
17449TIP3    H173762   4.281   0.873   2.290  0.4195 -0.9552 -0.7681
17449TIP3    H273763   4.360   0.769   2.367 -1.2101 -0.3648  1.8540
17450TIP3   OH273764   3.039   5.581  12.200  0.0398 -0.6308 -0.4185
17450TIP3    H173765   3.037   5.525  12.123  1.2883 -0.9046 -0.2716
17450TIP3    H273766   3.115   5.551  12.250 -2.1599 -2.1822  2.2509
17451TIP3   OH273767   3.099   2.990   4.833 -0.2563  0.5928  0.0100
17451TIP3    H173768   3.004   2.981   4.839 -0.4970  1.7635 -1.5027
17451TIP3    H273769   3.115   3.082   4.849  0.8631  0.0903  2.1886
17452TIP3   OH273770   1.593   2.183  16.653 -0.4806 -0.3033 -0.4101
17452TIP3    H173771   1.503   2.152  16.658 -0.2284 -0.9264  0.4595
17452TIP3    H273772   1.639   2.136  16.722  0.7280 -0.7174 -1.4391
17453TIP3   OH273773   0.572   2.010   2.212 -0.5439 -0.4488  0.2748
17453TIP3    H173774   0.510   1.962   2.157 -0.2931  2.1702 -2.5988
17453TIP3    H273775   0.522   2.087   2.242  0.2525 -0.2697  1.1996
17454TIP3   OH273776   3.557   3.388  14.870 -0.0015  0.2056 -0.4253
17454TIP3    H173777   3.585   3.394  14.778 -1.4565 -2.8320 -1.1899
17454TIP3    H273778   3.578   3.298  14.895  0.4576  0.9951  2.3133
17455TIP3   OH273779   6.456   5.207  12.294  0.4783 -1.0778 -0.2718
17455TIP3    H173780   6.516   5.218  12.368  1.4966 -1.1917 -1.0651
17455TIP3    H273781   6.513   5.191  12.219 -0.5152 -0.3876 -1.1959
17456TIP3   OH273782   5.532   3.686   6.316 -0.2238 -0.2305  0.3828
17456TIP3    H173783   5.470   3.623   6.280  0.4942  0.3152 -1.9621
17456TIP3    H273784   5.496   3.707   6.403 -0.6570 -3.5479  1.1459
17457TIP3   OH273785   2.892   5.306  12.587  0.5561  1.2665 -0.2481
17457TIP3    H173786   2.863   5.369  12.520 -1.3519 -1.4676 -2.2194
17457TIP3    H273787   2.828   5.235  12.582  2.6614 -0.9363  1.7165
17458TIP3   OH273788   4.023   0.724  10.894  0.0087  0.0330  0.5422
17458TIP3    H173789   4.012   0.714  10.800 -1.2144  1.7411  0.4532
17458TIP3    H273790   4.079   0.802  10.903 -4.2093  3.4212  1.1090
17459TIP3   OH273791   4.782   0.278   0.140 -0.0854 -0.2361 -0.5094
17459TIP3    H173792   4.734   0.360   0.145 -1.3259 -0.9987  0.8483
17459TIP3    H273793   4.724   0.217   0.095  0.7463 -0.4354 -1.3466
17460TIP3   OH273794   6.122   4.940   0.339  0.1416  0.5395 -0.0320
17460TIP3    H173795   6.165   4.859   0.309 -0.0675  0.4297 -0.0320
17460TIP3    H273796   6.110   4.927   0.433 -0.6505  0.2247 -0.1761
17461TIP3   OH273797   2.334   5.973  12.103 -0.0794 -0.9175  1.0413
17461TIP3    H173798   2.405   6.032  12.131 -0.1790 -0.9836  1.4407
17461TIP3    H273799   2.279   6.027  12.046 -1.0351 -0.1403  2.6323
17462TIP3   OH273800   5.022   5.399   4.681  0.0208 -0.9383  0.3465
17462TIP3    H173801   5.008   5.319   4.733 -0.8771 -0.9440  0.1166
17462TIP3    H273802   4.935   5.420   4.648  0.6217 -1.0707 -1.3794
17463TIP3   OH273803   5.646   3.081   2.413  0.2666  0.2541  0.2915
17463TIP3    H173804   5.571   3.078   2.472  1.6712 -1.3668  2.1280
17463TIP3    H273805   5.711   3.133   2.460  1.5798 -1.4565  0.4558
17464TIP3   OH273806   6.738   1.731  14.626 -0.7885  0.3726 -0.3495
17464TIP3    H173807   6.721   1.696  14.713  0.2373  0.6321 -0.0280
17464TIP3    H273808   6.773   1.656  14.577  0.8090  0.7467  0.1549
17465TIP3   OH273809   3.197   5.908  12.080  0.1866  0.0585 -0.6089
17465TIP3    H173810   3.211   6.003  12.083 -0.3404  0.1899 -1.8372
17465TIP3    H273811   3.108   5.896  12.113 -0.1974  0.1190 -1.5959
17466TIP3   OH273812   5.712   4.200   2.386  0.7359  0.3430 -0.1278
17466TIP3    H173813   5.710   4.143   2.309  1.5834  0.9980 -0.6658
17466TIP3    H273814   5.698   4.142   2.460 -1.2220 -0.1579 -0.8254
17467TIP3   OH273815   1.168   2.881   1.003  1.0865 -0.0462  0.0369
17467TIP3    H173816   1.202   2.961   1.043 -0.2360  0.5971 -0.0614
17467TIP3    H273817   1.090   2.909   0.955  1.9060 -1.0173 -1.9613
17468TIP3   OH273818   0.893   1.970  15.740  0.2089  0.0362  0.1079
17468TIP3    H173819   0.905   2.060  15.709  0.0785 -0.1386 -0.4450
17468TIP3    H273820   0.798   1.960  15.749  0.2271 -0.0305  0.2296
17469TIP3   OH273821   6.440   3.746   5.276  0.0835 -0.5972  0.2270
17469TIP3    H173822   6.463   3.838   5.264 -0.2723 -0.3156  1.5817
17469TIP3    H273823   6.345   3.743   5.260 -0.6351 -0.0007  3.6900
17470TIP3   OH273824   3.011   5.315   1.110  0.2234  0.1308  0.0275
17470TIP3    H173825   3.074   5.341   1.177  0.8738 -1.2300 -0.0124
17470TIP3    H273826   3.007   5.219   1.116 -0.2957  0.0353 -1.3372
17471TIP3   OH273827   2.104   0.378  12.547  0.3008 -0.5203  0.2044
17471TIP3    H173828   2.169   0.444  12.571 -0.1251 -0.3567  0.9088
17471TIP3    H273829   2.144   0.294  12.570  0.6207 -0.4810 -0.1928
17472TIP3   OH273830   1.296   6.538  13.668  0.4167  0.3323 -0.1161
17472TIP3    H173831   1.308   6.557  13.761  2.3513 -0.1872 -0.2041
17472TIP3    H273832   1.294   6.442  13.664  1.9594  0.2998 -0.7332
17473TIP3   OH273833   0.757   4.429   3.519  0.5352 -0.5120  0.1186
17473TIP3    H173834   0.806   4.461   3.443 -0.3793 -2.1877 -1.2434
17473TIP3    H273835   0.810   4.357   3.552  0.8534  0.1169  1.0075
17474TIP3   OH273836   0.636   2.422   1.684  0.0321  0.4777 -0.2424
17474TIP3    H173837   0.630   2.451   1.775  1.9397  1.5000 -0.3740
17474TIP3    H273838   0.714   2.366   1.682 -0.7749 -0.6551 -0.9971
17475TIP3   OH273839   0.499   3.185   3.978  0.0501  0.4730 -0.1014
17475TIP3    H173840   0.560   3.257   3.992  0.5956  0.2164 -1.0676
17475TIP3    H273841   0.545   3.107   4.009 -0.1130  0.3863 -0.0723
17476TIP3   OH273842   6.586   0.408   0.005  0.0363  0.4271 -0.4081
17476TIP3    H173843   6.574   0.329  -0.048  2.6267 -1.0690  1.0220
17476TIP3    H273844   6.675   0.436  -0.015 -0.6550  2.7620 -0.4803
17477TIP3   OH273845   4.255   4.908   1.624  0.3735 -0.2002  0.6681
17477TIP3    H173846   4.268   4.814   1.637  0.2610 -0.3627 -0.2986
17477TIP3    H273847   4.163   4.923   1.646  0.1949 -0.4623  0.1384
17478TIP3   OH273848   4.326   4.560  12.792 -0.0680  0.0673 -0.0356
17478TIP3    H173849   4.266   4.561  12.718 -0.8450 -0.5236  0.5638
17478TIP3    H273850   4.300   4.483  12.843  0.7330  0.2131  0.6099
17479TIP3   OH273851   3.555   5.948  12.846 -0.2223  0.0478  0.0417
17479TIP3    H173852   3.541   5.896  12.926 -0.4203 -0.1321 -0.1112
17479TIP3    H273853   3.479   5.930  12.792 -0.4319  0.7249  0.1037
17480TIP3   OH273854   4.135   0.812  17.134  0.1580 -0.0241 -0.1164
17480TIP3    H173855   4.211   0.755  17.150 -0.4445 -1.0203 -0.7585
17480TIP3    H273856   4.104   0.788  17.047  0.1995  1.6658 -0.6455
17481TIP3   OH273857   5.674   1.968  11.116 -0.2708  0.2020 -0.0387
17481TIP3    H173858   5.622   1.902  11.068 -1.2157 -0.5432  1.8967
17481TIP3    H273859   5.644   1.961  11.206 -0.9209  3.8083  0.1793
17482TIP3   OH273860   3.146   1.195   0.848  0.2528 -0.0754  0.3243
17482TIP3    H173861   3.113   1.212   0.937 -1.0426  1.0204 -0.3287
17482TIP3    H273862   3.149   1.281   0.807  0.3710 -0.6338 -0.8622
17483TIP3   OH273863   1.311   5.740   2.656  0.1437  0.5579  0.4753
17483TIP3    H173864   1.276   5.781   2.735 -1.1898  0.7344 -0.1633
17483TIP3    H273865   1.243   5.755   2.590  1.0127 -0.0007 -0.5750
17484TIP3   OH273866   5.394   1.419   2.430  0.1628  0.5589 -0.0360
17484TIP3    H173867   5.480   1.440   2.465  0.0164  0.9388  0.1065
17484TIP3    H273868   5.334   1.433   2.503  0.0235 -0.0874 -0.0231
17485TIP3   OH273869   6.010   4.810   5.736  0.6702 -0.0803  0.3539
17485TIP3    H173870   5.921   4.778   5.724  0.7923 -0.1910 -0.2758
17485TIP3    H273871   6.067   4.736   5.714  0.9417  0.4184 -0.7079
17486TIP3   OH273872   5.766   4.715   4.669  0.2417 -0.1241  0.3876
17486TIP3    H173873   5.814   4.733   4.749 -0.0899 -0.9974  0.7950
17486TIP3    H273874   5.812   4.640   4.630  1.1721  1.0663 -0.9023
17487TIP3   OH273875   2.345   4.082   2.776  0.6238  0.0722  0.0465
17487TIP3    H173876   2.266   4.085   2.723 -0.2214 -1.7527  1.1069
17487TIP3    H273877   2.341   3.998   2.821  1.9164  1.0087  2.0657
17488TIP3   OH273878   2.806   4.751  14.953  0.2565  0.4255  0.1493
17488TIP3    H173879   2.800   4.785  15.043 -1.2518 -0.4588  0.4087
17488TIP3    H273880   2.823   4.658  14.964  0.9954  0.4747 -0.5173
17489TIP3   OH273881   5.191   6.280  17.002 -0.6537  0.8221  0.1227
17489TIP3    H173882   5.242   6.238  16.933  2.1737  1.3837  1.7308
17489TIP3    H273883   5.172   6.209  17.064  0.3412  1.0376  0.7003
17490TIP3   OH273884   0.311   2.790   5.574 -0.3449  0.3592 -0.5985
17490TIP3    H173885   0.375   2.800   5.644 -0.1052 -2.8491 -0.2303
17490TIP3    H273886   0.243   2.735   5.612 -1.5995  0.8243 -2.0844
17491TIP3   OH273887   2.268   5.583   5.778  0.1127 -0.0477  0.0331
17491TIP3    H173888   2.339   5.523   5.800 -0.2367 -0.4293  0.1486
17491TIP3    H273889   2.196   5.556   5.836 -0.1217  0.3295 -0.0808
17492TIP3   OH273890   2.361   3.723  15.798 -0.4254 -0.5454  0.3327
17492TIP3    H173891   2.282   3.765  15.833 -1.1236  0.9772 -2.7190
17492TIP3    H273892   2.335   3.632  15.785 -1.9388  0.0214 -1.0537
17493TIP3   OH273893   2.153   1.080  16.544 -0.6104 -0.2470 -0.2403
17493TIP3    H173894   2.130   1.005  16.489  0.1533 -0.5217 -0.1950
17493TIP3    H273895   2.155   1.154  16.484  0.4455 -0.5853 -0.6338
17494TIP3   OH273896   2.628   0.505   1.751  0.2907 -0.1993 -0.0878
17494TIP3    H173897   2.569   0.485   1.679  0.9442  0.1256 -0.7274
17494TIP3    H273898   2.714   0.517   1.709  0.8827 -0.9732  0.8436
17495TIP3   OH273899   1.295   3.988  15.024  0.2464 -0.7029 -0.5944
17495TIP3    H173900   1.372   3.994  14.967  1.1748 -1.0634  0.5725
17495TIP3    H273901   1.329   4.004  15.112 -1.0796 -0.5518 -0.0797
17496TIP3   OH273902   0.131   3.266   3.362 -0.4939  0.4886 -0.5399
17496TIP3    H173903   0.187   3.201   3.403 -1.5000  0.4288  0.8178
17496TIP3    H273904   0.174   3.287   3.279  0.5359 -0.9056 -0.3841
17497TIP3   OH273905   3.556   2.358   3.686  0.1326  0.3534 -0.6508
17497TIP3    H173906   3.548   2.381   3.778 -1.9941  0.1379 -0.7350
17497TIP3    H273907   3.557   2.263   3.684 -3.8282  0.1442 -0.9604
17498TIP3   OH273908   0.889   2.958   0.917  0.4021  1.3352  0.1101
17498TIP3    H173909   0.898   3.016   0.993 -0.9543  3.6586 -1.3622
17498TIP3    H273910   0.825   2.892   0.945  0.1556  1.9646  1.0940
17499TIP3   OH273911   5.380   6.098   4.879 -0.0811 -0.0480  0.4411
17499TIP3    H173912   5.330   6.099   4.797 -0.9653  1.2200  0.9635
17499TIP3    H273913   5.347   6.022   4.926 -0.6667  0.0928  0.2656
17500TIP3   OH273914   0.080   2.270   3.951  0.0275 -0.1734  0.4303
17500TIP3    H173915   0.167   2.262   3.913 -0.2563  0.6900 -0.4429
17500TIP3    H273916   0.027   2.206   3.904 -0.2443  0.6531 -0.4042
17501TIP3   OH273917   0.526   6.542  12.506 -0.0900  0.1586  0.0767
17501TIP3    H173918   0.506   6.633  12.484 -1.1394  0.4435  1.9816
17501TIP3    H273919   0.527   6.496  12.422 -0.0757  1.8203 -0.8671
17502TIP3   OH273920   0.009   5.178  12.317  0.4671 -0.3889  0.1522
17502TIP3    H173921  -0.023   5.122  12.387 -0.2071  1.5295  1.4402
17502TIP3    H273922  -0.049   5.161  12.243 -1.5482  0.6438  1.4277
17503TIP3   OH273923   2.465   3.299  16.517 -0.6211 -0.1347  0.4517
17503TIP3    H173924   2.478   3.234  16.587 -1.0448  0.4750  1.1042
17503TIP3    H273925   2.380   3.338  16.535 -0.7413  0.0333 -0.4150
17504TIP3   OH273926   4.179   1.305  12.147 -0.1485 -0.0873 -0.6753
17504TIP3    H173927   4.121   1.275  12.077 -4.4034  2.3178  1.4448
17504TIP3    H273928   4.188   1.230  12.206 -2.4058 -0.1628 -0.3646
17505TIP3   OH273929   4.350   1.901   3.624  0.5190  0.2308  0.2618
17505TIP3    H173930   4.446   1.896   3.619  0.5394  1.5126 -1.8415
17505TIP3    H273931   4.320   1.864   3.540 -0.8208  0.1317  0.7657
17506TIP3   OH273932   6.001   6.154  16.054 -0.3185  0.4453 -0.2566
17506TIP3    H173933   5.975   6.172  16.145 -1.0209  1.2130 -0.5978
17506TIP3    H273934   6.097   6.149  16.057 -0.1850  2.5518  0.1823
17507TIP3   OH273935   3.100   6.456  12.094 -0.1030 -0.9043 -0.4711
17507TIP3    H173936   3.166   6.402  12.051  1.0106 -0.0921  0.1949
17507TIP3    H273937   3.128   6.462  12.185 -0.1959  0.7707 -0.5144
17508TIP3   OH273938   2.435   5.376  12.928  0.4991  0.0437  0.9013
17508TIP3    H173939   2.352   5.416  12.901  0.5431 -0.9609 -0.9326
17508TIP3    H273940   2.439   5.294  12.878  3.0535  0.5450  0.1236
17509TIP3   OH273941   1.053   4.448   5.419 -0.7191  0.1478  0.2440
17509TIP3    H173942   1.146   4.468   5.428 -0.5989 -0.1420 -0.3464
17509TIP3    H273943   1.047   4.394   5.341 -1.4519  0.6012 -0.0241
17510TIP3   OH273944   3.476   0.593  12.138  0.0834 -0.2606  0.0816
17510TIP3    H173945   3.424   0.673  12.149 -0.4920 -0.8781  2.3529
17510TIP3    H273946   3.477   0.553  12.225  1.5461 -2.0195 -0.6833
17511TIP3   OH273947   3.574   2.180   3.106 -0.2289  0.3688  0.3615
17511TIP3    H173948   3.670   2.183   3.100 -0.2635 -0.8875 -1.0305
17511TIP3    H273949   3.556   2.206   3.197  1.5884 -2.0818  1.5409
17512TIP3   OH273950   6.667   2.032  14.580 -0.0055  0.0346  0.5579
17512TIP3    H173951   6.593   2.047  14.521  0.5378 -0.4960 -0.2644
17512TIP3    H273952   6.680   1.938  14.580 -0.6065 -0.0779  2.2987
17513TIP3   OH273953   0.870   2.898  16.215  0.7306 -0.1210 -0.1172
17513TIP3    H173954   0.775   2.908  16.223  0.6970  0.0640 -0.6962
17513TIP3    H273955   0.883   2.860  16.128  1.1658 -0.5150  0.1175
17514TIP3   OH273956   0.097   4.174  16.824 -0.0898 -0.2235  0.4126
17514TIP3    H173957   0.118   4.208  16.910  0.0459  0.4943  0.0995
17514TIP3    H273958   0.102   4.078  16.834 -0.7668 -0.1658  1.3578
17515TIP3   OH273959   2.954   1.750   1.378  0.0622 -0.3287 -0.5863
17515TIP3    H173960   2.980   1.659   1.393  0.4011 -0.3645 -1.3479
17515TIP3    H273961   3.015   1.802   1.431 -0.8012 -0.5723  0.6957
17516TIP3   OH273962   0.543   0.747   0.377 -0.4902 -0.3982 -0.3177
17516TIP3    H173963   0.586   0.661   0.387 -0.7505 -0.4392  0.5304
17516TIP3    H273964   0.597   0.793   0.313 -0.2439 -1.1321 -0.6512
17517TIP3   OH273965   1.251   1.939   6.148 -0.4854 -0.2261  0.3256
17517TIP3    H173966   1.346   1.946   6.140 -0.6641  2.3566 -0.3646
17517TIP3    H273967   1.219   2.027   6.131 -2.9785 -0.8517  1.3653
17518TIP3   OH273968   1.533   6.650  14.074 -0.2577  0.7225 -0.2112
17518TIP3    H173969   1.521   6.567  14.120 -0.0769  0.2717 -0.9536
17518TIP3    H273970   1.532   6.716  14.142 -3.8232  0.4862  0.1486
17519TIP3   OH273971   6.463   3.605   2.808  0.3661  0.2827 -0.3041
17519TIP3    H173972   6.371   3.623   2.790  0.7504  0.9777 -1.6682
17519TIP3    H273973   6.510   3.639   2.732  1.6284 -1.5144 -0.3868
17520TIP3   OH273974   1.149   6.353   2.445 -0.0908 -0.3445  0.2935
17520TIP3    H173975   1.155   6.261   2.472 -0.5697 -0.4019  0.2114
17520TIP3    H273976   1.229   6.393   2.480  1.0491 -1.1810 -1.2081
17521TIP3   OH273977   1.354   4.373  15.711 -0.0361 -0.0416 -0.6752
17521TIP3    H173978   1.435   4.422  15.724 -0.3991  0.8407 -1.6254
17521TIP3    H273979   1.339   4.330  15.795  0.2097  1.6280  0.2826
17522TIP3   OH273980   4.978   4.744   6.161  0.4661  0.7116 -0.4132
17522TIP3    H173981   5.015   4.761   6.248  0.3301 -0.0823 -0.1948
17522TIP3    H273982   4.955   4.831   6.128 -1.9917  0.8854  1.4643
17523TIP3   OH273983   6.228   6.418   4.914 -0.3719 -0.3619  0.3414
17523TIP3    H173984   6.168   6.351   4.946 -2.0215  0.7947 -0.1630
17523TIP3    H273985   6.285   6.372   4.852 -0.6230 -1.5283  0.9589
17524TIP3   OH273986   3.636   0.018   2.658 -0.3999  0.1259  0.4559
17524TIP3    H173987   3.726   0.001   2.683  1.6062  3.8197 -3.0482
17524TIP3    H273988   3.604   0.080   2.724  0.4410  0.4909  0.5247
17525TIP3   OH273989   3.517   1.441  14.720  0.0679 -0.6538  0.7439
17525TIP3    H173990   3.586   1.378  14.699  1.1950  0.7063  0.2778
17525TIP3    H273991   3.521   1.450  14.815  2.7476  1.7590  0.5351
17526TIP3   OH273992   1.356   5.043   1.909 -0.2628 -0.2046 -0.1976
17526TIP3    H173993   1.303   5.118   1.882 -0.3198 -0.1686  0.0096
17526TIP3    H273994   1.409   5.077   1.982  1.2802  0.2389 -1.4677
17527TIP3   OH273995   5.876   4.552   1.147 -0.8547 -0.3960  0.1507
17527TIP3    H173996   5.835   4.469   1.170 -2.2369  0.2723  0.1676
17527TIP3    H273997   5.808   4.617   1.160 -0.2740  0.5621 -1.3744
17528TIP3   OH273998   1.357   5.612  17.026 -0.0948 -0.4076  0.0988
17528TIP3    H173999   1.435   5.557  17.026  0.5823  0.5381  0.6260
17528TIP3    H274000   1.344   5.636  17.118 -0.2266  0.5162 -0.1475
17529TIP3   OH274001   4.856   6.380  13.592  0.0771 -0.3516  0.1426
17529TIP3    H174002   4.820   6.308  13.644  1.8077 -0.2420  1.5843
17529TIP3    H274003   4.932   6.409  13.641  2.5436 -0.9700 -3.0119
17530TIP3   OH274004   3.320   5.661  12.125 -0.4566  0.4509  0.1195
17530TIP3    H174005   3.281   5.594  12.068 -0.2885  0.7690 -0.3709
17530TIP3    H274006   3.256   5.732  12.125 -1.5573 -0.4528  2.1698
17531TIP3   OH274007   5.544   2.588  15.019  0.1334 -0.0253 -0.0085
17531TIP3    H174008   5.488   2.599  14.942 -0.7933 -1.1634  0.4771
17531TIP3    H274009   5.629   2.562  14.983 -0.3901 -0.9109 -0.6480
17532TIP3   OH274010   3.789   2.507  14.742 -0.2300 -0.1219  0.2782
17532TIP3    H174011   3.800   2.532  14.650 -0.5900 -1.8947 -0.2791
17532TIP3    H274012   3.727   2.571  14.777  0.2797  0.8653 -0.5725
17533TIP3   OH274013   5.185   4.407  14.392 -0.2347  0.1124  0.3211
17533TIP3    H174014   5.230   4.458  14.325 -1.7106 -0.2531 -1.0173
17533TIP3    H274015   5.254   4.378  14.451  0.9069  1.8258 -0.1065
17534TIP3   OH274016   2.702   2.307   5.415  0.1703  0.0893 -0.7784
17534TIP3    H174017   2.668   2.323   5.327  1.1185 -0.9677 -1.3608
17534TIP3    H274018   2.626   2.280   5.466 -0.0819 -1.1936 -1.7794
17535TIP3   OH274019   4.289   0.733   5.273 -0.1831  0.4566  0.7702
17535TIP3    H174020   4.233   0.721   5.350 -0.6239 -0.7306  0.2799
17535TIP3    H274021   4.293   0.828   5.262 -1.5922  0.5859  1.1929
17536TIP3   OH274022   4.780   6.634   3.466  0.5007  0.0528  0.0337
17536TIP3    H174023   4.813   6.558   3.417 -0.0831 -0.1569 -0.0455
17536TIP3    H274024   4.791   6.708   3.406  0.1475 -0.1365 -0.2642
17537TIP3   OH274025   3.111   2.966  14.707 -0.0286 -0.3113  0.0054
17537TIP3    H174026   3.042   3.019  14.667 -0.6427 -1.8363 -1.0761
17537TIP3    H274027   3.104   2.984  14.801  0.0653  1.7755 -0.3522
17538TIP3   OH274028   3.583   3.246   3.334 -0.1740 -0.1063 -0.2511
17538TIP3    H174029   3.557   3.336   3.314 -0.6550 -0.1893 -0.0133
17538TIP3    H274030   3.507   3.209   3.378  0.0914 -0.5759 -0.1883
17539TIP3   OH274031   5.144   0.662   3.143  0.0699  0.1346  0.1645
17539TIP3    H174032   5.161   0.570   3.123  2.5517  0.8009 -1.1499
17539TIP3    H274033   5.065   0.683   3.094 -0.2496 -1.1631  0.1016
17540TIP3   OH274034   6.587   5.139  11.584  0.0116 -0.0932  0.3845
17540TIP3    H174035   6.492   5.145  11.580  0.1177  1.8060 -0.4503
17540TIP3    H274036   6.612   5.109  11.496  0.2165  0.4299  0.2590
17541TIP3   OH274037   1.663   3.004  12.649  0.3096  0.5505  0.1385
17541TIP3    H174038   1.659   2.923  12.700 -0.1110  0.4918  0.0113
17541TIP3    H274039   1.594   3.060  12.684 -0.4666  0.2300 -0.8263
17542TIP3   OH274040   2.305   2.001   5.416  0.1221 -0.3253  0.1177
17542TIP3    H174041   2.279   1.924   5.468  1.7310 -0.1093  1.3465
17542TIP3    H274042   2.225   2.029   5.372 -0.9631 -1.4949  1.2468
17543TIP3   OH274043   4.428   0.730  14.217 -0.0121 -0.3442 -0.2218
17543TIP3    H174044   4.510   0.740  14.265 -1.0890  1.1707  1.4566
17543TIP3    H274045   4.432   0.797  14.149 -0.9968  1.8751  1.7323
17544TIP3   OH274046   6.609   1.703   0.874 -0.0212 -0.2653 -0.4417
17544TIP3    H174047   6.539   1.751   0.830 -0.7711 -1.7816 -1.0128
17544TIP3    H274048   6.641   1.642   0.807  1.9421  0.4571 -0.2264
17545TIP3   OH274049   1.283   0.409  15.883 -0.2956 -0.0496 -0.5081
17545TIP3    H174050   1.353   0.343  15.882 -1.9862 -1.9549 -1.4121
17545TIP3    H274051   1.203   0.357  15.893 -1.6011  2.0490  0.4877
17546TIP3   OH274052   1.326   6.706   4.153 -0.6192  0.0313  1.0035
17546TIP3    H174053   1.291   6.677   4.238  0.2223  0.4780  1.5132
17546TIP3    H274054   1.410   6.662   4.145 -0.5738  0.2005  0.5103
17547TIP3   OH274055   6.418   5.015  16.364  0.7066  0.0906  0.2063
17547TIP3    H174056   6.422   5.039  16.272  0.0316 -1.1055 -0.1496
17547TIP3    H274057   6.434   4.921  16.365  0.2726  0.0149  1.2664
17548TIP3   OH274058   3.228   2.854   2.420 -0.1925  0.4137  0.5716
17548TIP3    H174059   3.221   2.771   2.373  0.0713  0.1276  1.0183
17548TIP3    H274060   3.280   2.832   2.498  0.8729  1.2478  0.1146
17549TIP3   OH274061   4.944   4.583   1.262 -0.0256  0.6109 -0.6042
17549TIP3    H174062   4.959   4.603   1.169  0.7970  1.3255 -0.3289
17549TIP3    H274063   5.025   4.608   1.306 -0.6527  0.9426  0.4105
17550TIP3   OH274064   1.399   1.874   2.769 -0.7050  0.4071 -0.4291
17550TIP3    H174065   1.382   1.841   2.681 -0.9829  0.9517 -0.5799
17550TIP3    H274066   1.396   1.969   2.760  0.1368  0.4822 -0.0066
17551TIP3   OH274067   6.562   0.463   0.286  0.1331  0.5093 -0.3392
17551TIP3    H174068   6.577   0.557   0.289 -1.4953  1.0230 -3.6144
17551TIP3    H274069   6.593   0.437   0.199  1.7357 -2.2854  0.9259
17552TIP3   OH274070   3.496   1.248   5.113  0.0729  0.2751  0.3063
17552TIP3    H174071   3.429   1.298   5.066  0.5870 -0.1874 -0.9733
17552TIP3    H274072   3.461   1.158   5.115  1.0080 -0.1596 -1.1685
17553TIP3   OH274073   1.806   0.475   0.250  0.2182  0.6401  0.2052
17553TIP3    H174074   1.774   0.412   0.316 -2.7086  1.1965 -0.5400
17553TIP3    H274075   1.863   0.534   0.299 -1.8827  1.0675  2.3483
17554TIP3   OH274076   6.019   2.959  16.905 -0.2132  0.1127 -0.7617
17554TIP3    H174077   5.981   2.928  16.987 -0.5070 -0.8679 -1.2581
17554TIP3    H274078   6.109   2.925  16.905  0.0948  0.9040 -0.4234
17555TIP3   OH274079   0.465   1.212   0.664  0.0696 -0.4109 -0.4102
17555TIP3    H174080   0.455   1.213   0.759 -0.7151 -0.6992 -0.4870
17555TIP3    H274081   0.457   1.120   0.640  0.8825 -0.4156 -0.7025
17556TIP3   OH274082   3.787   0.041   1.679 -0.4688 -0.4127  0.2921
17556TIP3    H174083   3.842  -0.013   1.736  0.3693  0.4768  0.3668
17556TIP3    H274084   3.716  -0.016   1.652  0.9611 -1.8870 -0.5035
17557TIP3   OH274085   5.542   3.659  10.920 -0.6391  0.3550 -0.0826
17557TIP3    H174086   5.463   3.666  10.973 -0.8655  0.5412 -0.4367
17557TIP3    H274087   5.526   3.584  10.863  0.7713 -1.6746  2.0237
17558TIP3   OH274088   6.135   0.328   0.741  0.5734  0.2821 -0.1309
17558TIP3    H174089   6.106   0.237   0.729  1.3519  0.1497 -1.2106
17558TIP3    H274090   6.055   0.380   0.733 -0.3605 -0.4210  3.1870
17559TIP3   OH274091   4.326   6.000   4.109 -0.0627 -0.2565 -0.5124
17559TIP3    H174092   4.365   5.961   4.031 -0.5312 -0.4504 -0.6528
17559TIP3    H274093   4.299   5.925   4.163  0.9184 -0.1298  0.1792
17560TIP3   OH274094   0.149   6.382  14.843  0.1868 -0.0047  0.3105
17560TIP3    H174095   0.057   6.395  14.866 -0.1076 -0.2546 -0.6664
17560TIP3    H274096   0.195   6.382  14.926 -0.8408 -1.0037  0.9126
17561TIP3   OH274097   6.416   5.884  14.558  0.4334  0.2220  0.4765
17561TIP3    H174098   6.504   5.922  14.546 -0.0339  0.7668 -1.6186
17561TIP3    H274099   6.361   5.959  14.579 -0.0541  0.3925 -1.2757
17562TIP3   OH274100   3.273   2.038   3.706 -0.1008  0.6321  0.7580
17562TIP3    H174101   3.349   2.046   3.764  1.6163  1.9499 -1.5547
17562TIP3    H274102   3.227   2.122   3.716 -0.1872  0.5894  0.7140
17563TIP3   OH274103   4.622   4.280   3.472  0.6622  0.3235  0.0915
17563TIP3    H174104   4.625   4.210   3.536  0.6526  0.4839  0.2668
17563TIP3    H274105   4.654   4.357   3.519  0.3295  0.5166 -0.0003
17564TIP3   OH274106   2.369   5.621   3.002  0.4389 -0.3168  0.9106
17564TIP3    H174107   2.424   5.595   2.929  0.0769  3.6057 -1.0478
17564TIP3    H274108   2.425   5.675   3.058 -0.4250  0.6372  0.9042
17565TIP3   OH274109   4.195   6.441   1.656  0.0193 -0.0185 -0.1002
17565TIP3    H174110   4.105   6.453   1.686  0.2608  0.0519  0.6192
17565TIP3    H274111   4.192   6.363   1.601 -0.7107  0.6966 -1.1177
17566TIP3   OH274112   1.890   1.494  15.723 -0.1932 -0.0233 -0.3678
17566TIP3    H174113   1.912   1.401  15.728  1.2180  0.1729 -1.8493
17566TIP3    H274114   1.795   1.497  15.726 -0.2982 -1.6001 -1.1995
17567TIP3   OH274115   0.432   1.011   4.957 -0.0333  0.0903 -0.4878
17567TIP3    H174116   0.405   1.085   4.903  0.2046  1.2300  0.8772
17567TIP3    H274117   0.521   0.990   4.929  0.0429  0.5885 -0.6161
17568TIP3   OH274118   3.760   1.480   5.529 -0.2937 -0.3361  0.7233
17568TIP3    H174119   3.687   1.452   5.473 -0.4809  0.2943  0.6442
17568TIP3    H274120   3.727   1.557   5.575  1.0308  1.3210 -0.9393
17569TIP3   OH274121   2.446   3.650  11.128 -0.4505 -0.3291  0.4416
17569TIP3    H174122   2.392   3.683  11.055  0.5854 -1.8686 -1.0990
17569TIP3    H274123   2.388   3.656  11.204 -1.1688  2.5120 -0.1835
17570TIP3   OH274124   6.329   4.984   5.030 -0.2710 -0.4411  0.2870
17570TIP3    H174125   6.395   4.972   4.961 -0.2159  1.7414 -0.1033
17570TIP3    H274126   6.375   5.027   5.101 -0.8375 -0.6914  0.8184
17571TIP3   OH274127   5.712   6.611  15.350 -0.2011  0.1076  0.0392
17571TIP3    H174128   5.734   6.640  15.261 -1.1071 -3.4611 -1.5189
17571TIP3    H274129   5.793   6.571  15.383 -0.5510 -0.8571 -0.2443
17572TIP3   OH274130   3.301   0.887  16.767 -0.3583 -0.4476  0.4980
17572TIP3    H174131   3.358   0.948  16.721 -0.7067  0.3799  1.1268
17572TIP3    H274132   3.217   0.933  16.774 -1.1249 -1.6245 -0.4003
17573TIP3   OH274133   1.309   2.235   4.878 -0.1611  0.0377  0.0738
17573TIP3    H174134   1.341   2.275   4.958 -0.2799 -0.5296  0.4138
17573TIP3    H274135   1.282   2.309   4.823  0.6123  0.4583  0.2557
17574TIP3   OH274136   1.480   1.374  13.828  0.4865 -0.3804  0.3506
17574TIP3    H174137   1.410   1.423  13.871  1.5522  0.4987  1.1270
17574TIP3    H274138   1.434   1.317  13.766 -0.8606  0.6796  0.3233
17575TIP3   OH274139   1.230   3.621   0.035  0.1772  0.0774  0.3240
17575TIP3    H174140   1.138   3.605   0.057  0.0303  0.0867 -0.2660
17575TIP3    H274141   1.274   3.538   0.056  0.4963  0.8221  2.9363
17576TIP3   OH274142   4.170   2.391  16.377 -0.1682  0.4922  0.8412
17576TIP3    H174143   4.215   2.358  16.299  0.6424 -0.3189  1.6164
17576TIP3    H274144   4.077   2.382  16.357  0.0315 -0.7214  0.3773
17577TIP3   OH274145   2.200   2.876   2.639  0.3806 -0.2945  0.3323
17577TIP3    H174146   2.233   2.918   2.718  0.4855 -2.6063  1.6046
17577TIP3    H274147   2.188   2.948   2.577 -2.3236  2.0957  3.2420
17578TIP3   OH274148   6.053   6.538  13.281 -0.1214 -0.2033  0.1920
17578TIP3    H174149   6.091   6.598  13.217 -0.7008  2.2617  2.0302
17578TIP3    H274150   6.126   6.482  13.307  1.5343  2.2427  1.1940
17579TIP3   OH274151   2.080   4.999   2.662 -0.4681 -0.0748 -0.0561
17579TIP3    H174152   2.147   5.059   2.630 -0.1142 -0.1051  0.6114
17579TIP3    H274153   2.045   5.042   2.740 -0.2442 -0.7025  0.3998
17580TIP3   OH274154   4.489   6.053   2.339  0.7394  0.1952 -0.1027
17580TIP3    H174155   4.464   6.145   2.339  0.0547  0.0120 -0.6546
17580TIP3    H274156   4.548   6.044   2.414 -0.8776  0.6346  1.2806
17581TIP3   OH274157   5.541   5.682  13.607 -0.2087  0.1659 -0.3532
17581TIP3    H174158   5.620   5.657  13.558 -0.9732  0.2155 -1.6719
17581TIP3    H274159   5.519   5.769  13.574 -0.5852  0.3305  0.3179
17582TIP3   OH274160   1.118   2.498  13.767 -0.0444 -0.6257 -0.6918
17582TIP3    H174161   1.089   2.407  13.767  0.5741 -0.8352  0.1610
17582TIP3    H274162   1.205   2.496  13.807 -0.6868  0.5304  0.9197
17583TIP3   OH274163   1.837   5.429  11.537 -0.0055 -0.1629 -0.1342
17583TIP3    H174164   1.825   5.479  11.456 -0.2223 -0.7793 -0.4838
17583TIP3    H274165   1.748   5.414  11.570  0.0245 -0.8041 -0.3305
17584TIP3   OH274166   6.399   1.862  16.413 -0.8217 -0.5723 -0.4068
17584TIP3    H174167   6.328   1.821  16.364 -0.2558 -0.9856 -0.8961
17584TIP3    H274168   6.357   1.935  16.459 -1.6521 -1.0980 -0.3050
17585TIP3   OH274169   3.387   2.005  10.858  0.3220 -0.2894 -0.3292
17585TIP3    H174170   3.427   2.062  10.793 -0.2940  0.0732 -0.3980
17585TIP3    H274171   3.340   2.064  10.917  1.1853 -0.5856  0.6749
17586TIP3   OH274172   2.177   4.691   1.253 -0.2863  0.3035 -0.7744
17586TIP3    H174173   2.227   4.749   1.310 -1.2804  0.3687  0.0549
17586TIP3    H274174   2.235   4.616   1.238  0.9957  1.4428 -1.8224
17587TIP3   OH274175   2.636   2.400   2.997  0.8362 -0.2841 -0.4430
17587TIP3    H174176   2.618   2.478   3.050 -0.0097 -1.6409  1.3493
17587TIP3    H274177   2.686   2.434   2.922 -0.4314  2.1281 -0.3112
17588TIP3   OH274178   6.614   6.305  12.570  0.3525  0.2677 -0.6505
17588TIP3    H174179   6.674   6.242  12.609  1.1484  0.5039 -1.4515
17588TIP3    H274180   6.657   6.390  12.583 -1.0075  0.7583  0.9932
17589TIP3   OH274181   5.967   5.577  14.259 -0.3061  0.1057 -0.6350
17589TIP3    H174182   5.943   5.485  14.246  0.8293 -0.0428 -1.8733
17589TIP3    H274183   5.919   5.624  14.191 -0.4544  0.3705 -0.3517
17590TIP3   OH274184   1.976   3.753   1.369  0.8679 -0.1546  0.5121
17590TIP3    H174185   2.031   3.706   1.306 -1.3735  1.1100 -2.6821
17590TIP3    H274186   1.896   3.702   1.374  0.8757 -0.0508  2.1972
17591TIP3   OH274187   4.680   2.295  11.924  0.8881  0.3376  0.2952
17591TIP3    H174188   4.765   2.339  11.933 -0.0193  1.9836  1.4341
17591TIP3    H274189   4.619   2.353  11.970 -0.7632 -1.0815 -0.0303
17592TIP3   OH274190   3.467   5.514  15.423  0.5696  0.2022 -0.7553
17592TIP3    H174191   3.376   5.527  15.449  0.2811 -0.0851 -1.5759
17592TIP3    H274192   3.512   5.487  15.503 -0.4476 -1.4744 -0.7025
17593TIP3   OH274193   2.147   5.472   3.513 -0.1262 -0.0585 -0.0923
17593TIP3    H174194   2.173   5.545   3.456 -0.1573 -0.5476 -0.7372
17593TIP3    H274195   2.063   5.443   3.477 -1.1486  0.9046  1.4039
17594TIP3   OH274196   6.544   0.177  12.520 -0.2725  0.3736  0.6354
17594TIP3    H174197   6.552   0.267  12.550 -0.7810  0.9772 -0.9565
17594TIP3    H274198   6.454   0.171  12.486  0.1662 -0.3376 -0.4505
17595TIP3   OH274199   1.668   5.109  14.198 -0.3543 -0.0832  0.2756
17595TIP3    H174200   1.699   5.027  14.159 -0.2578 -0.5253  1.2637
17595TIP3    H274201   1.596   5.084  14.255  0.2876  0.3821  1.3241
17596TIP3   OH274202   6.145   3.609   4.199  0.0943  0.4449  0.2892
17596TIP3    H174203   6.066   3.634   4.247 -0.6847 -0.0371 -0.6951
17596TIP3    H274204   6.201   3.686   4.202 -0.2429  0.6650  1.3319
17597TIP3   OH274205   4.345   5.389  11.763  0.6637  0.2868  0.0448
17597TIP3    H174206   4.406   5.463  11.766  0.5742  0.5402 -2.2894
17597TIP3    H274207   4.400   5.312  11.778  1.6251  0.5162 -1.9609
17598TIP3   OH274208   0.856   4.178   1.044  0.6915  0.2442  0.7940
17598TIP3    H174209   0.849   4.085   1.066  1.8387  0.1480  0.7889
17598TIP3    H274210   0.937   4.207   1.085  1.3168  0.7978 -0.7586
17599TIP3   OH274211   0.666   6.320  15.916  0.0904  0.0166 -0.3287
17599TIP3    H174212   0.632   6.260  15.850 -0.0316 -2.4889  1.8285
17599TIP3    H274213   0.747   6.278  15.946  1.0864  2.0006 -0.1179
17600TIP3   OH274214   6.280   1.660   5.708  0.4753 -0.6380  0.1826
17600TIP3    H174215   6.246   1.689   5.792  0.1466  0.5105 -0.3151
17600TIP3    H274216   6.375   1.673   5.715  0.4522 -0.5780  0.3872
17601TIP3   OH274217   2.171   5.596   2.146 -0.2938  0.0676 -0.0360
17601TIP3    H174218   2.209   5.548   2.073 -0.4130  2.1924 -1.5920
17601TIP3    H274219   2.241   5.655   2.175 -0.1662 -0.9257  1.7746
17602TIP3   OH274220   4.008   4.835   4.306  0.0792  1.0036  0.2437
17602TIP3    H174221   4.090   4.787   4.313 -0.6468 -0.0976  1.8123
17602TIP3    H274222   3.948   4.773   4.263 -0.5749  0.8809  1.3148
17603TIP3   OH274223   5.776   4.370  14.991 -0.2324  0.4114 -0.7146
17603TIP3    H174224   5.769   4.276  14.980  0.6580  0.0468  1.2957
17603TIP3    H274225   5.828   4.381  15.071 -1.5297  2.5788 -0.0753
17604TIP3   OH274226   3.950   0.574   4.618  0.1552 -0.2236 -0.0026
17604TIP3    H174227   3.972   0.512   4.549 -0.3035 -0.6604  0.2310
17604TIP3    H274228   3.938   0.657   4.573 -0.8508 -0.6518 -0.5637
17605TIP3   OH274229   4.671   2.510  12.938  0.1691  0.1397 -0.7179
17605TIP3    H174230   4.752   2.559  12.922  0.6535 -0.6997 -0.9415
17605TIP3    H274231   4.602   2.576  12.938  0.9981  1.0528  0.8428
17606TIP3   OH274232   1.264   4.034   0.053 -0.6395  0.2046 -0.3328
17606TIP3    H174233   1.282   3.945   0.082  0.1720  0.2248 -0.7537
17606TIP3    H274234   1.240   4.024  -0.039  0.9984  0.5613 -0.8304
17607TIP3   OH274235   6.228   4.390  14.478  0.1037  0.3594  0.0613
17607TIP3    H174236   6.240   4.445  14.400 -0.1226  0.2848 -0.0262
17607TIP3    H274237   6.252   4.302  14.449  1.3288  0.5566  0.4404
17608TIP3   OH274238   1.583   6.005   3.341  0.1453  0.4740  0.4421
17608TIP3    H174239   1.505   6.061   3.343 -0.7448 -0.7378  1.5208
17608TIP3    H274240   1.554   5.925   3.296  0.7559 -0.0136  0.9002
17609TIP3   OH274241   3.281   5.570  15.225 -0.3567 -0.3159  0.8266
17609TIP3    H174242   3.354   5.539  15.278  0.9812 -0.4603 -0.9771
17609TIP3    H274243   3.314   5.652  15.186 -1.2604 -0.2335  0.2134
17610TIP3   OH274244   1.964   3.905  11.536 -0.4007 -0.1017  0.0893
17610TIP3    H174245   1.915   3.847  11.478  0.6593 -0.8400 -0.0981
17610TIP3    H274246   1.903   3.925  11.607 -1.9187  1.2643 -1.5085
17611TIP3   OH274247   2.765   4.120  16.582  0.1182  0.1535 -0.5675
17611TIP3    H174248   2.736   4.190  16.523 -0.1872  0.4102 -0.1211
17611TIP3    H274249   2.777   4.164  16.666 -0.2711 -0.3775 -0.2342
17612TIP3   OH274250   4.357   4.300  16.283 -0.0900 -0.1225  0.3355
17612TIP3    H174251   4.311   4.384  16.272  0.9026  0.5295  0.9973
17612TIP3    H274252   4.368   4.292  16.378  0.0167 -0.9076  0.2583
17613TIP3   OH274253   0.485   6.635   2.402  0.7506  0.0039  0.6023
17613TIP3    H174254   0.496   6.697   2.473 -0.7904 -0.1574  1.0125
17613TIP3    H274255   0.416   6.673   2.347  3.6456  1.5006 -2.3967
17614TIP3   OH274256   1.589   5.569   5.468  0.2633 -0.1752  0.5599
17614TIP3    H174257   1.677   5.607   5.462  0.7642 -1.3380  0.3916
17614TIP3    H274258   1.587   5.501   5.401 -0.6432 -0.3976  0.8030
17615TIP3   OH274259   4.612   4.256  17.108  0.5454  0.3611  0.3826
17615TIP3    H174260   4.606   4.327  17.044  1.1340  2.2674  2.3159
17615TIP3    H274261   4.703   4.258  17.138  0.5914 -1.2910  0.4384
17616TIP3   OH274262   5.197   2.183  16.830 -0.6763  0.8385  0.5625
17616TIP3    H174263   5.102   2.192  16.821 -0.3060  2.8972 -3.1895
17616TIP3    H274264   5.229   2.273  16.837  1.0463  0.1589  2.3388
17617TIP3   OH274265   6.717   5.639  17.126 -0.2814  0.7910 -0.2963
17617TIP3    H174266   6.738   5.683  17.044  0.2968  0.2384 -0.4575
17617TIP3    H274267   6.641   5.583  17.105  0.4851 -0.1102 -0.7306
17618TIP3   OH274268   0.942   5.560  11.420 -0.0225  0.3074 -0.6354
17618TIP3    H174269   0.869   5.555  11.481 -0.1682 -1.6118 -0.8911
17618TIP3    H274270   0.910   5.517  11.341  1.3294 -0.4767 -0.7899
17619TIP3   OH274271   2.085   3.592  10.817  0.3545 -0.6782 -0.0228
17619TIP3    H174272   2.159   3.626  10.867  1.5711 -0.6150 -1.7404
17619TIP3    H274273   2.074   3.502  10.848  1.5855 -0.8961 -0.1721
17620TIP3   OH274274   1.312   3.066   0.039  0.2771 -0.5827  0.1099
17620TIP3    H174275   1.260   2.986   0.028  0.5569 -0.8030  0.3397
17620TIP3    H274276   1.372   3.045   0.111  2.3017 -1.1951 -1.6363
17621TIP3   OH274277   0.981   0.535  11.914  0.4503  0.5685 -0.5809
17621TIP3    H174278   1.041   0.557  11.986  0.4897  0.1206 -0.4758
17621TIP3    H274279   1.011   0.449  11.884 -1.4414 -0.6630  0.8679
17622TIP3   OH274280   1.114   0.654  16.877  0.1621 -0.3072  0.1796
17622TIP3    H174281   1.030   0.700  16.872 -0.7774 -2.0196 -0.7899
17622TIP3    H274282   1.175   0.712  16.831 -0.8758  0.2006 -0.6258
17623TIP3   OH274283   2.324   1.521   6.186 -0.1162 -0.5464 -0.0595
17623TIP3    H174284   2.397   1.565   6.142 -0.3887 -1.4154 -1.4128
17623TIP3    H274285   2.285   1.590   6.240  1.8445 -0.1266  0.9127
17624TIP3   OH274286   6.573   1.157  11.416  0.0486 -0.0696 -0.2646
17624TIP3    H174287   6.496   1.113  11.379  0.1847 -0.0689 -0.5479
17624TIP3    H274288   6.628   1.087  11.450 -0.4168 -0.0287  0.6016
17625TIP3   OH274289   3.489   1.387   5.364 -0.7376  0.5181  0.0045
17625TIP3    H174290   3.475   1.345   5.449  0.1188  1.1637  0.4783
17625TIP3    H274291   3.467   1.320   5.300 -4.2766  0.8709  0.6541
17626TIP3   OH274292   5.282   4.858  13.593  0.4398  1.1158  0.1159
17626TIP3    H174293   5.254   4.919  13.661 -2.0116 -0.6252  0.8142
17626TIP3    H274294   5.200   4.828  13.553  1.5482 -1.2571 -0.5565
17627TIP3   OH274295   0.852   6.141   5.361 -0.7191  0.0512 -0.2637
17627TIP3    H174296   0.854   6.194   5.282 -1.1168 -0.3887 -0.5788
17627TIP3    H274297   0.832   6.052   5.329 -0.4604 -0.2085  0.2859
17628TIP3   OH274298   6.474   2.566   1.215 -0.1202 -0.4801 -0.4793
17628TIP3    H174299   6.528   2.585   1.291 -3.9556  0.8552  2.2638
17628TIP3    H274300   6.468   2.650   1.169  1.8564 -1.1876 -2.1921
17629TIP3   OH274301   3.375   0.880   1.699 -0.2496 -0.1560  0.2669
17629TIP3    H174302   3.406   0.924   1.619  0.2369 -0.4874  0.2675
17629TIP3    H274303   3.429   0.802   1.705  0.3733  0.3559  1.4512
17630TIP3   OH274304   2.860   4.861  13.170  0.3550 -0.2847  0.4255
17630TIP3    H174305   2.899   4.810  13.240  2.4144  0.6290  0.0175
17630TIP3    H274306   2.869   4.806  13.092  1.5427  0.2002  0.1990
17631TIP3   OH274307   2.985   2.197  11.889 -0.1561 -0.2970  0.3937
17631TIP3    H174308   3.042   2.122  11.874 -0.9121 -0.6960 -0.5471
17631TIP3    H274309   3.043   2.273  11.882  0.3967 -0.7300  0.2016
17632TIP3   OH274310   0.593   3.679  11.619 -0.2209 -0.0902  0.4778
17632TIP3    H174311   0.513   3.689  11.671 -0.2044  0.8802  0.3318
17632TIP3    H274312   0.637   3.764  11.625  1.1960 -0.8313  1.1871
17633TIP3   OH274313   5.882   2.728   5.828 -0.4819 -0.0163 -0.0410
17633TIP3    H174314   5.905   2.809   5.875 -0.8043  0.4266 -0.6312
17633TIP3    H274315   5.859   2.758   5.740 -1.0823 -0.7081 -0.1202
17634TIP3   OH274316   1.552   3.718   1.638  0.1373  0.1809  0.1358
17634TIP3    H174317   1.509   3.775   1.701 -2.0785 -0.4980 -0.6873
17634TIP3    H274318   1.634   3.692   1.681 -0.8803  0.4188  2.3543
17635TIP3   OH274319   4.513   5.758  15.916  0.2756 -0.6180 -0.5740
17635TIP3    H174320   4.454   5.734  15.987  0.6765 -2.3782 -0.8057
17635TIP3    H274321   4.588   5.799  15.960  0.3596 -1.3626 -0.0139
17636TIP3   OH274322   4.686   4.484  12.226 -0.2127  0.5344  0.1833
17636TIP3    H174323   4.705   4.390  12.229  1.6703  0.8933  0.6132
17636TIP3    H274324   4.707   4.510  12.136  0.9890  0.8488  0.5377
17637TIP3   OH274325   2.943   0.771   6.305  0.1780  0.0584 -0.2480
17637TIP3    H174326   3.011   0.797   6.367  0.0792 -0.8181  0.2412
17637TIP3    H274327   2.868   0.826   6.327  1.2823  2.4895 -2.0799
17638TIP3   OH274328   0.720   3.335  13.859 -0.0569 -0.5916  0.7965
17638TIP3    H174329   0.703   3.345  13.765 -0.1461  1.7149  1.0060
17638TIP3    H274330   0.636   3.355  13.901  0.6742  1.3970  1.4437
17639TIP3   OH274331   3.851   3.927  12.976 -0.4249 -0.0006 -0.1341
17639TIP3    H174332   3.826   3.979  13.053  3.1046  1.2558  0.3505
17639TIP3    H274333   3.849   3.836  13.006  0.6376  0.4527  1.4036
17640TIP3   OH274334   6.286   2.516  16.433  0.2861  0.1402  0.2405
17640TIP3    H174335   6.316   2.432  16.397  1.3667  1.2389 -1.6025
17640TIP3    H274336   6.199   2.528  16.396  0.9355  0.7232 -1.1804
17641TIP3   OH274337   0.587   3.250   5.030 -0.0903 -0.5500 -0.2213
17641TIP3    H174338   0.678   3.220   5.036  0.4150  0.5384 -1.7771
17641TIP3    H274339   0.536   3.180   5.070  1.4067 -1.3192  0.4216
17642TIP3   OH274340   5.384   2.096   3.651 -0.0219 -0.1536  0.4477
17642TIP3    H174341   5.314   2.044   3.692  0.0586 -0.1641  0.5732
17642TIP3    H274342   5.367   2.090   3.557  0.6730 -1.3941  0.3781
17643TIP3   OH274343   3.019   3.029  12.392  0.1396  0.0984  0.0079
17643TIP3    H174344   3.084   3.090  12.356  0.6215 -0.3688  0.0735
17643TIP3    H274345   3.046   3.016  12.483 -0.3946  0.3650  0.2059
17644TIP3   OH274346   0.942   5.344   5.815 -0.0810 -0.1135 -0.7002
17644TIP3    H174347   0.986   5.282   5.756  1.1415  1.0128 -1.0431
17644TIP3    H274348   1.014   5.393   5.856 -0.9578  0.0508  0.7189
17645TIP3   OH274349   2.434   0.047   2.596  0.0221 -0.0404  0.5749
17645TIP3    H174350   2.483  -0.023   2.639 -1.7809 -2.4980 -1.0740
17645TIP3    H274351   2.466   0.046   2.506  0.4210  1.8071  0.6475
17646TIP3   OH274352   4.735   6.645  12.086  0.8737  0.4741 -0.4146
17646TIP3    H174353   4.792   6.722  12.079  0.9097  1.0487  3.6829
17646TIP3    H274354   4.647   6.681  12.092  0.9350  0.4029  2.1320
17647TIP3   OH274355   4.192   2.041   2.139 -0.0607 -0.1478 -0.0905
17647TIP3    H174356   4.175   2.091   2.219 -0.5827 -0.3857 -0.0485
17647TIP3    H274357   4.226   2.106   2.077 -0.7350  0.2582 -0.0365
17648TIP3   OH274358   3.337   6.354   4.352 -0.8010  0.6518 -0.2128
17648TIP3    H174359   3.406   6.377   4.291 -0.2632  1.2756  0.6080
17648TIP3    H274360   3.381   6.306   4.422 -1.1846  1.0657  0.3235
17649TIP3   OH274361   4.813   5.896  15.801 -0.0514  0.2653 -0.4131
17649TIP3    H174362   4.829   5.907  15.707 -1.0063  0.4543 -0.5653
17649TIP3    H274363   4.894   5.923  15.842  0.1499  0.8315 -1.1588
17650TIP3   OH274364   3.215   5.443  11.978  0.3920 -0.5368 -0.0927
17650TIP3    H174365   3.221   5.349  11.962 -0.9571 -0.3469 -2.1079
17650TIP3    H274366   3.200   5.481  11.891 -0.5316  1.3944  0.8538
17651TIP3   OH274367   6.545   3.614  14.170  0.7613 -0.1058  0.3369
17651TIP3    H174368   6.531   3.600  14.264  1.7025  1.1717  0.6920
17651TIP3    H274369   6.615   3.554  14.146  0.0023 -0.9761  0.2760
17652TIP3   OH274370   4.205   0.717   2.944 -0.0132  0.3235  0.2608
17652TIP3    H174371   4.224   0.811   2.949 -1.8322  1.0459 -3.4856
17652TIP3    H274372   4.237   0.690   2.858 -2.5813 -1.6564 -0.1987
17653TIP3   OH274373   3.586   3.344  16.839  0.7146 -0.5893 -0.1822
17653TIP3    H174374   3.616   3.346  16.930  1.1267  0.7202 -0.3371
17653TIP3    H274375   3.612   3.257  16.808  1.6571 -0.6054  0.5934
17654TIP3   OH274376   6.573   0.381  14.315  0.7725  0.2880  0.2422
17654TIP3    H174377   6.605   0.463  14.352 -0.0221  0.3753  0.7428
17654TIP3    H274378   6.640   0.357  14.250  3.8124 -1.3593  3.6173
17655TIP3   OH274379   5.038   2.384   2.652 -0.0358  0.0334 -0.2741
17655TIP3    H174380   4.980   2.361   2.724  0.1778  2.8424  0.9377
17655TIP3    H274381   5.049   2.303   2.602 -4.4566 -0.8112 -0.2564
17656TIP3   OH274382   6.151   5.017  17.079  0.2838  0.3393 -0.6878
17656TIP3    H174383   6.162   4.925  17.054 -2.4210  0.5033 -2.9638
17656TIP3    H274384   6.102   5.014  17.160  0.9130 -0.1961 -0.3116
17657TIP3   OH274385   4.539   3.533   0.850  0.7472 -0.3159  0.6293
17657TIP3    H174386   4.494   3.448   0.851  0.5570 -0.2175  0.5331
17657TIP3    H274387   4.519   3.572   0.935  0.6412 -0.2675  0.5822
17658TIP3   OH274388   3.030   1.426  13.545  0.2558  0.4891 -0.4830
17658TIP3    H174389   2.982   1.420  13.627 -0.7229  1.0706 -0.9991
17658TIP3    H274390   3.002   1.509  13.506  0.3952  0.0330 -1.5959
17659TIP3   OH274391   5.410   5.955  14.709 -0.4753 -0.4591  0.8086
17659TIP3    H174392   5.370   6.028  14.661 -0.0251 -0.1930  0.8336
17659TIP3    H274393   5.373   5.877  14.669 -1.2593 -0.2157  1.0350
17660TIP3   OH274394   2.296   4.782   5.376 -0.7240  0.3667  0.2325
17660TIP3    H174395   2.271   4.692   5.397 -1.5566  0.4817 -0.2291
17660TIP3    H274396   2.315   4.822   5.461  1.3805 -0.7057  0.3337
17661TIP3   OH274397   2.462   2.613  13.310 -0.2299  0.1551 -0.1792
17661TIP3    H174398   2.397   2.636  13.243  0.0899  1.2602 -0.1324
17661TIP3    H274399   2.491   2.525  13.286 -1.1447 -0.0223 -0.6745
17662TIP3   OH274400   1.908   2.648  13.415 -0.3609  0.8842  0.2927
17662TIP3    H174401   1.951   2.623  13.497  1.9501 -1.0169 -1.3132
17662TIP3    H274402   1.831   2.592  13.410  0.7620 -0.7248  0.1643
17663TIP3   OH274403   0.038   4.647  13.483 -0.0620  0.2960 -0.7121
17663TIP3    H174404   0.073   4.733  13.460  0.8046  0.2794  0.4159
17663TIP3    H274405  -0.007   4.661  13.567  2.3435 -0.7886  0.8761
17664TIP3   OH274406   6.630   2.205   1.462  0.1838  0.2658  0.5383
17664TIP3    H174407   6.648   2.299   1.461 -0.5518  0.4119  0.0175
17664TIP3    H274408   6.582   2.191   1.544  0.8157  0.2313  0.9103
17665TIP3   OH274409   4.691   4.192  14.511  0.6619  0.0525  0.3710
17665TIP3    H174410   4.613   4.182  14.455  1.0669 -0.7403 -0.0761
17665TIP3    H274411   4.726   4.277  14.488  0.3322  0.1032  0.0427
17666TIP3   OH274412   2.492   5.792   4.813 -0.2218  0.4472 -0.1925
17666TIP3    H174413   2.409   5.746   4.823 -0.1206  0.3767  0.3381
17666TIP3    H274414   2.485   5.835   4.728 -0.0748 -1.0334 -0.9938
17667TIP3   OH274415   3.211   3.686   0.292 -0.0410 -0.6101 -1.0798
17667TIP3    H174416   3.194   3.666   0.384  1.1524 -2.5955 -1.2397
17667TIP3    H274417   3.264   3.767   0.295  1.8030 -1.7709  0.1609
17668TIP3   OH274418   0.497   3.701   0.587 -0.1525  0.1434 -0.2618
17668TIP3    H174419   0.568   3.754   0.552  0.2552  0.2503  0.6737
17668TIP3    H274420   0.418   3.751   0.570  0.0903  0.4277 -0.5595
17669TIP3   OH274421   3.861   3.200  12.996 -0.6489  0.1450  0.3681
17669TIP3    H174422   3.858   3.169  13.086  0.1806 -0.8258  0.0757
17669TIP3    H274423   3.804   3.140  12.948  1.2783 -1.2588 -0.2756
17670TIP3   OH274424   3.195   4.727  13.159  0.1973  0.2969  0.1807
17670TIP3    H174425   3.130   4.702  13.093 -1.4364  0.8810  1.5224
17670TIP3    H274426   3.270   4.756  13.107 -0.1724 -1.3883 -1.4168
17671TIP3   OH274427   1.330   4.363  13.834 -0.6995 -0.1219  0.2767
17671TIP3    H174428   1.345   4.285  13.781 -0.1304 -1.6758  2.5503
17671TIP3    H274429   1.239   4.356  13.863 -0.6305  0.0204  0.5334
17672TIP3   OH274430   3.178   1.514  15.761  0.8470  0.1018 -0.4741
17672TIP3    H174431   3.247   1.450  15.748  0.0209 -0.7992 -0.5269
17672TIP3    H274432   3.107   1.465  15.802  0.6666  1.2655  0.7034
17673TIP3   OH274433   2.026   0.595   0.351  0.2381 -0.4135  0.7986
17673TIP3    H174434   2.070   0.672   0.387  1.8476  0.0242 -1.8205
17673TIP3    H274435   2.098   0.536   0.328 -0.8082 -1.5075  0.2604
17674TIP3   OH274436   3.641   1.664  15.428  0.1431  0.0973 -0.3192
17674TIP3    H174437   3.697   1.610  15.484  0.5865  0.8638 -0.0101
17674TIP3    H274438   3.562   1.612  15.417  1.3567 -1.5985 -1.8026
17675TIP3   OH274439   3.671   6.189  12.027  0.2517  0.1293 -0.0946
17675TIP3    H174440   3.624   6.130  12.086 -0.9069 -0.1686 -1.2692
17675TIP3    H274441   3.758   6.151  12.020  0.4100  0.1596  1.3777
17676TIP3   OH274442   2.390   6.533  16.888 -0.0986  0.1089 -0.2186
17676TIP3    H174443   2.472   6.494  16.918  0.6296  1.5136 -0.3298
17676TIP3    H274444   2.377   6.609  16.944  0.1582  1.5332 -1.9787
17677TIP3   OH274445   5.874   2.466  12.756 -0.5461 -0.4295 -0.0191
17677TIP3    H174446   5.950   2.444  12.810  0.8166 -1.2831 -2.1538
17677TIP3    H274447   5.831   2.383  12.738 -2.3695  0.1017  1.6090
17678TIP3   OH274448   5.214   0.302  12.542  0.3176 -0.0008 -0.0700
17678TIP3    H174449   5.132   0.254  12.555  1.1531 -1.5491 -0.2002
17678TIP3    H274450   5.224   0.308  12.447  0.6620 -0.3950 -0.0620
17679TIP3   OH274451   1.058   0.209  14.008  0.0250  0.0385  0.2042
17679TIP3    H174452   1.030   0.120  14.031 -1.5355 -0.0751 -1.8570
17679TIP3    H274453   1.131   0.196  13.948  2.0881  0.2878  2.4941
17680TIP3   OH274454   3.595   2.040  14.914  0.3161 -0.6900  0.0973
17680TIP3    H174455   3.606   2.125  14.871  2.5059 -0.8612  0.2020
17680TIP3    H274456   3.583   2.062  15.007  0.9268 -0.4772  0.1310
17681TIP3   OH274457   2.917   4.236  15.035 -0.1950 -0.4456  0.5247
17681TIP3    H174458   2.933   4.259  14.944 -1.1749 -1.5240  0.0426
17681TIP3    H274459   2.995   4.265  15.082  0.1643  0.4519 -0.5943
17682TIP3   OH274460   1.954   0.233   0.611 -0.7159 -0.4616 -0.2098
17682TIP3    H174461   1.987   0.154   0.567  1.2496 -0.0232  0.3810
17682TIP3    H274462   1.967   0.216   0.704 -0.6105  0.4089 -0.0566
17683TIP3   OH274463   4.288   6.101   1.249  0.5874 -0.1538 -0.8607
17683TIP3    H174464   4.339   6.114   1.329 -0.5895 -0.6431  0.0090
17683TIP3    H274465   4.251   6.013   1.259 -0.0760  0.0293 -1.6450
17684TIP3   OH274466   2.524   6.687   0.853  0.6445  0.2369  0.3228
17684TIP3    H174467   2.560   6.617   0.798 -1.6466  0.7024 -1.9766
17684TIP3    H274468   2.575   6.765   0.830  2.9060 -0.4331  2.5665
17685TIP3   OH274469   4.964   3.727   1.921  0.0128  0.0052 -0.3322
17685TIP3    H174470   4.973   3.820   1.898  1.0407 -0.2278 -0.9526
17685TIP3    H274471   4.989   3.722   2.013 -0.2930  0.3700 -0.2253
17686TIP3   OH274472   5.478   5.846   0.135  0.0898  0.3951 -0.2239
17686TIP3    H174473   5.391   5.828   0.171 -0.5096  1.0475 -1.2956
17686TIP3    H274474   5.464   5.851   0.040  1.4465 -0.2835 -0.4831
17687TIP3   OH274475   1.825   6.344  10.449 -0.2168  0.4943 -0.3085
17687TIP3    H174476   1.787   6.426  10.479  0.6097  0.9024 -0.3465
17687TIP3    H274477   1.762   6.309  10.387  0.6532  2.5002 -2.4847
17688TIP3   OH274478   5.152   1.393   5.122 -0.1734  0.3018  0.1444
17688TIP3    H174479   5.207   1.361   5.050 -0.9069  0.0395 -0.3065
17688TIP3    H274480   5.180   1.341   5.198 -1.0772 -1.1881 -0.4897
17689TIP3   OH274481   0.172   4.370   4.120  0.0141  0.3154  0.0821
17689TIP3    H174482   0.214   4.454   4.134  1.7633 -0.4639 -0.1506
17689TIP3    H274483   0.243   4.313   4.089 -1.4468 -0.8019 -1.4075
17690TIP3   OH274484   0.918   0.446  15.402 -0.2756 -0.1925 -0.2837
17690TIP3    H174485   0.933   0.539  15.417 -0.8358  0.0529 -1.1499
17690TIP3    H274486   0.998   0.403  15.434 -0.2282  0.5257  0.5985
17691TIP3   OH274487   1.626   6.294   1.213  0.2002  0.0435 -0.2997
17691TIP3    H174488   1.614   6.252   1.128 -2.6429  0.3888 -0.1505
17691TIP3    H274489   1.582   6.236   1.275  1.3767  0.2987  0.8315
17692TIP3   OH274490   2.588   4.525   5.149  0.4042 -0.3803  0.1424
17692TIP3    H174491   2.494   4.536   5.163  0.4361  0.9714 -0.5687
17692TIP3    H274492   2.599   4.533   5.054  1.6312  3.0904  0.4397
17693TIP3   OH274493   0.463   2.362   4.009 -0.4282  0.0406  0.4513
17693TIP3    H174494   0.452   2.307   4.087  1.9284  0.7874  1.3903
17693TIP3    H274495   0.504   2.304   3.945  0.2696  0.1803  0.7685
17694TIP3   OH274496   2.165   5.429   1.065 -0.0544  0.0641 -0.2641
17694TIP3    H174497   2.074   5.456   1.051 -0.3741 -0.9956 -0.2868
17694TIP3    H274498   2.177   5.354   1.007  0.2695 -0.9627  1.0987
17695TIP3   OH274499   5.955   1.766  11.395  0.5527 -0.1653 -0.4064
17695TIP3    H174500   6.040   1.723  11.396 -0.7214 -2.9059  0.3237
17695TIP3    H274501   5.900   1.710  11.339 -1.2315  0.4784  0.6115
17696TIP3   OH274502   1.834   1.899   1.563  0.6902  0.3991  0.2870
17696TIP3    H174503   1.887   1.830   1.603  1.5393  1.0362  0.2954
17696TIP3    H274504   1.881   1.922   1.483  0.2923  0.8105  0.1646
17697TIP3   OH274505   5.915   5.274  13.692  0.0640  0.2789  0.0097
17697TIP3    H174506   5.829   5.239  13.669  0.7090 -1.5251  0.1790
17697TIP3    H274507   5.966   5.268  13.611  0.0966  1.2499 -0.0638
17698TIP3   OH274508   2.167   0.085  16.810 -0.3013  0.1900  0.0201
17698TIP3    H174509   2.261   0.100  16.819 -0.2672  1.1295 -1.5335
17698TIP3    H274510   2.127   0.149  16.869  0.0306  0.2216  0.2108
17699TIP3   OH274511   0.852   5.445   1.928 -0.0722  0.4115  0.0489
17699TIP3    H174512   0.845   5.540   1.921 -2.2454  0.3824  0.8407
17699TIP3    H274513   0.856   5.428   2.022 -1.4058 -0.2951  0.0138
17700TIP3   OH274514   6.492   3.323   4.287  0.1118 -0.0691  0.0543
17700TIP3    H174515   6.502   3.315   4.382  0.2299  1.9768  0.2551
17700TIP3    H274516   6.403   3.357   4.274  0.2097 -0.0203 -0.5405
17701TIP3   OH274517   4.664   5.632  11.262 -0.1227  0.2121 -0.7645
17701TIP3    H174518   4.675   5.539  11.241 -2.3209 -0.0730 -0.8536
17701TIP3    H274519   4.734   5.675  11.214  0.7838 -1.3618 -0.9497
17702TIP3   OH274520   5.525   2.520  11.988 -0.1773  0.1493  0.6595
17702TIP3    H174521   5.442   2.554  11.956  0.6021  1.4612 -0.0708
17702TIP3    H274522   5.526   2.429  11.959 -1.4700  0.0327  0.9315
17703TIP3   OH274523   5.481   3.317   2.602 -0.0154 -0.4955  0.0004
17703TIP3    H174524   5.542   3.269   2.658  1.5990 -1.3159 -2.2896
17703TIP3    H274525   5.425   3.365   2.663  4.7278  2.7324  2.4296
17704TIP3   OH274526   2.595   5.478  10.496  0.0894 -0.4855  0.6223
17704TIP3    H174527   2.678   5.451  10.534  0.1725 -0.7486  0.2601
17704TIP3    H274528   2.530   5.459  10.563  0.0755 -2.1132  0.1821
17705TIP3   OH274529   0.289   2.399   0.590 -0.4435 -0.2541  0.0985
17705TIP3    H174530   0.372   2.443   0.574  0.8491 -3.0711 -1.6435
17705TIP3    H274531   0.227   2.443   0.531  1.0745 -1.3257 -2.4885
17706TIP3   OH274532   1.557   4.476   3.864 -0.2264  0.0960  0.3808
17706TIP3    H174533   1.472   4.458   3.823 -0.9831  2.0118  1.0062
17706TIP3    H274534   1.546   4.560   3.907  2.0202  0.4164  0.4673
17707TIP3   OH274535   6.688   3.922  14.534  0.0685 -0.2343  0.0095
17707TIP3    H174536   6.691   3.931  14.629 -0.1016 -1.3288  0.1338
17707TIP3    H274537   6.761   3.863  14.513  1.7420  1.9730 -0.8408
17708TIP3   OH274538   6.625   0.186   5.512  0.2411 -1.0873  0.0277
17708TIP3    H174539   6.590   0.162   5.426  0.2821 -1.4081  0.0980
17708TIP3    H274540   6.625   0.282   5.512  0.9543 -1.0789 -0.6239
17709TIP3   OH274541   4.591   5.829   1.283  0.0451  0.3314 -0.1942
17709TIP3    H174542   4.619   5.874   1.363 -0.1937 -1.3450  0.8934
17709TIP3    H274543   4.504   5.794   1.305 -0.3121  0.4196 -1.4269
17710TIP3   OH274544   0.466   5.567  15.810 -0.0096 -0.1476 -0.1620
17710TIP3    H174545   0.431   5.529  15.891  0.3255  0.4532  0.2748
17710TIP3    H274546   0.480   5.492  15.752 -0.5345 -0.5535  0.2279
17711TIP3   OH274547   3.788   2.008  12.276 -0.8486 -0.0438 -0.7274
17711TIP3    H174548   3.877   2.005  12.240 -0.4797 -0.4767  0.1885
17711TIP3    H274549   3.735   1.961  12.212 -0.1595 -1.0318 -0.6009
17712TIP3   OH274550   0.771   5.975   2.840 -0.4053  0.1889  0.1203
17712TIP3    H174551   0.753   5.933   2.924 -0.7839 -1.2446 -0.6428
17712TIP3    H274552   0.818   6.055   2.863 -1.7605  0.5701  1.7685
17713TIP3   OH274553   3.293   2.518  12.675  0.0479  0.0358 -0.1449
17713TIP3    H174554   3.326   2.595  12.720  2.8233 -1.2709  0.2833
17713TIP3    H274555   3.198   2.527  12.677  0.1511  1.6840  3.0082
17714TIP3   OH274556   2.702   2.411   6.873  0.0484  0.0049 -0.4640
17714TIP3    H174557   2.788   2.393   6.910  0.0674  0.2680 -0.3771
17714TIP3    H274558   2.715   2.404   6.778  0.2442  0.3581 -0.4694
17715TIP3   OH274559   6.216   0.998  12.576 -0.0811 -0.1363 -0.0858
17715TIP3    H174560   6.186   0.924  12.523 -0.4151  0.3293 -0.5537
17715TIP3    H274561   6.195   1.075  12.524  1.8598  0.2348 -0.4062
17716TIP3   OH274562   1.170   1.753  14.313 -0.5384 -0.1338  0.0610
17716TIP3    H174563   1.131   1.667  14.329 -1.4180  0.2063 -0.1921
17716TIP3    H274564   1.230   1.739  14.239 -1.5484 -0.3066 -0.7487
17717TIP3   OH274565   3.495   4.422  15.558  0.3170  0.8299 -0.0274
17717TIP3    H174566   3.409   4.459  15.577 -0.0798 -0.3874  0.6314
17717TIP3    H274567   3.530   4.398  15.644  0.2875 -0.8745 -0.4593
17718TIP3   OH274568   1.041   2.425  16.094 -0.0103 -0.0710 -0.0814
17718TIP3    H174569   1.112   2.438  16.031 -1.0787  1.1919 -1.1001
17718TIP3    H274570   0.989   2.354  16.057  0.0287 -0.1375 -0.0062
17719TIP3   OH274571   1.907   1.193   2.333 -0.2209  0.5419  0.4737
17719TIP3    H174572   1.904   1.203   2.237 -2.3853  2.3508  0.6590
17719TIP3    H274573   1.952   1.272   2.363 -0.5058  0.5081  0.9882
17720TIP3   OH274574   5.417   3.311  12.331 -0.0292  0.1122 -0.4775
17720TIP3    H174575   5.500   3.264  12.321  0.9674  1.8526 -0.6381
17720TIP3    H274576   5.408   3.323  12.425 -0.7956 -1.2380 -0.3580
17721TIP3   OH274577   5.542   3.876   1.119 -0.2079  0.0023 -0.3718
17721TIP3    H174578   5.487   3.954   1.111 -1.1396 -0.2078  2.7526
17721TIP3    H274579   5.627   3.909   1.148  0.3904  0.0351 -2.0275
17722TIP3   OH274580   6.095   3.138  14.892 -0.0328 -0.3976  0.4009
17722TIP3    H174581   6.125   3.057  14.933 -0.0826  0.0441  1.3184
17722TIP3    H274582   6.024   3.169  14.948 -0.3840 -0.0012 -0.2502
17723TIP3   OH274583   6.784   0.396   4.051 -0.3108 -0.1592 -0.0092
17723TIP3    H174584   6.855   0.421   4.110 -1.4062  2.4158  0.3228
17723TIP3    H274585   6.734   0.331   4.100  0.3834 -0.1307  0.7599
17724TIP3   OH274586   4.733   0.240  14.447  0.1023  0.0997  0.2182
17724TIP3    H174587   4.768   0.326  14.421  1.6320 -0.3437  0.7732
17724TIP3    H274588   4.774   0.178  14.386 -1.0966 -0.2554 -0.2652
17725TIP3   OH274589   5.496   1.611   3.998 -0.3299  0.1435  0.2444
17725TIP3    H174590   5.567   1.556   3.966  0.6898  0.1825  2.3010
17725TIP3    H274591   5.442   1.627   3.921  0.8964 -1.3708 -1.0009
17726TIP3   OH274592   2.211   0.304   3.516 -0.3288  0.3891  0.0803
17726TIP3    H174593   2.184   0.363   3.445  0.2130 -2.4437 -2.7213
17726TIP3    H274594   2.303   0.325   3.531 -0.2054  0.4590 -0.7160
17727TIP3   OH274595   2.751   3.348  14.172 -0.5258 -0.5475 -0.8135
17727TIP3    H174596   2.721   3.300  14.249  1.2117  0.7285  0.7579
17727TIP3    H274597   2.800   3.422  14.207  0.4203  0.0510 -3.1682
17728TIP3   OH274598   6.232   6.063   6.366 -0.2141  0.0965 -0.3032
17728TIP3    H174599   6.282   6.101   6.438 -1.6835  0.9899  0.2659
17728TIP3    H274600   6.203   6.138   6.315 -2.6447 -0.2287  0.5031
17729TIP3   OH274601   6.390   3.212  13.817 -0.2498 -0.1263 -0.4152
17729TIP3    H174602   6.303   3.174  13.806 -0.2771 -0.5398  1.0586
17729TIP3    H274603   6.381   3.272  13.891  0.9009 -0.8070  0.3169
17730TIP3   OH274604   2.711   3.069   1.727 -0.4275 -0.6701 -0.2017
17730TIP3    H174605   2.744   3.100   1.811 -0.8579 -2.7124  0.7859
17730TIP3    H274606   2.616   3.070   1.737 -0.4604 -1.7368 -0.3358
17731TIP3   OH274607   2.328   3.311   4.662  0.6383  0.3326  0.1935
17731TIP3    H174608   2.335   3.324   4.756 -2.6262 -1.6767  0.8743
17731TIP3    H274609   2.266   3.378   4.633  1.2335  0.6164 -0.4360
17732TIP3   OH274610   6.414   6.040   2.045  0.0307  0.2746 -0.5568
17732TIP3    H174611   6.331   5.994   2.042  0.2834 -0.3917  1.3157
17732TIP3    H274612   6.393   6.130   2.020 -1.2809  0.1456  0.0102
17733TIP3   OH274613   1.336   6.262  12.881  0.2274  0.2077  0.2649
17733TIP3    H174614   1.299   6.227  12.962 -1.5385  1.8942  0.2471
17733TIP3    H274615   1.402   6.197  12.855  0.5715 -0.5709  2.8103
17734TIP3   OH274616   2.813   4.375   5.255 -0.1520  0.4630 -0.0246
17734TIP3    H174617   2.748   4.434   5.218  0.0257  0.5249 -0.2448
17734TIP3    H274618   2.881   4.433   5.290 -0.4124  0.4074  0.5726
17735TIP3   OH274619   4.359   4.664  14.975 -0.2297 -0.3333 -0.0048
17735TIP3    H174620   4.397   4.584  15.012  0.5034 -0.1794 -0.4041
17735TIP3    H274621   4.270   4.668  15.011  0.7994  0.4144  2.7245
17736TIP3   OH274622   5.933   6.400   1.238  0.0599 -0.7216 -0.3374
17736TIP3    H174623   5.882   6.474   1.206  1.8495  0.2123 -1.2064
17736TIP3    H274624   5.925   6.405   1.334  1.0708  1.3755 -0.2888
17737TIP3   OH274625   0.451   6.375  14.768 -0.2821 -0.5033 -0.4132
17737TIP3    H174626   0.370   6.360  14.719  0.3508  2.3160 -2.5928
17737TIP3    H274627   0.458   6.471  14.773  0.2617 -0.5544  4.4419
17738TIP3   OH274628   1.356   4.944   4.022  0.1564 -0.0755  0.8814
17738TIP3    H174629   1.436   4.989   4.049  1.4465 -0.4611 -1.9366
17738TIP3    H274630   1.356   4.949   3.926 -3.8252  0.9341  0.7319
17739TIP3   OH274631   0.891   3.117   0.472  0.4401  0.1491  0.3498
17739TIP3    H174632   0.934   3.193   0.433  0.5546  0.0005  0.1837
17739TIP3    H274633   0.906   3.127   0.566  0.6053  0.2431  0.3149
17740TIP3   OH274634   1.797   0.291  12.550  0.5579  0.5633  0.1903
17740TIP3    H174635   1.871   0.278  12.491  0.3920  0.6513 -0.0346
17740TIP3    H274636   1.754   0.206  12.554 -0.2681  0.9059 -0.9365
17741TIP3   OH274637   3.220   6.248  12.854 -0.1184 -0.4594 -0.1910
17741TIP3    H174638   3.196   6.155  12.852  1.2826 -0.8677  0.6664
17741TIP3    H274639   3.178   6.285  12.776 -0.7788 -1.7866 -0.4957
17742TIP3   OH274640   5.475   2.135  11.801 -0.0361  0.2208  0.0512
17742TIP3    H174641   5.519   2.169  11.878 -1.4027  0.7680  0.6326
17742TIP3    H274642   5.525   2.057  11.776  0.6335  0.2403  1.2716
17743TIP3   OH274643   0.039   4.336   4.354  0.0380  0.1203  0.3243
17743TIP3    H174644   0.083   4.357   4.272 -0.8295 -1.7863 -0.6913
17743TIP3    H274645  -0.053   4.356   4.338 -0.0850  0.1165  0.9813
17744TIP3   OH274646   6.745   2.867  12.121 -0.2451  0.5252  0.2113
17744TIP3    H174647   6.659   2.885  12.158 -1.2902  0.4015 -1.9881
17744TIP3    H274648   6.748   2.772  12.112 -0.8943  0.6386 -1.8090
17745TIP3   OH274649   5.422   6.555   4.929  0.1520 -0.2732 -0.3026
17745TIP3    H174650   5.460   6.635   4.892 -0.7313  0.9816  1.3589
17745TIP3    H274651   5.371   6.518   4.857 -1.3263  1.9502 -0.5069
17746TIP3   OH274652   1.696   3.091   2.496 -0.1551  0.5058 -0.4306
17746TIP3    H174653   1.755   3.071   2.423 -0.1511 -2.0153  0.1539
17746TIP3    H274654   1.610   3.096   2.456  0.2491  3.0608 -1.1214
17747TIP3   OH274655   3.364   1.113  11.272 -0.4377 -0.4689 -0.1131
17747TIP3    H174656   3.353   1.132  11.179  0.1781  0.8062  0.0463
17747TIP3    H274657   3.335   1.023  11.282 -0.4266 -0.6564 -1.5583
17748TIP3   OH274658   2.423   4.741   2.339  0.0568  0.2539  0.4431
17748TIP3    H174659   2.343   4.741   2.285  1.0143  0.1054 -1.0269
17748TIP3    H274660   2.391   4.756   2.428 -1.4100  3.0705 -0.4209
17749TIP3   OH274661   0.628   3.906   2.375 -0.2263 -0.1686  0.1704
17749TIP3    H174662   0.614   3.987   2.424 -0.9427 -0.9537  1.3096
17749TIP3    H274663   0.683   3.932   2.301 -0.4761  1.3609  0.4846
17750TIP3   OH274664   0.553   6.064  12.368 -0.2057  0.2481 -0.0900
17750TIP3    H174665   0.642   6.045  12.397 -0.5613  0.4333  1.1864
17750TIP3    H274666   0.516   5.978  12.347 -1.0420 -0.4099  3.3960
17751TIP3   OH274667   1.472   2.919  16.294 -0.1846 -0.0352 -0.1014
17751TIP3    H174668   1.450   2.964  16.376  0.9836 -0.7482  0.6403
17751TIP3    H274669   1.508   2.987  16.238 -0.1962  0.3082  0.2986
17752TIP3   OH274670   5.904   3.969   2.699  0.3170 -0.0561  0.6119
17752TIP3    H174671   5.894   3.982   2.794 -0.9535 -0.9425  0.6277
17752TIP3    H274672   5.992   4.001   2.680  0.6110  0.1216  2.0969
17753TIP3   OH274673   6.560   1.822   0.433  0.0525  0.3436 -0.5526
17753TIP3    H174674   6.507   1.859   0.505  0.1962  0.2455 -0.3960
17753TIP3    H274675   6.597   1.899   0.390  1.8824  0.3601  0.9253
17754TIP3   OH274676   2.323   4.221  13.764  0.0998  0.1184  0.3114
17754TIP3    H174677   2.348   4.130  13.747  0.6200 -0.3492  3.1406
17754TIP3    H274678   2.232   4.226  13.735  0.5152 -0.8350 -1.3035
17755TIP3   OH274679   5.909   2.364   4.290 -0.1678  0.0456 -0.2538
17755TIP3    H174680   5.979   2.299   4.288  1.2454  1.4814  0.6151
17755TIP3    H274681   5.830   2.315   4.266  0.1286 -2.8586  3.6976
17756TIP3   OH274682   6.569   6.000   3.984  0.4807 -0.1857 -0.1969
17756TIP3    H174683   6.598   6.086   4.014  0.2118  0.2891 -1.2426
17756TIP3    H274684   6.623   5.981   3.907  0.1141 -0.6587 -0.3488
17757TIP3   OH274685   4.042   4.718   5.302 -0.0553  0.5861  0.3234
17757TIP3    H174686   4.039   4.642   5.360  1.0511 -0.1404 -0.5222
17757TIP3    H274687   3.987   4.694   5.228 -0.3299  0.9377  0.4091
17758TIP3   OH274688   5.470   2.261  14.496 -0.0481 -0.0122  0.1502
17758TIP3    H174689   5.469   2.330  14.562 -0.0308  0.1663 -0.0320
17758TIP3    H274690   5.378   2.237  14.485  0.0490 -0.8456  1.0563
17759TIP3   OH274691   2.243   1.223  13.257  0.5072  0.0053  0.1398
17759TIP3    H174692   2.294   1.274  13.320  0.6659  0.5505 -0.4209
17759TIP3    H274693   2.178   1.285  13.224  1.8145  0.3965 -1.8619
17760TIP3   OH274694   2.111   0.288  15.974  0.1696 -0.1494  0.1683
17760TIP3    H174695   2.087   0.196  15.977 -1.3761  0.1070 -2.1219
17760TIP3    H274696   2.031   0.335  15.996  1.1300  0.6961  2.0821
17761TIP3   OH274697   3.247   6.367   0.792  0.6437  0.2603  0.1282
17761TIP3    H174698   3.199   6.431   0.739  1.4428  0.1665 -0.7158
17761TIP3    H274699   3.310   6.328   0.732  0.9551 -0.4906  0.9315
17762TIP3   OH274700   0.227   0.245  12.958 -0.3837 -0.0456 -0.1348
17762TIP3    H174701   0.293   0.233  12.890  0.3703 -0.6555  0.6735
17762TIP3    H274702   0.152   0.282  12.912 -0.1876 -1.1709 -1.4426
17763TIP3   OH274703   2.920   4.539   4.229  0.0663  0.2149  0.1248
17763TIP3    H174704   2.858   4.603   4.194 -0.1216  0.0872  0.2232
17763TIP3    H274705   2.905   4.541   4.323 -2.4329 -2.4889 -0.0654
17764TIP3   OH274706   3.136   0.473   4.629 -0.5136 -0.5938  0.2843
17764TIP3    H174707   3.116   0.553   4.676  0.0748  0.2294 -0.8062
17764TIP3    H274708   3.154   0.408   4.697  1.0954  0.7502  1.2063
17765TIP3   OH274709   4.904   3.377   5.671  0.6359 -0.2305  0.3782
17765TIP3    H174710   4.999   3.364   5.662  0.5117 -0.0648 -1.6362
17765TIP3    H274711   4.870   3.293   5.700  1.2719 -0.6102  0.0263
17766TIP3   OH274712   4.989   5.909  12.832 -0.5160  0.1092  0.2669
17766TIP3    H174713   5.042   5.832  12.810 -0.1278 -0.4507  2.8430
17766TIP3    H274714   5.052   5.977  12.854 -0.8051 -0.1503  2.0384
17767TIP3   OH274715   0.787   5.342   2.192 -0.2998  0.1547  0.0938
17767TIP3    H174716   0.706   5.356   2.239 -0.9706  0.3438 -1.0671
17767TIP3    H274717   0.782   5.251   2.162  0.5185 -0.2367  1.1147
17768TIP3   OH274718   5.959   1.097  13.839 -0.3476 -0.8734  0.0992
17768TIP3    H174719   5.902   1.021  13.844  0.5442 -1.9367 -3.2408
17768TIP3    H274720   5.900   1.170  13.816 -0.7766 -1.3318 -0.2824
17769TIP3   OH274721   4.105   3.593   4.724  0.2005 -0.1439  0.3120
17769TIP3    H174722   4.033   3.544   4.763  0.8756 -0.0911  1.7017
17769TIP3    H274723   4.063   3.665   4.677 -0.7161 -1.0851 -0.3466
17770TIP3   OH274724   4.205   3.002  12.879  0.0452 -0.5756  0.4294
17770TIP3    H174725   4.127   2.953  12.854 -0.9823  1.1041  0.1859
17770TIP3    H274726   4.260   3.002  12.800 -0.1230 -0.9732  0.3115
17771TIP3   OH274727   5.720   3.333  14.815 -0.0876 -0.0783 -0.3219
17771TIP3    H174728   5.640   3.284  14.795 -1.6851  1.1821  2.4476
17771TIP3    H274729   5.786   3.296  14.755 -2.1547 -2.6969 -1.2039
17772TIP3   OH274730   1.981   0.005  13.310 -0.0222 -0.3689  0.2974
17772TIP3    H174731   1.982   0.100  13.298  1.1961 -0.1057  2.0615
17772TIP3    H274732   1.966  -0.030  13.222  0.2588  1.4416 -0.5235
17773TIP3   OH274733   1.811   5.611  14.782  0.4035  0.1178 -0.3360
17773TIP3    H174734   1.761   5.554  14.840  1.4924 -0.9406 -0.4056
17773TIP3    H274735   1.745   5.668  14.743 -0.5370 -0.1429  0.7989
17774TIP3   OH274736   0.476   4.934  10.689 -0.1824 -0.5029 -0.0598
17774TIP3    H174737   0.487   4.852  10.642  2.5099 -0.0212 -0.4583
17774TIP3    H274738   0.404   4.979  10.645 -1.6920 -2.5953  0.1637
17775TIP3   OH274739   0.897   0.983   2.159 -0.0543 -0.5177 -0.3406
17775TIP3    H174740   0.853   1.049   2.105  2.1231  1.8932  0.5765
17775TIP3    H274741   0.855   0.991   2.245 -0.1323 -0.6861 -0.3639
17776TIP3   OH274742   4.541   2.199   0.050 -0.2459  0.1797  0.4794
17776TIP3    H174743   4.460   2.152   0.069 -0.8604  1.0086 -0.0077
17776TIP3    H274744   4.595   2.187   0.128 -1.0570  0.0717  1.0328
17777TIP3   OH274745   2.412   4.854   5.757 -0.2352 -0.0857  0.5469
17777TIP3    H174746   2.448   4.936   5.790  0.2967 -0.3177  0.5453
17777TIP3    H274747   2.318   4.859   5.776 -0.2087  0.5385  0.5105
17778TIP3   OH274748   3.007   1.717  16.027 -0.3815  0.2894  0.3222
17778TIP3    H174749   3.019   1.683  16.116 -2.4148  1.1633  1.0121
17778TIP3    H274750   3.096   1.732  15.995  0.4216  0.3910  2.3984
17779TIP3   OH274751   4.887   1.373  12.612 -0.1297 -0.1327  0.0903
17779TIP3    H174752   4.805   1.337  12.578  0.2791  0.2933 -1.4581
17779TIP3    H274753   4.909   1.317  12.686 -2.3507  0.3879  1.2675
17780TIP3   OH274754   3.179   3.255   4.447  0.3442  0.7383 -0.0285
17780TIP3    H174755   3.271   3.267   4.425  0.6027 -0.5450  0.2383
17780TIP3    H274756   3.144   3.343   4.455  1.6792  1.2455  0.4023
17781TIP3   OH274757   5.985   2.463  14.705  0.4164 -0.4709  0.1034
17781TIP3    H174758   6.061   2.493  14.654 -0.0486 -1.5526 -1.2886
17781TIP3    H274759   6.016   2.384  14.749  0.8144  0.4604  1.5375
17782TIP3   OH274760   6.781   3.322   4.744 -0.4427 -0.3495  0.6635
17782TIP3    H174761   6.759   3.399   4.693 -0.2581 -0.5496  0.2797
17782TIP3    H274762   6.699   3.296   4.785 -0.7296 -0.5764 -0.0568
17783TIP3   OH274763   4.766   1.586   0.695 -0.3973 -0.6781 -0.6078
17783TIP3    H174764   4.708   1.555   0.625 -0.2119 -0.3828 -0.8977
17783TIP3    H274765   4.719   1.658   0.736 -0.0811 -0.1854 -1.0936
17784TIP3   OH274766   2.803   2.169   5.761 -0.1669  0.0201  0.5310
17784TIP3    H174767   2.897   2.171   5.740 -0.7348 -2.0315 -3.0437
17784TIP3    H274768   2.793   2.095   5.821  0.3552 -0.6574 -0.1999
17785TIP3   OH274769   2.387   5.130   0.201 -0.4740 -0.3330 -0.2035
17785TIP3    H174770   2.461   5.186   0.179 -1.2889  0.9531  0.2526
17785TIP3    H274771   2.427   5.049   0.232  0.7215 -0.1308 -1.1234
17786TIP3   OH274772   3.353   1.310  15.692  0.1559 -0.2843 -0.4396
17786TIP3    H174773   3.414   1.265  15.633 -0.7683 -0.7712 -1.0549
17786TIP3    H274774   3.407   1.372  15.740  1.2922 -1.3692 -0.2828
17787TIP3   OH274775   5.961   6.094  16.320  0.0156  0.1301 -0.6306
17787TIP3    H174776   5.867   6.082  16.330  0.2115 -0.5862  0.5405
17787TIP3    H274777   5.984   6.160  16.386  0.1851  1.1255 -1.6516
17788TIP3   OH274778   1.819   6.465   0.396  0.3745 -0.4241 -0.3049
17788TIP3    H174779   1.848   6.376   0.377  1.1781 -0.1574 -0.4020
17788TIP3    H274780   1.861   6.519   0.328  1.1387  0.2087  0.6274
17789TIP3   OH274781   4.665   4.136   2.348 -0.2385  0.2899  0.2797
17789TIP3    H174782   4.666   4.068   2.281  0.7607 -0.4933  1.0519
17789TIP3    H274783   4.578   4.175   2.342  0.1986  1.0655 -2.2815
17790TIP3   OH274784   4.081   4.241   4.662 -0.4802 -0.0485 -0.4885
17790TIP3    H174785   4.037   4.251   4.578 -1.5998 -0.4353  0.0303
17790TIP3    H274786   4.040   4.164   4.701  1.0837 -0.7926 -0.2298
17791TIP3   OH274787   2.088   5.941  15.122 -0.1941 -0.1315  0.0729
17791TIP3    H174788   2.084   6.016  15.064 -0.9171  0.4649  0.8711
17791TIP3    H274789   2.110   5.978  15.208 -1.0234 -0.7693  0.5755
17792TIP3   OH274790   1.854   6.452   2.738  0.2837 -0.6141  0.7160
17792TIP3    H174791   1.763   6.443   2.764  0.2003 -3.6023 -0.2051
17792TIP3    H274792   1.876   6.543   2.756 -2.7206  0.0656  1.4049
17793TIP3   OH274793   2.918   0.162   2.068 -0.1260  0.2245 -0.2532
17793TIP3    H174794   2.844   0.214   2.038 -0.2089  1.0470  1.2966
17793TIP3    H274795   2.921   0.175   2.163  1.7536 -0.1145 -0.2158
17794TIP3   OH274796   5.537   5.532   1.053 -0.7664 -0.3253 -0.3744
17794TIP3    H174797   5.476   5.581   0.998 -1.4129 -1.6604 -0.8810
17794TIP3    H274798   5.486   5.510   1.131  0.4991  2.6626  1.4967
17795TIP3   OH274799   6.428   5.648   1.807  0.1345  0.0290  0.7726
17795TIP3    H174800   6.448   5.554   1.806  1.2763  0.2497 -0.7025
17795TIP3    H274801   6.455   5.677   1.894 -2.0244 -1.3216  1.9851
17796TIP3   OH274802   2.585   2.854  14.491 -0.5788 -0.2852  0.3530
17796TIP3    H174803   2.562   2.933  14.442  1.2846 -0.0028 -0.1397
17796TIP3    H274804   2.643   2.884  14.561 -0.2818 -1.1388  0.4914
17797TIP3   OH274805   5.556   0.200  12.730  0.1379  0.3711  0.0305
17797TIP3    H174806   5.481   0.183  12.787 -0.5145  0.1390 -0.8857
17797TIP3    H274807   5.625   0.143  12.764 -0.3975 -0.1271  0.2920
17798TIP3   OH274808   3.018   0.094  16.828  0.5922 -0.5548  0.1176
17798TIP3    H174809   2.997   0.055  16.912  0.1019  1.2046  0.8517
17798TIP3    H274810   2.973   0.178  16.828 -0.3192 -0.9438 -2.3566
17799TIP3   OH274811   2.860   3.705   4.356 -0.3302  0.4126 -0.1213
17799TIP3    H174812   2.779   3.699   4.407  0.2886  1.0942  0.9929
17799TIP3    H274813   2.873   3.798   4.341 -0.0785  0.2666 -0.8598
17800TIP3   OH274814   5.538   3.298   0.434 -0.1154 -0.0034 -0.4981
17800TIP3    H174815   5.455   3.345   0.438  0.5476  1.1536 -0.1221
17800TIP3    H274816   5.571   3.300   0.524  0.2846 -0.5441 -0.6246
17801TIP3   OH274817   3.915   2.353   0.959 -0.3682 -0.4829 -0.0620
17801TIP3    H174818   3.885   2.279   1.010  0.0117 -1.5720 -1.3590
17801TIP3    H274819   3.838   2.410   0.951 -1.8409 -2.5803 -2.2064
17802TIP3   OH274820   3.837   5.419   0.067  0.2104 -0.4518  0.2103
17802TIP3    H174821   3.770   5.375   0.120 -2.1674 -0.6531 -2.6396
17802TIP3    H274822   3.869   5.350   0.008  1.2112  0.2098 -0.0375
17803TIP3   OH274823   6.188   1.244   2.010 -0.0214 -0.2643 -0.1681
17803TIP3    H174824   6.247   1.292   1.952 -0.4736 -0.2209 -0.5949
17803TIP3    H274825   6.156   1.310   2.072  1.3151 -0.5249  0.8472
17804TIP3   OH274826   2.544   1.697  14.670  0.2478 -0.0237 -0.2145
17804TIP3    H174827   2.624   1.654  14.700  1.4248  0.0730 -2.9488
17804TIP3    H274828   2.488   1.626  14.640  0.0235  0.0242  0.0862
17805TIP3   OH274829   5.916   0.402   1.721 -0.1793  0.3425  0.1188
17805TIP3    H174830   5.838   0.380   1.671 -0.2700  2.3388 -0.7214
17805TIP3    H274831   5.926   0.330   1.784 -1.2597 -1.1813 -1.3705
17806TIP3   OH274832   3.527   0.226  11.828 -0.0021  0.0210 -0.3954
17806TIP3    H174833   3.442   0.232  11.872 -0.9611 -1.3106 -1.9516
17806TIP3    H274834   3.523   0.292  11.759  0.2108 -0.0613 -0.4862
17807TIP3   OH274835   3.424   0.263  13.178 -0.0873  0.3353  0.3395
17807TIP3    H174836   3.338   0.220  13.185 -0.4965  1.1699  0.5544
17807TIP3    H274837   3.404   0.356  13.173  0.8120  0.5359  0.2904
17808TIP3   OH274838   1.439   2.177  11.296 -0.7141 -0.3179 -0.1784
17808TIP3    H174839   1.353   2.192  11.337 -1.2131  1.6949 -1.8048
17808TIP3    H274840   1.420   2.169  11.203  0.7379 -1.6165 -0.4159
17809TIP3   OH274841   4.362   1.020  12.195 -0.0310  0.0911  0.2663
17809TIP3    H174842   4.272   1.019  12.230 -0.0591 -0.6599  0.1780
17809TIP3    H274843   4.383   0.928  12.180 -0.2514  0.3776 -2.3066
17810TIP3   OH274844   0.649   6.260   3.601 -0.0264  0.3771  0.0334
17810TIP3    H174845   0.563   6.297   3.578  0.3834  1.2701 -0.1171
17810TIP3    H274846   0.675   6.212   3.523 -0.0846  0.6923 -0.1848
17811TIP3   OH274847   5.044   3.139  15.803  0.2835 -0.1272  0.4263
17811TIP3    H174848   5.083   3.218  15.841  0.1011 -1.1735  3.0471
17811TIP3    H274849   5.009   3.168  15.719  0.7800  2.4166  0.9865
17812TIP3   OH274850   5.360   3.505  14.935  0.6824  0.2658  0.0547
17812TIP3    H174851   5.358   3.544  14.848  1.4515 -2.5214 -1.3374
17812TIP3    H274852   5.451   3.512  14.962  0.6181  0.3350  0.2576
17813TIP3   OH274853   0.887   1.082  12.549  0.2288 -0.2626  0.6360
17813TIP3    H174854   0.887   1.136  12.470  2.8701  2.4221  2.2867
17813TIP3    H274855   0.811   1.111  12.598  1.0708  1.3926  1.0457
17814TIP3   OH274856   4.532   1.934  16.130 -0.5719  0.0757 -0.1452
17814TIP3    H174857   4.545   2.028  16.120 -0.0632  0.4649  3.0286
17814TIP3    H274858   4.616   1.895  16.106  0.0870  0.7270  1.0097
17815TIP3   OH274859   0.942   1.516  12.079 -0.7464  0.0176 -0.3923
17815TIP3    H174860   0.944   1.477  11.991 -0.2299  1.2840 -0.9662
17815TIP3    H274861   0.868   1.577  12.077  0.3262  1.3617 -0.5578
17816TIP3   OH274862   6.720   0.887  15.101 -0.0694  0.2304  0.1158
17816TIP3    H174863   6.791   0.947  15.076  0.1716 -0.8091 -1.8883
17816TIP3    H274864   6.640   0.937  15.085  0.1412  0.2245 -1.0095
17817TIP3   OH274865   1.407   3.632  15.388  0.6270 -0.2174 -0.7789
17817TIP3    H174866   1.434   3.717  15.352  1.0808 -0.0513 -0.0820
17817TIP3    H274867   1.313   3.630  15.376  0.3077  1.2986  1.0036
17818TIP3   OH274868   3.160   0.637   2.962 -0.0126 -0.2562  0.4314
17818TIP3    H174869   3.194   0.706   3.019 -1.3483 -0.3007  1.3448
17818TIP3    H274870   3.210   0.559   2.987  1.8061  0.3964 -0.9052
17819TIP3   OH274871   5.491   2.047  14.793  0.3016 -0.1060  0.4225
17819TIP3    H174872   5.566   2.067  14.736 -0.7352  0.6744 -0.7094
17819TIP3    H274873   5.418   2.035  14.733 -0.2566 -2.1365  1.4098
17820TIP3   OH274874   1.601   6.307   5.680  0.4022  0.1139 -0.4053
17820TIP3    H174875   1.539   6.375   5.654  0.4616  0.2544 -0.1818
17820TIP3    H274876   1.653   6.291   5.601  0.7619  0.7342 -0.2998
17821TIP3   OH274877   4.306   1.742   0.726 -0.0734  0.1427 -0.0953
17821TIP3    H174878   4.298   1.646   0.730 -1.8851  0.2774  0.5283
17821TIP3    H274879   4.400   1.758   0.735  0.3982 -1.6020 -1.2322
17822TIP3   OH274880   6.426   4.365  14.821 -0.3844 -0.9709  0.3937
17822TIP3    H174881   6.416   4.444  14.874  1.9118 -0.5015  0.2256
17822TIP3    H274882   6.404   4.393  14.732  0.6878 -0.4100  0.2862
17823TIP3   OH274883   5.225   3.874   4.110 -0.2954 -0.0313  0.3694
17823TIP3    H174884   5.189   3.963   4.116 -0.2763 -0.1123  3.1086
17823TIP3    H274885   5.217   3.840   4.199  0.0893 -2.6466 -0.5290
17824TIP3   OH274886   5.998   2.275   2.770  0.4966  0.1893  0.9810
17824TIP3    H174887   5.986   2.204   2.833 -0.7826  0.0515  0.6245
17824TIP3    H274888   6.022   2.351   2.823 -0.6752  0.1065  1.6648
17825TIP3   OH274889   4.886   1.600  14.001  0.0878  0.8119  0.7848
17825TIP3    H174890   4.799   1.641  14.002 -0.4000 -0.1766  2.1051
17825TIP3    H274891   4.944   1.667  14.039 -0.2047  1.2437  0.4792
17826TIP3   OH274892   4.984   2.506  15.576 -0.1123 -1.2206 -0.2130
17826TIP3    H174893   5.034   2.506  15.494  3.3303 -0.1936  1.7083
17826TIP3    H274894   4.939   2.590  15.576  0.1765 -1.0578 -0.8994
17827TIP3   OH274895   1.389   4.902   1.688 -0.2686  0.5003 -0.5695
17827TIP3    H174896   1.396   4.942   1.775 -1.0144  0.4773 -0.4952
17827TIP3    H274897   1.307   4.854   1.690  0.3715 -0.6344 -0.8298
17828TIP3   OH274898   0.838   5.466  11.193  0.3074 -0.7614 -0.5534
17828TIP3    H174899   0.839   5.377  11.159  0.2645 -0.5840 -1.0336
17828TIP3    H274900   0.906   5.511  11.143 -0.8336 -0.0861 -1.5599
17829TIP3   OH274901   4.150   3.186   5.709  0.3612 -0.0020 -0.4077
17829TIP3    H174902   4.069   3.190   5.659 -0.7801 -0.8776  1.2506
17829TIP3    H274903   4.124   3.146   5.792  2.9212 -2.6830 -0.7160
17830TIP3   OH274904   1.617   0.288  15.033  0.4250  0.1012 -0.7198
17830TIP3    H174905   1.573   0.344  15.096 -0.0263  0.2766 -1.1883
17830TIP3    H274906   1.706   0.324  15.026  0.3262  0.3780 -0.5560
17831TIP3   OH274907   1.554   5.810   2.309 -0.0229 -0.7588  0.6322
17831TIP3    H174908   1.608   5.844   2.238 -0.9151 -0.2769  0.1698
17831TIP3    H274909   1.567   5.872   2.381 -1.0843  0.1866  0.0332
17832TIP3   OH274910   3.082   5.786   5.483  0.2306 -0.6377  0.0566
17832TIP3    H174911   3.106   5.787   5.390  0.8225  0.2465  0.2100
17832TIP3    H274912   3.164   5.798   5.530 -0.0681 -1.0649  0.7045
17833TIP3   OH274913   6.378   3.447  15.571 -0.1258 -0.1116  0.0244
17833TIP3    H174914   6.379   3.353  15.558 -1.7365 -0.0861 -0.4109
17833TIP3    H274915   6.355   3.459  15.663 -0.6171 -0.1352 -0.0950
17834TIP3   OH274916   4.502   6.584  15.730  0.2365 -0.3826  0.4388
17834TIP3    H174917   4.555   6.597  15.809  0.2220 -0.2149  0.4212
17834TIP3    H274918   4.517   6.493  15.706  2.0237  0.1706 -0.6803
17835TIP3   OH274919   1.085   1.013   1.671 -0.3255 -1.1779 -0.2294
17835TIP3    H174920   1.044   0.928   1.685 -0.5719 -1.3507 -1.7630
17835TIP3    H274921   1.090   1.052   1.758 -0.8084 -2.4819  0.4152
17836TIP3   OH274922   0.756   2.305   2.815  0.2235 -0.7365 -0.3987
17836TIP3    H174923   0.686   2.240   2.814  0.7985 -1.3728 -0.1154
17836TIP3    H274924   0.712   2.388   2.800 -0.6693 -1.0456  0.4503
17837TIP3   OH274925   1.265   4.835   3.514  0.0767  0.3557 -0.0159
17837TIP3    H174926   1.356   4.864   3.523 -0.2317  0.9825  1.2957
17837TIP3    H274927   1.213   4.914   3.528 -0.7457 -0.5098  2.2221
17838TIP3   OH274928   1.238   2.353   1.078 -0.3988 -0.1092  0.0550
17838TIP3    H174929   1.221   2.428   1.136  1.2826  1.5139 -1.4395
17838TIP3    H274930   1.331   2.336   1.088 -0.8128 -2.2855  0.6106
17839TIP3   OH274931   4.642   1.194   5.340  0.0613 -0.3268  0.2448
17839TIP3    H174932   4.603   1.276   5.311  1.3018 -0.2509 -1.3456
17839TIP3    H274933   4.728   1.191   5.296  0.6429 -1.7982  1.3885
17840TIP3   OH274934   6.101   5.352   5.274 -0.0417  0.5161  0.4772
17840TIP3    H174935   6.042   5.326   5.344 -0.5126 -2.3700 -0.8291
17840TIP3    H274936   6.189   5.332   5.307 -0.2973 -1.3522  0.1148
17841TIP3   OH274937   3.852   0.882  13.995  0.4268  0.4305  0.4618
17841TIP3    H174938   3.865   0.800  13.946 -0.4329  0.3444  0.3529
17841TIP3    H274939   3.935   0.897  14.040  0.8651 -0.0743 -0.1592
17842TIP3   OH274940   1.876   1.210  16.017 -0.1571  0.5898 -0.0415
17842TIP3    H174941   1.876   1.184  15.925  0.8145  0.2661  0.0474
17842TIP3    H274942   1.884   1.128  16.065 -1.0855  0.7195  0.3569
17843TIP3   OH274943   6.114   0.285  16.557 -0.8729  0.5325  0.1172
17843TIP3    H174944   6.098   0.377  16.577  0.5615  0.8777 -0.2206
17843TIP3    H274945   6.209   0.277  16.556 -0.9730 -1.0831  0.6994
17844TIP3   OH274946   3.180   4.225   5.794  0.1126 -0.3101 -0.1141
17844TIP3    H174947   3.215   4.232   5.706  0.3148 -2.2276 -0.2414
17844TIP3    H274948   3.179   4.131   5.812 -1.0782 -0.0504  1.4642
17845TIP3   OH274949   0.906   3.820   1.536 -0.0237  0.3035 -0.2158
17845TIP3    H174950   0.998   3.820   1.564  0.0831  1.8282 -0.4838
17845TIP3    H274951   0.879   3.912   1.542 -2.0874 -0.3331  1.5496
17846TIP3   OH274952   6.653   3.158  12.892 -0.0113  0.0014 -0.3144
17846TIP3    H174953   6.632   3.231  12.951 -1.7310 -0.1615 -0.6771
17846TIP3    H274954   6.635   3.080  12.944  2.4081 -0.2460  0.2806
17847TIP3   OH274955   4.930   6.310  15.298  0.2923 -0.5678  0.2680
17847TIP3    H174956   4.959   6.398  15.322  0.7150 -0.7774  0.5304
17847TIP3    H274957   4.970   6.294  15.212 -0.1877 -0.3126 -0.0052
17848TIP3   OH274958   1.986   6.339   2.521 -0.4541  0.3677 -0.0213
17848TIP3    H174959   1.914   6.346   2.583 -0.1125 -1.5086  0.6391
17848TIP3    H274960   1.950   6.291   2.447  0.1510 -0.8212  0.4272
17849TIP3   OH274961   6.470   5.248   4.706  0.0594  0.7104 -0.0771
17849TIP3    H174962   6.423   5.301   4.769 -1.4063  1.3726 -1.6719
17849TIP3    H274963   6.552   5.295   4.692  0.8897  0.0229  2.0248
17850TIP3   OH274964   5.184   2.358   6.130 -0.0218  0.1251 -0.0632
17850TIP3    H174965   5.096   2.359   6.168  0.5937 -0.3303  1.4532
17850TIP3    H274966   5.187   2.276   6.080 -0.1353 -0.3889  0.7446
17851TIP3   OH274967   0.614   5.527   1.691 -0.2913  0.2223 -0.1684
17851TIP3    H174968   0.524   5.528   1.658 -0.2015  0.0453 -0.4221
17851TIP3    H274969   0.643   5.618   1.684  0.1170  0.0000 -1.6783
17852TIP3   OH274970   1.040   3.394   6.200 -0.3424 -0.5625 -0.7430
17852TIP3    H174971   1.071   3.346   6.123 -0.3111  0.5416 -1.4300
17852TIP3    H274972   1.102   3.465   6.211 -0.9928 -0.0426 -0.3815
17853TIP3   OH274973   1.446   3.988  14.417 -0.4737  0.5612  0.2556
17853TIP3    H174974   1.456   3.899  14.453 -1.7502 -0.7412 -2.3541
17853TIP3    H274975   1.532   4.010  14.383 -0.4962 -0.3040 -0.3790
17854TIP3   OH274976   6.775   1.685   1.505  0.1243  0.2773 -0.3713
17854TIP3    H174977   6.737   1.772   1.493  0.7117  0.5193 -0.5236
17854TIP3    H274978   6.733   1.631   1.439 -1.2189  0.1147  0.5724
17855TIP3   OH274979   1.791   1.090   4.641  0.1007 -0.0717  0.3109
17855TIP3    H174980   1.828   1.080   4.728  0.4381  0.6518  0.2593
17855TIP3    H274981   1.733   1.166   4.648  0.0739 -0.0504 -0.0759
17856TIP3   OH274982   5.096   0.793  17.107 -0.7260  0.0746 -0.3843
17856TIP3    H174983   5.024   0.846  17.141 -1.5659 -1.7054  0.8320
17856TIP3    H274984   5.170   0.813  17.164 -0.2669  1.7788 -1.5266
17857TIP3   OH274985   0.887   5.060   1.344  0.0868 -0.3278  0.1818
17857TIP3    H174986   0.799   5.094   1.354 -0.3091 -1.5909  1.2738
17857TIP3    H274987   0.876   4.965   1.338  1.2829 -0.4277 -1.0052
17858TIP3   OH274988   3.252   2.788   3.363 -0.1643  0.1099 -0.3774
17858TIP3    H174989   3.258   2.844   3.440 -0.1845 -0.7191  0.2455
17858TIP3    H274990   3.161   2.758   3.362  0.4646 -2.1264  0.9522
17859TIP3   OH274991   3.970   4.670  11.995  0.2821 -0.0478 -0.3003
17859TIP3    H174992   4.047   4.704  11.949  0.9982  3.0532  2.6942
17859TIP3    H274993   3.896   4.712  11.952  0.5267 -0.5530 -1.2353
17860TIP3   OH274994   1.104   3.763  13.213 -0.3937  0.1679 -0.0006
17860TIP3    H174995   1.018   3.754  13.254  0.2153 -0.1723  1.2673
17860TIP3    H274996   1.165   3.726  13.278  0.6368 -0.2022 -1.1482
17861TIP3   OH274997   4.397   0.226   1.076  0.2381 -0.4523  0.6800
17861TIP3    H174998   4.349   0.147   1.102  2.3765 -1.8879  0.4641
17861TIP3    H274999   4.403   0.277   1.157 -0.4497 -0.8762  1.0132
17862TIP3   OH275000   0.551   4.882  14.089 -0.1759 -0.0571 -0.0609
17862TIP3    H175001   0.543   4.949  14.021 -0.9556  0.0603  0.1292
17862TIP3    H275002   0.525   4.927  14.169  0.4041 -0.2885  0.2627
17863TIP3   OH275003   2.704   2.537   4.585 -0.2115  0.7160 -0.0428
17863TIP3    H175004   2.772   2.605   4.583  2.0185 -1.3805 -0.4537
17863TIP3    H275005   2.751   2.456   4.566 -3.1701 -0.6525 -2.2977
17864TIP3   OH275006   4.100   4.873  14.676 -0.0595  0.3279  0.4785
17864TIP3    H175007   4.009   4.879  14.649 -0.7490  4.2713  2.8340
17864TIP3    H275008   4.150   4.897  14.597 -1.1303 -0.2968 -0.4166
17865TIP3   OH275009   1.802   2.631   0.310  0.1179 -0.1491  0.3229
17865TIP3    H175010   1.709   2.653   0.301  0.1617  0.3472  1.0429
17865TIP3    H275011   1.802   2.542   0.346 -0.1042  0.3983  1.7374
17866TIP3   OH275012   1.176   2.066   0.935 -0.1456  0.2140  0.2859
17866TIP3    H175013   1.157   2.157   0.912 -0.0224 -0.0490 -0.8965
17866TIP3    H275014   1.207   2.070   1.025  0.2278  1.3908  0.1159
17867TIP3   OH275015   2.507   2.973  11.265 -0.8942  0.1037  0.2134
17867TIP3    H175016   2.456   3.016  11.196 -1.2744 -0.7045 -0.0126
17867TIP3    H275017   2.572   3.039  11.291 -0.0140  0.0571 -1.6973
17868TIP3   OH275018   5.521   3.725   4.192  0.2050 -0.1541 -0.4578
17868TIP3    H175019   5.546   3.799   4.137  0.8590  0.1200  0.1868
17868TIP3    H275020   5.446   3.756   4.242 -0.4224 -0.4202 -1.2116
17869TIP3   OH275021   5.721   5.276   5.259  0.3347  0.2764 -0.5767
17869TIP3    H175022   5.740   5.299   5.350 -1.6986  0.1989 -0.0798
17869TIP3    H275023   5.738   5.356   5.210  0.2740  0.6959  0.0666
17870TIP3   OH275024   0.437   0.356   1.087  0.2782 -0.0719  0.0899
17870TIP3    H175025   0.480   0.350   1.002 -0.0558  0.2918 -0.1067
17870TIP3    H275026   0.426   0.264   1.114  1.0683 -0.1717  0.0975
17871TIP3   OH275027   6.540   4.860  11.788  0.8853 -0.7726 -0.0867
17871TIP3    H175028   6.586   4.830  11.866  1.0456  1.5257  0.7966
17871TIP3    H275029   6.605   4.853  11.718  1.5412 -0.6226  0.4872
17872TIP3   OH275030   2.542   6.025  16.030 -0.2036 -0.5859  0.9238
17872TIP3    H175031   2.604   5.964  15.991  1.2635  1.5859 -0.3650
17872TIP3    H275032   2.548   6.010  16.124  1.1193 -1.4794  0.7149
17873TIP3   OH275033   3.781   6.383  15.319  0.2489  0.1215 -0.2878
17873TIP3    H175034   3.721   6.453  15.295 -1.5519 -1.2223  0.1196
17873TIP3    H275035   3.854   6.428  15.362 -0.4333  1.8036 -0.8173
17874TIP3   OH275036   5.368   3.013  13.117 -0.4213  0.1612 -0.4209
17874TIP3    H175037   5.426   2.954  13.070 -1.8613 -1.7671  0.1143
17874TIP3    H275038   5.371   2.982  13.208  1.1542  2.8735  0.5872
17875TIP3   OH275039   3.180   0.443  17.167  0.0303  0.1505 -0.8991
17875TIP3    H175040   3.141   0.528  17.186  0.5664  0.0684  0.7693
17875TIP3    H275041   3.261   0.462  17.120  0.0950  0.5557 -0.6247
17876TIP3   OH275042   3.285   4.412   6.465  0.2735  0.1111  0.4973
17876TIP3    H175043   3.357   4.356   6.438  0.5974  0.7724 -0.0277
17876TIP3    H275044   3.218   4.351   6.496  1.1447 -0.4993  1.2382
17877TIP3   OH275045   5.110   4.808   5.537 -0.1151  0.0610  0.1818
17877TIP3    H175046   5.038   4.871   5.532  0.5065  0.9253  1.4242
17877TIP3    H275047   5.072   4.730   5.578 -0.2951  0.6360  1.1461
17878TIP3   OH275048   3.182   6.054  15.595 -0.1309  0.5049 -0.2025
17878TIP3    H175049   3.208   6.146  15.605  0.9877  0.1908 -0.1140
17878TIP3    H275050   3.182   6.040  15.500  3.8191 -0.4653 -0.2523
17879TIP3   OH275051   3.921   4.567  12.234  0.0385  0.3619  0.0693
17879TIP3    H175052   3.833   4.585  12.266 -0.6521 -1.1092 -0.9000
17879TIP3    H275053   3.922   4.604  12.146 -0.4332 -1.6393 -0.8215
17880TIP3   OH275054   0.397   3.919   3.884 -0.1480 -0.1347 -0.9993
17880TIP3    H175055   0.305   3.943   3.874  0.1380  0.9395 -1.1805
17880TIP3    H275056   0.444   4.002   3.880  0.7750 -0.5972 -0.1933
17881TIP3   OH275057   4.465   0.185  11.074  0.7760  0.4842 -0.1978
17881TIP3    H175058   4.371   0.180  11.055  0.7896  0.4163 -0.2481
17881TIP3    H275059   4.490   0.274  11.050  0.2969  1.1902  1.7272
17882TIP3   OH275060   2.676   0.340   1.003  0.5938 -0.3801 -0.0222
17882TIP3    H175061   2.768   0.317   0.989  0.3960 -1.3283  0.1307
17882TIP3    H275062   2.636   0.335   0.916  0.8145  0.6902 -0.1966
17883TIP3   OH275063   3.183   4.446   4.991 -0.9671  0.3047 -0.6705
17883TIP3    H175064   3.157   4.455   5.083 -2.0717  0.6001 -0.9964
17883TIP3    H275065   3.258   4.505   4.981 -0.6668  0.0586  0.1051
17884TIP3   OH275066   1.390   0.249   5.502 -0.3884  0.4227 -0.2933
17884TIP3    H175067   1.444   0.185   5.456 -1.4282 -1.2130  0.6559
17884TIP3    H275068   1.404   0.331   5.454  2.2727 -0.0898 -0.5301
17885TIP3   OH275069   3.909   5.210   0.396 -0.7068  0.2346 -0.3151
17885TIP3    H175070   3.904   5.162   0.479 -3.1532  0.9817  0.0796
17885TIP3    H275071   3.852   5.161   0.337 -0.1626  0.5368 -1.0986
17886TIP3   OH275072   4.641   0.458  12.659 -0.7848  0.3405 -0.4289
17886TIP3    H175073   4.643   0.449  12.754 -0.9115 -2.0895 -0.5788
17886TIP3    H275074   4.730   0.481  12.635 -0.9172  1.7345  0.2843
17887TIP3   OH275075   4.625   3.776  13.298 -0.1946 -0.0377  0.1887
17887TIP3    H175076   4.623   3.685  13.269 -1.9306  0.6036 -1.9175
17887TIP3    H275077   4.718   3.798  13.303  0.2291 -1.6965 -0.0161
17888TIP3   OH275078   4.995   4.159  15.789 -0.1172  0.0851  0.0628
17888TIP3    H175079   4.979   4.106  15.711  1.0556  0.1512 -0.2279
17888TIP3    H275080   4.980   4.099  15.862 -1.7051  0.1482 -0.1604
17889TIP3   OH275081   5.285   3.988   0.890 -0.0310 -0.0156  0.1170
17889TIP3    H175082   5.229   3.990   0.812 -1.3690  1.3421  1.0461
17889TIP3    H275083   5.249   3.918   0.944 -1.1114  1.0799  0.8668
17890TIP3   OH275084   6.668   2.920   2.171 -0.1496 -0.1467 -0.0429
17890TIP3    H175085   6.648   2.874   2.252  0.1414  0.3639  0.3292
17890TIP3    H275086   6.755   2.888   2.146  0.7189  1.2501  1.0171
17891TIP3   OH275087   4.702   6.117   0.925  0.5511  0.3596 -0.1306
17891TIP3    H175088   4.661   6.181   0.984 -0.2800  1.6048 -1.9906
17891TIP3    H275089   4.662   6.033   0.950 -0.6426  1.0365  0.3105
17892TIP3   OH275090   1.843   5.221   0.985  0.4317  0.1461  0.1484
17892TIP3    H175091   1.804   5.148   0.938  0.8896 -0.7085  1.0617
17892TIP3    H275092   1.873   5.280   0.916 -0.9751  0.0521 -0.5867
17893TIP3   OH275093   6.779   6.370  13.843  0.6497 -0.0389 -0.1748
17893TIP3    H175094   6.781   6.293  13.899 -0.4247 -1.0655 -1.4753
17893TIP3    H275095   6.688   6.398  13.842  0.9881  1.1728  0.1311
17894TIP3   OH275096   4.816   3.378   0.112  0.2573 -0.2987 -0.3881
17894TIP3    H175097   4.797   3.285   0.118  2.3942 -0.8493 -1.1904
17894TIP3    H275098   4.873   3.397   0.186 -0.9322  0.6510  0.3441
17895TIP3   OH275099   2.479   3.991  11.759  0.1087  0.4734 -0.4848
17895TIP3    H175100   2.564   4.033  11.744  0.7439 -1.2670 -2.2565
17895TIP3    H275101   2.440   4.041  11.830  2.5789  1.3882  0.3495
17896TIP3   OH275102   0.684   3.400   2.748 -0.2802  0.0733 -0.4575
17896TIP3    H175103   0.761   3.443   2.711 -1.4698  2.0992 -0.7488
17896TIP3    H275104   0.644   3.466   2.804 -1.9094 -0.8429 -0.4686
17897TIP3   OH275105   1.867   4.831  13.722 -0.4351 -0.2048 -0.0140
17897TIP3    H175106   1.862   4.756  13.782 -0.3080 -0.0820  0.1520
17897TIP3    H275107   1.961   4.851  13.717 -0.5316  0.4520  0.5814
17898TIP3   OH275108   3.689   2.412   1.986 -0.7154  0.6764 -0.5332
17898TIP3    H175109   3.657   2.464   1.912  2.1711  2.3482 -0.7406
17898TIP3    H275110   3.704   2.325   1.949 -2.5564  0.4912 -0.9846
17899TIP3   OH275111   3.150   1.933  16.200  0.4734  0.1710 -0.2804
17899TIP3    H175112   3.126   1.845  16.230  0.8632 -0.0805 -0.6860
17899TIP3    H275113   3.164   1.983  16.280  2.8890 -0.8593  0.0428
17900TIP3   OH275114   6.310   3.631   3.149 -0.2197 -0.6136  0.1661
17900TIP3    H175115   6.339   3.681   3.073 -0.1966 -0.0374  0.5463
17900TIP3    H275116   6.244   3.687   3.190  0.1861 -0.6563  0.8888
17901TIP3   OH275117   3.900   3.335   3.927 -0.0452 -0.4286  0.1937
17901TIP3    H175118   3.822   3.376   3.965 -0.3108 -0.7074 -0.0552
17901TIP3    H275119   3.912   3.379   3.843 -2.1122 -2.8855 -1.5352
17902TIP3   OH275120   2.850   4.951   2.780  0.0982  0.2508 -0.0078
17902TIP3    H175121   2.808   4.945   2.866 -1.2540 -0.1842 -0.6715
17902TIP3    H275122   2.880   4.861   2.762 -0.9047  0.0237 -0.6000
17903TIP3   OH275123   0.279   5.409   2.427 -0.5593 -0.1429 -0.1616
17903TIP3    H175124   0.252   5.412   2.519 -3.2710  0.7018 -0.8683
17903TIP3    H275125   0.290   5.501   2.402  1.4757 -0.4064 -0.3938
17904TIP3   OH275126   5.569   6.273   5.364 -0.2841  0.7056 -0.1354
17904TIP3    H175127   5.518   6.277   5.283  0.1872  0.1238 -0.4718
17904TIP3    H275128   5.566   6.362   5.399 -3.4082  0.2748  1.0607
17905TIP3   OH275129   4.414   6.052  12.032  0.2691  0.6076 -0.7227
17905TIP3    H175130   4.340   6.107  12.007  1.3370  1.5589 -1.9884
17905TIP3    H275131   4.491   6.099  11.999  1.5122 -0.0381  1.0508
17906TIP3   OH275132   2.169   4.562  13.519  0.1415 -0.1624 -0.1731
17906TIP3    H175133   2.196   4.534  13.431  0.6551 -3.9766  1.0151
17906TIP3    H275134   2.076   4.541  13.524 -0.0742  0.7918 -0.0370
17907TIP3   OH275135   5.070   1.967   4.091 -0.4752 -0.2762  0.4282
17907TIP3    H175136   4.994   2.025   4.080  0.3587  0.7990  0.1335
17907TIP3    H275137   5.114   1.969   4.006  0.3126 -0.2481  0.8304
17908TIP3   OH275138   2.208   2.919  14.548 -0.3239  0.0150  0.2687
17908TIP3    H175139   2.132   2.975  14.556  1.0132  1.6821  2.5867
17908TIP3    H275140   2.283   2.978  14.560  1.3194 -1.6926 -0.9561
17909TIP3   OH275141   1.530   5.265   5.614 -0.0059  0.0425  0.3817
17909TIP3    H175142   1.618   5.297   5.633 -0.2613  0.3795  1.0289
17909TIP3    H275143   1.528   5.255   5.519 -0.2825  3.0969 -0.0383
17910TIP3   OH275144   3.998   4.881  13.680  0.5307  0.4930 -0.4705
17910TIP3    H175145   3.939   4.806  13.684  0.4091  0.4836 -2.1172
17910TIP3    H275146   4.082   4.847  13.711  0.3300 -0.1600 -0.6412
17911TIP3   OH275147   0.217   1.300   5.242  0.3952 -0.1835 -0.2104
17911TIP3    H175148   0.146   1.325   5.184 -1.0498 -1.1005  1.0590
17911TIP3    H275149   0.194   1.212   5.271  1.1129  0.1795  1.6214
17912TIP3   OH275150   2.309   5.087  10.668  0.1857 -0.4974 -0.7130
17912TIP3    H175151   2.240   5.102  10.604  2.3854  1.8872 -2.7918
17912TIP3    H275152   2.341   4.999  10.649  0.6396  0.0642 -2.8697
17913TIP3   OH275153   5.863   5.163   1.249  0.3082 -0.3630  0.2582
17913TIP3    H175154   5.918   5.201   1.180  1.4173 -0.9827  0.7687
17913TIP3    H275155   5.777   5.201   1.234  0.4733 -0.5925 -1.5517
17914TIP3   OH275156   0.153   2.345   5.065 -0.5280 -0.1517 -0.5220
17914TIP3    H175157   0.219   2.413   5.051 -0.8187 -0.0223 -1.2520
17914TIP3    H275158   0.182   2.301   5.145  0.4868 -0.1361 -0.8666
17915TIP3   OH275159   0.382   3.622   3.548  0.2476  0.4836  0.4784
17915TIP3    H175160   0.295   3.584   3.561 -0.4840  2.2690  1.0702
17915TIP3    H275161   0.414   3.582   3.467 -1.7060  0.7927 -0.5098
17916TIP3   OH275162   3.972   2.669   5.269 -0.2931 -0.0594 -0.0163
17916TIP3    H175163   3.919   2.735   5.222  0.3858  1.1877  0.9085
17916TIP3    H275164   3.956   2.687   5.361 -1.0706 -2.0465  0.2736
17917TIP3   OH275165   2.029   0.268  13.361 -0.1665  0.2851 -0.4590
17917TIP3    H175166   2.054   0.318  13.284 -0.2760  0.4291 -0.4022
17917TIP3    H275167   2.065   0.317  13.435  0.4227 -0.1529 -0.4517
17918TIP3   OH275168   5.849   5.469   4.673  0.3446 -0.5643  0.2597
17918TIP3    H175169   5.768   5.425   4.650 -0.7272  1.2512  0.3280
17918TIP3    H275170   5.837   5.495   4.765  2.3714 -3.0598  1.3663
17919TIP3   OH275171   0.242   1.140  10.910 -0.6992  0.2077  0.0557
17919TIP3    H175172   0.294   1.182  10.842  0.6631  0.0281  0.9432
17919TIP3    H275173   0.219   1.054  10.873  1.3295 -0.5096  0.3628
17920TIP3   OH275174   2.405   4.957  15.776  0.2850 -0.8047  0.0959
17920TIP3    H175175   2.485   4.992  15.737 -0.2984  0.3530 -0.1243
17920TIP3    H275176   2.421   4.959  15.870  0.1896  0.3320  0.1078
17921TIP3   OH275177   5.044   3.497  11.448 -0.0621 -0.4678  0.7888
17921TIP3    H175178   5.048   3.429  11.381  2.2917 -0.8275  1.1887
17921TIP3    H275179   5.052   3.579  11.400 -3.7356 -0.2670  0.2194
17922TIP3   OH275180   4.481   5.047  16.553  0.1405  0.0116 -0.1369
17922TIP3    H175181   4.511   4.959  16.574 -0.7571 -0.2078  0.2610
17922TIP3    H275182   4.469   5.046  16.458 -0.1633 -0.3877 -0.0963
17923TIP3   OH275183   1.286   1.029  16.963  0.1752 -0.0291 -0.0147
17923TIP3    H175184   1.220   0.985  17.017  0.8954 -0.3518  0.6075
17923TIP3    H275185   1.294   0.974  16.885  0.7122 -0.7494  0.5381
17924TIP3   OH275186   4.496   6.541  16.048 -0.8292 -0.4350 -0.0053
17924TIP3    H175187   4.563   6.605  16.026 -0.5112 -0.5328  0.6416
17924TIP3    H275188   4.422   6.593  16.078 -0.5045 -0.3608  0.6997
17925TIP3   OH275189   4.819   5.920  16.806 -0.3055 -1.3057 -0.2163
17925TIP3    H175190   4.857   5.912  16.718  0.8666 -0.8278  0.2275
17925TIP3    H275191   4.826   6.014  16.825 -0.6243 -1.4002  0.3639
17926TIP3   OH275192   1.116   2.609  15.332 -0.5004 -0.3066 -0.8919
17926TIP3    H175193   1.163   2.537  15.375 -0.0891  0.5680  0.1737
17926TIP3    H275194   1.059   2.566  15.268  2.5470 -1.3474 -3.0995
17927TIP3   OH275195   4.462   3.042  12.332 -0.6056 -0.1475 -0.5879
17927TIP3    H175196   4.486   3.122  12.284  0.0060  0.2550  0.3547
17927TIP3    H275197   4.426   2.984  12.266  1.6142 -0.2026 -1.8525
17928TIP3   OH275198   4.027   5.267   3.179 -0.5484  0.0730 -0.2592
17928TIP3    H175199   3.992   5.308   3.100  0.7056 -0.0937 -0.9183
17928TIP3    H275200   4.042   5.176   3.153 -1.6263 -0.3898  0.6593
17929TIP3   OH275201   6.603   4.820   5.791 -0.5501  0.3044  0.7933
17929TIP3    H175202   6.554   4.817   5.709  2.3765 -0.3075 -1.1002
17929TIP3    H275203   6.580   4.739   5.836 -0.6438 -0.3900 -0.4665
17930TIP3   OH275204   4.522   3.332   1.623 -0.2477 -0.4679  0.2908
17930TIP3    H175205   4.568   3.330   1.539 -0.2693  0.0222  0.2637
17930TIP3    H275206   4.459   3.403   1.614 -1.3969 -1.4750  0.1367
17931TIP3   OH275207   1.317   2.908  12.707  0.3221  0.5023 -0.3353
17931TIP3    H175208   1.291   2.820  12.733 -2.2017  0.7662 -1.6989
17931TIP3    H275209   1.363   2.895  12.623 -0.1835  0.4927 -0.6122
17932TIP3   OH275210   1.117   5.034  12.799 -0.0629  0.2908  0.2112
17932TIP3    H175211   1.032   5.069  12.774  0.6699  1.7543 -0.3709
17932TIP3    H275212   1.127   5.059  12.891  0.5492  1.8714 -0.2627
17933TIP3   OH275213   0.656   1.000  14.112  0.0868  0.9227  0.3061
17933TIP3    H175214   0.717   1.039  14.048 -0.9878 -0.3948 -1.6315
17933TIP3    H275215   0.711   0.973  14.185  1.4725  1.8849 -0.3431
17934TIP3   OH275216   5.672   4.816   2.641  0.0989 -0.2001  0.0664
17934TIP3    H175217   5.586   4.851   2.666 -0.0284  0.1019 -0.7465
17934TIP3    H275218   5.669   4.814   2.545  0.9266 -0.3887  0.0430
17935TIP3   OH275219   4.152   3.124   4.548  0.0653  0.0897 -0.3840
17935TIP3    H175220   4.218   3.147   4.482  1.4187 -1.8832  0.1728
17935TIP3    H275221   4.095   3.062   4.504  0.8491 -1.0716  0.1946
17936TIP3   OH275222   6.726   0.855  10.677  0.2049 -0.1088 -0.3305
17936TIP3    H175223   6.643   0.882  10.717  0.9819  2.0690 -0.0467
17936TIP3    H275224   6.725   0.895  10.590  0.3202 -1.3309 -0.8987
17937TIP3   OH275225   5.054   6.254  16.165 -0.1342 -0.2426  0.8248
17937TIP3    H175226   4.981   6.201  16.197  0.3768 -0.6152  1.3781
17937TIP3    H275227   5.044   6.252  16.070 -0.9165 -0.1854  0.8945
17938TIP3   OH275228   1.535   6.080  16.987  0.1285  0.1560 -0.5173
17938TIP3    H175229   1.609   6.039  17.033 -0.9500  0.0630  1.2348
17938TIP3    H275230   1.512   6.155  17.042 -0.5594  0.6797 -1.4951
17939TIP3   OH275231   3.870   4.731  11.406  0.2580  0.3448 -0.3005
17939TIP3    H175232   3.878   4.819  11.443  0.3437 -0.3348  1.4400
17939TIP3    H275233   3.883   4.673  11.482  0.0025 -1.1548 -1.3657
17940TIP3   OH275234   3.538   2.958  15.874 -0.3247 -0.4956  0.4132
17940TIP3    H175235   3.520   2.867  15.896  2.3331 -1.5334 -1.1860
17940TIP3    H275236   3.543   3.003  15.958 -2.2775 -1.6450  1.2080
17941TIP3   OH275237   6.660   5.372   2.879  0.1569  0.0158 -0.1254
17941TIP3    H175238   6.753   5.348   2.889  0.5858  0.9155 -1.6005
17941TIP3    H275239   6.647   5.443   2.942  0.0958 -1.0189  1.0420
17942TIP3   OH275240   5.144   5.089   0.957 -0.1582  0.1465 -0.1101
17942TIP3    H175241   5.057   5.074   0.921 -0.4714  0.4303  0.5199
17942TIP3    H275242   5.129   5.109   1.049  0.5666  0.2758 -0.0141
17943TIP3   OH275243   5.674   4.174  12.355 -0.0565  0.0407 -0.2187
17943TIP3    H175244   5.670   4.091  12.403  2.7354  0.3267  0.6645
17943TIP3    H275245   5.676   4.148  12.263  0.5023 -0.8672  0.0357
17944TIP3   OH275246   0.880   5.294   0.290 -0.0899  0.0801  0.9310
17944TIP3    H175247   0.887   5.389   0.289  0.2275  0.0564  0.7084
17944TIP3    H275248   0.872   5.271   0.382 -0.0559  0.3148  0.9931
17945TIP3   OH275249   4.217   2.993   5.043  0.0762 -0.0672  0.0554
17945TIP3    H175250   4.221   2.988   4.948 -1.7025 -2.9755  0.0515
17945TIP3    H275251   4.281   2.929   5.074 -1.1872 -1.0400  0.7425
17946TIP3   OH275252   2.276   0.093  17.168 -0.5371  0.1371 -0.0607
17946TIP3    H175253   2.274   0.110  17.263 -1.8850 -1.9508  0.3691
17946TIP3    H275254   2.362   0.122  17.140  0.1142  0.3071  1.9386
17947TIP3   OH275255   2.377   4.740  15.400 -0.0151 -0.1148 -0.3323
17947TIP3    H175256   2.313   4.758  15.469 -0.0308  0.2163 -0.4273
17947TIP3    H275257   2.323   4.718  15.324 -0.0761  1.3495 -0.7476
17948TIP3   OH275258   2.416   4.788   0.973  0.6511 -0.0292 -0.6376
17948TIP3    H175259   2.350   4.718   0.975  1.1543 -0.5152 -0.5761
17948TIP3    H275260   2.467   4.771   0.894  1.9753 -0.8921  0.3482
17949TIP3   OH275261   1.009   1.987  10.836  0.2584  0.4846  0.0067
17949TIP3    H175262   0.957   1.908  10.822  0.4943 -0.0602  1.9722
17949TIP3    H275263   1.098   1.954  10.851  0.0782  0.9625  2.4333
17950TIP3   OH275264   4.127   3.590  11.343  0.4703 -0.1795 -0.3086
17950TIP3    H175265   4.039   3.572  11.373  0.0493  1.3267 -0.5434
17950TIP3    H275266   4.166   3.504  11.328 -0.6394 -0.8733  0.6740
17951TIP3   OH275267   2.229   6.083   4.241  0.7002 -0.0415  0.0870
17951TIP3    H175268   2.186   6.024   4.179 -1.1151 -0.0231  1.2623
17951TIP3    H275269   2.158   6.118   4.294  2.1896 -0.3327  2.4144
17952TIP3   OH275270   6.094   2.184   5.104 -0.5120 -0.4878  0.0040
17952TIP3    H175271   6.023   2.206   5.164  1.4437 -2.0491  3.1594
17952TIP3    H275272   6.102   2.089   5.110  1.9134 -0.3512 -0.1389
17953TIP3   OH275273   2.272   1.657   2.493 -0.1334  0.2851  0.2795
17953TIP3    H175274   2.307   1.727   2.548  2.4398  0.9435 -2.0035
17953TIP3    H275275   2.310   1.577   2.529  1.8898  0.7518 -0.6828
17954TIP3   OH275276   3.662   3.953  12.039 -0.2645  0.6379 -0.0552
17954TIP3    H175277   3.694   4.030  11.992  0.8976  1.5943  2.1288
17954TIP3    H275278   3.584   3.983  12.085  0.8182  0.9256  1.7076
17955TIP3   OH275279   0.342   6.702  12.014 -0.1161 -0.1876  0.4722
17955TIP3    H175280   0.357   6.794  12.033  1.3176 -0.4644  0.8424
17955TIP3    H275281   0.265   6.679  12.065 -0.0868  0.6516  0.9150
17956TIP3   OH275282   0.124   3.343  16.692  0.9053  0.3618 -0.3734
17956TIP3    H175283   0.142   3.358  16.599 -2.3665  1.8930 -0.9025
17956TIP3    H275284   0.101   3.250  16.696  1.9472  0.0596 -0.8854
17957TIP3   OH275285   5.144   4.418  11.661  0.0520 -0.0745  0.3231
17957TIP3    H175286   5.221   4.414  11.604 -0.7449 -2.3039 -0.7130
17957TIP3    H275287   5.179   4.409  11.750  1.1971  2.0042  0.1438
17958TIP3   OH275288   6.649   3.893   3.363 -0.2984  1.1996 -0.2143
17958TIP3    H175289   6.634   3.939   3.446 -0.8561  1.1080 -0.2627
17958TIP3    H275290   6.646   3.963   3.297 -0.5452  1.1770 -0.2273
17959TIP3   OH275291   0.502   6.272  13.435  0.0244  0.2972 -0.3955
17959TIP3    H175292   0.512   6.272  13.530  1.1106 -0.1912 -0.5014
17959TIP3    H275293   0.558   6.344  13.405  0.6710 -0.3434 -0.7523
17960TIP3   OH275294   0.578   1.753   2.817  0.3041 -0.1120  0.0789
17960TIP3    H175295   0.558   1.734   2.909  0.2303 -1.4360 -0.1949
17960TIP3    H275296   0.494   1.780   2.780 -0.1253 -1.5970 -0.0761
17961TIP3   OH275297   3.780   2.050  17.094  0.3102 -0.1032  0.3506
17961TIP3    H175298   3.812   2.120  17.151  0.5932 -1.2684  1.7051
17961TIP3    H275299   3.691   2.075  17.070  0.0729  0.2798  1.5852
17962TIP3   OH275300   1.809   5.166   3.275  0.5833  0.4101  0.1726
17962TIP3    H175301   1.762   5.176   3.358  0.9370  0.6481  0.3499
17962TIP3    H275302   1.785   5.079   3.244  0.9309  0.0689  0.8389
17963TIP3   OH275303   6.662   1.605  11.277 -0.4910  0.1570 -0.5843
17963TIP3    H175304   6.606   1.625  11.352  2.4825  2.0427  1.3213
17963TIP3    H275305   6.650   1.512  11.262 -1.5197 -0.1947  1.9658
17964TIP3   OH275306   1.822   2.773   1.574 -0.5168 -0.1809  0.1702
17964TIP3    H175307   1.836   2.679   1.588  0.1129 -0.0598  0.3797
17964TIP3    H275308   1.728   2.780   1.554 -0.7400 -0.7596  0.9444
17965TIP3   OH275309   2.275   2.469   3.530 -0.3889 -0.0255 -0.3192
17965TIP3    H175310   2.224   2.436   3.605 -0.4989  2.7509  0.9246
17965TIP3    H275311   2.228   2.547   3.501  1.2798  0.6437 -1.3702
17966TIP3   OH275312   0.208   3.527   0.258 -0.7159 -0.1640 -0.0443
17966TIP3    H175313   0.299   3.536   0.287 -0.2847  1.0128 -1.6186
17966TIP3    H275314   0.156   3.555   0.333  0.2256 -0.4302  0.7237
17967TIP3   OH275315   0.425   3.296  11.234  0.4805  0.3852  0.1094
17967TIP3    H175316   0.506   3.300  11.183  0.2247 -0.8693 -0.4321
17967TIP3    H275317   0.384   3.213  11.208 -0.9300  0.9435  0.4415
17968TIP3   OH275318   0.261   3.904   5.072 -0.0247  0.4283  0.4187
17968TIP3    H175319   0.262   3.817   5.111  0.8187 -0.1974 -0.9261
17968TIP3    H275320   0.352   3.922   5.049 -0.3022  1.3090 -0.0707
17969TIP3   OH275321   4.896   5.950   3.130  0.1173  0.2509 -1.0493
17969TIP3    H175322   4.847   5.869   3.144  2.7222 -1.0111  2.5079
17969TIP3    H275323   4.845   6.017   3.174  0.8086 -0.8203  1.5957
17970TIP3   OH275324   0.637   4.835   2.596 -0.3390  0.1968  0.0203
17970TIP3    H175325   0.630   4.889   2.675 -1.6986  0.0787  0.0091
17970TIP3    H275326   0.626   4.896   2.524 -0.6858  0.0915 -0.0211
17971TIP3   OH275327   5.069   1.892   1.625 -0.0567  0.2669 -0.3654
17971TIP3    H175328   5.053   1.908   1.718 -0.1457 -0.3592 -0.2664
17971TIP3    H275329   4.985   1.908   1.583 -0.4094 -0.8723 -0.1355
17972TIP3   OH275330   4.896   3.290   4.487 -0.4551  0.0266  0.2754
17972TIP3    H175331   4.973   3.331   4.527  0.2922  0.6206 -1.6593
17972TIP3    H275332   4.929   3.251   4.406 -2.5967  2.9050 -2.2247
17973TIP3   OH275333   5.669   4.467   0.432 -0.3964  0.2745  0.1066
17973TIP3    H175334   5.599   4.531   0.423 -1.2521 -0.5956  0.4471
17973TIP3    H275335   5.652   4.424   0.516  0.0869 -0.4795 -0.1691
17974TIP3   OH275336   4.744   2.625   6.288  0.1636  0.3045 -0.5270
17974TIP3    H175337   4.663   2.664   6.321 -0.0440  0.0681 -0.7506
17974TIP3    H275338   4.716   2.567   6.218  0.2885 -1.4829  0.8303
17975TIP3   OH275339   6.249   1.735   1.125 -0.1292 -0.3397 -0.4915
17975TIP3    H175340   6.331   1.784   1.130  1.3317 -2.5744 -0.8375
17975TIP3    H275341   6.181   1.799   1.146  1.7827  1.3235  1.0249
17976TIP3   OH275342   6.474   4.532   0.312 -0.1949  0.1881 -0.4026
17976TIP3    H175343   6.470   4.505   0.220  0.9038  0.9126 -0.6809
17976TIP3    H275344   6.565   4.520   0.337 -0.4730  0.0468  0.5938
17977TIP3   OH275345   6.347   5.277   5.409  0.2132  0.3690  0.0494
17977TIP3    H175346   6.350   5.249   5.501 -1.0081 -1.5411 -0.4524
17977TIP3    H275347   6.385   5.205   5.360 -0.5934  0.6964 -1.0903
17978TIP3   OH275348   3.970   2.140  14.135 -0.7248 -0.4808 -0.0899
17978TIP3    H175349   3.876   2.160  14.132 -0.3541  1.2667 -0.7824
17978TIP3    H275350   4.000   2.179  14.217 -0.3926 -0.0656 -0.4076
17979TIP3   OH275351   5.058   1.825  12.097 -0.3550 -0.3792  0.2187
17979TIP3    H175352   5.107   1.745  12.079  0.8075  0.3294  0.1239
17979TIP3    H275353   5.026   1.854  12.012  0.0407 -0.2350  0.1171
17980TIP3   OH275354   5.583   0.711  12.101 -0.3734 -0.2782 -0.2745
17980TIP3    H175355   5.588   0.744  12.012  0.2416  0.7675  0.1250
17980TIP3    H275356   5.675   0.707  12.131 -0.5937 -0.2226  0.4422
17981TIP3   OH275357   3.598   4.564  11.832  0.5635  0.3939 -0.0190
17981TIP3    H175358   3.644   4.503  11.774 -1.9016 -1.7511  0.1196
17981TIP3    H275359   3.666   4.598  11.890  2.4223 -0.3711 -1.6185
17982TIP3   OH275360   2.106   5.492  14.034  1.0847  0.5750  0.0239
17982TIP3    H175361   2.033   5.480  14.094  0.3139  2.2454 -0.5177
17982TIP3    H275362   2.181   5.510  14.091  1.2006 -1.5029  0.5978
17983TIP3   OH275363   3.634   4.849   0.474  0.2332 -0.3701 -0.5947
17983TIP3    H175364   3.614   4.932   0.518  0.4809 -1.1590  1.0736
17983TIP3    H275365   3.706   4.870   0.415  0.6916  0.4872  0.2479
17984TIP3   OH275366   5.142   3.433  10.927 -0.0617  0.0803 -0.0306
17984TIP3    H175367   5.201   3.389  10.867 -0.7544 -1.2746  0.2426
17984TIP3    H275368   5.055   3.401  10.903 -0.9015  2.8821 -1.1823
17985TIP3   OH275369   2.233   1.622   0.533  0.4779  0.0946 -0.1325
17985TIP3    H175370   2.251   1.617   0.439 -0.2310 -0.5094 -0.2457
17985TIP3    H275371   2.140   1.644   0.538  0.9554  2.2085  0.4353
17986TIP3   OH275372   3.230   4.087   0.014 -0.1621  0.5619  0.0592
17986TIP3    H175373   3.182   4.138  -0.051 -1.0749 -1.0812 -0.6184
17986TIP3    H275374   3.168   4.078   0.087 -0.5077 -0.6350 -0.3618
17987TIP3   OH275375   6.760   1.308   5.787  0.1156  0.0711  0.2552
17987TIP3    H175376   6.676   1.347   5.763  0.2973  0.1623 -0.2347
17987TIP3    H275377   6.744   1.214   5.790 -0.0836  0.1115  0.4905
17988TIP3   OH275378   1.882   3.298   4.927 -0.7132 -0.3011 -0.2344
17988TIP3    H175379   1.911   3.362   4.863 -1.7610  1.8700  1.3124
17988TIP3    H275380   1.962   3.259   4.961  0.1021  1.5240  0.0472
17989TIP3   OH275381   0.331   0.920  13.332 -0.3392  0.1517 -0.2735
17989TIP3    H175382   0.424   0.933  13.313  0.2800 -1.8405  1.0683
17989TIP3    H275383   0.287   0.936  13.248  1.3236  0.1487 -1.1868
17990TIP3   OH275384   1.921   1.287   3.646 -0.2048 -0.3265 -0.4222
17990TIP3    H175385   1.954   1.375   3.665  0.2152 -0.3199 -1.1716
17990TIP3    H275386   1.848   1.276   3.707 -0.0275  0.3936 -0.0634
17991TIP3   OH275387   4.818   3.080   5.208  0.1280  0.5509 -0.1743
17991TIP3    H175388   4.763   3.158   5.213  1.0414  1.1606  0.9281
17991TIP3    H275389   4.785   3.023   5.278  1.5089  1.3761  1.2222
17992TIP3   OH275390   1.334   6.069   4.252 -0.2759 -0.4128  0.3733
17992TIP3    H175391   1.247   6.100   4.229 -0.3573 -2.0273 -1.8492
17992TIP3    H275392   1.362   6.126   4.324 -2.5000  1.1500  0.1012
17993TIP3   OH275393   3.698   6.005   6.509 -0.0525  1.2128 -0.2189
17993TIP3    H175394   3.729   5.955   6.585 -0.7564  1.0890 -0.0082
17993TIP3    H275395   3.675   6.090   6.545  0.7694  1.5719 -0.5121
17994TIP3   OH275396   4.688   5.197   5.734 -0.2157  0.1889 -0.0473
17994TIP3    H175397   4.736   5.186   5.651 -0.6504  0.3094 -0.3135
17994TIP3    H275398   4.670   5.290   5.739 -2.1407 -0.0865 -0.9196
17995TIP3   OH275399   3.283   0.830   4.584  0.5191  0.2717 -0.1039
17995TIP3    H175400   3.368   0.788   4.569  0.4942  0.4934 -0.9147
17995TIP3    H275401   3.247   0.784   4.660  0.5849 -1.0314 -0.8258
17996TIP3   OH275402   0.078   2.389   4.648 -0.4735  0.1000  0.0951
17996TIP3    H175403   0.148   2.389   4.582 -0.9487 -0.2492 -0.4264
17996TIP3    H275404   0.037   2.474   4.639  1.3071  1.2586  1.9983
17997TIP3   OH275405   1.028   1.499   2.956 -0.3470 -0.0569 -0.2962
17997TIP3    H175406   0.958   1.439   2.982 -1.0108  0.0300 -1.8179
17997TIP3    H275407   1.054   1.471   2.869  0.4564  0.8779 -0.3825
17998TIP3   OH275408   2.055   6.555  14.712  0.5857  0.3899 -0.2460
17998TIP3    H175409   1.996   6.613  14.664  0.5392  0.8953  0.4039
17998TIP3    H275410   2.109   6.514  14.645  1.8223  2.5135 -0.6592
17999TIP3   OH275411   1.074   1.131  13.485 -0.6413 -0.1131 -0.3954
17999TIP3    H175412   0.994   1.160  13.529 -0.5483  0.3918 -0.5581
17999TIP3    H275413   1.124   1.087  13.554 -0.6737  0.3344 -0.0815
18000TIP3   OH275414   1.008   4.631  11.555 -0.0492  0.5057  0.4238
18000TIP3    H175415   1.091   4.677  11.565 -0.7584  1.5735  1.7310
18000TIP3    H275416   0.961   4.680  11.487  0.7575 -0.7302 -1.1017
18001TIP3   OH275417   0.559   1.280   1.343 -0.1800  0.6033  0.3457
18001TIP3    H175418   0.649   1.253   1.329 -0.3498  0.6837 -1.1193
18001TIP3    H275419   0.564   1.354   1.402  0.6765  0.3353  0.6130
18002TIP3   OH275420   0.274   1.639   3.515  0.3215 -0.0290 -0.4342
18002TIP3    H175421   0.178   1.634   3.521  0.0780  3.3668  1.6473
18002TIP3    H275422   0.292   1.647   3.422 -1.4947 -0.0678 -0.8321
18003TIP3   OH275423   4.524   1.675  11.928 -0.1715  0.4149 -0.1419
18003TIP3    H175424   4.591   1.612  11.956  0.1368  1.3471  1.3398
18003TIP3    H275425   4.561   1.761  11.950 -1.8050  0.9554  0.6363
18004TIP3   OH275426   2.755   0.941  16.387  0.5225 -0.5142 -0.3071
18004TIP3    H175427   2.767   0.986  16.304  0.0001 -0.0669 -0.1450
18004TIP3    H275428   2.832   0.884  16.395  2.2029  1.7198  0.3620
18005TIP3   OH275429   3.764   3.323   5.590 -0.0796  0.0921  0.3394
18005TIP3    H175430   3.779   3.327   5.496 -0.9677 -2.2468  0.0471
18005TIP3    H275431   3.801   3.405   5.623  0.0638  1.0738 -2.0425
18006TIP3   OH275432   0.904   4.686   2.544  0.1483 -0.2353 -0.5959
18006TIP3    H175433   0.865   4.774   2.538  0.9624  0.1407 -0.5246
18006TIP3    H275434   0.833   4.627   2.522 -0.2183  0.4803 -1.3915
18007TIP3   OH275435   3.538   6.763  14.720 -0.4507 -0.0310  0.3416
18007TIP3    H175436   3.579   6.680  14.696  0.4392  0.7623 -1.0479
18007TIP3    H275437   3.594   6.798  14.789 -0.7180 -0.4966  0.7964
18008TIP3   OH275438   3.646   1.115   5.761  0.3547 -0.1816 -0.0030
18008TIP3    H175439   3.619   1.206   5.768 -1.8280 -0.6820 -1.0631
18008TIP3    H275440   3.694   1.109   5.679  2.0212  0.2981  0.8873
18009TIP3   OH275441   5.242   3.742  12.464 -0.3931  0.2494 -0.3352
18009TIP3    H175442   5.290   3.799  12.403  0.9707  1.4725  1.7414
18009TIP3    H275443   5.247   3.788  12.548 -2.6164 -1.1261  0.6228
18010TIP3   OH275444   2.374   6.259   0.324 -0.0087  0.2141  0.1121
18010TIP3    H175445   2.383   6.311   0.244 -2.9783 -0.1551 -0.5581
18010TIP3    H275446   2.284   6.273   0.352  0.4754 -0.9824  2.5119
18011TIP3   OH275447   0.379   0.030  15.012  0.3974  0.6086  0.5394
18011TIP3    H175448   0.353   0.080  14.935  1.4328  1.0223  0.4430
18011TIP3    H275449   0.296   0.004  15.053 -0.1826  2.1447  0.4148
18012TIP3   OH275450   0.068   2.473   0.132 -0.2330  0.0484  0.0835
18012TIP3    H175451   0.101   2.386   0.109  1.3461  0.6711 -0.1606
18012TIP3    H275452   0.147   2.524   0.151 -1.0498  1.6900 -0.7027
18013TIP3   OH275453   4.769   5.102  12.878 -0.2764 -0.2995  0.3192
18013TIP3    H175454   4.696   5.154  12.912  0.6780  0.5196  1.2080
18013TIP3    H275455   4.730   5.019  12.852 -1.4642 -0.0169  1.1087
18014TIP3   OH275456   0.196   4.001  13.613 -0.6604 -0.1010  0.0510
18014TIP3    H175457   0.266   3.944  13.645  0.7778  0.8778 -1.2545
18014TIP3    H275458   0.153   3.949  13.545  0.0502  0.0053 -0.4887
18015TIP3   OH275459   0.104   4.278  14.008 -0.0766  0.0178 -0.5212
18015TIP3    H175460   0.115   4.227  14.088  1.2216  0.6633 -0.2440
18015TIP3    H275461   0.010   4.287  13.997 -0.2859  0.7268  1.4846
18016TIP3   OH275462   5.393   6.553  15.777 -0.5637 -0.2502 -0.6135
18016TIP3    H175463   5.442   6.620  15.825 -2.0638  3.3357 -3.5380
18016TIP3    H275464   5.445   6.538  15.698 -0.8221 -1.7665 -0.5147
18017TIP3   OH275465   2.638   6.321  12.261  0.3146 -0.2767  0.2259
18017TIP3    H175466   2.691   6.386  12.214  0.8048 -0.0913  1.0195
18017TIP3    H275467   2.600   6.267  12.192 -1.4789  1.8479 -0.5592
18018TIP3   OH275468   2.229   6.286  12.799 -0.5197 -0.3625 -0.0152
18018TIP3    H175469   2.149   6.326  12.833 -1.3545 -1.4105 -0.6595
18018TIP3    H275470   2.289   6.359  12.784 -1.5610  0.5038 -0.0144
18019TIP3   OH275471   2.840   4.379  11.431 -0.3298  0.2179 -0.1216
18019TIP3    H175472   2.916   4.427  11.396 -0.1604 -0.5209 -0.8000
18019TIP3    H275473   2.764   4.428  11.399 -0.2207 -1.0329 -2.5489
18020TIP3   OH275474   0.298   2.548   4.972  0.0729 -0.1161  0.2738
18020TIP3    H175475   0.220   2.595   4.943  0.8272  0.4103 -1.0047
18020TIP3    H275476   0.348   2.532   4.892  0.7949 -1.3548  0.9384
18021TIP3   OH275477   1.952   3.053  16.524  0.1666 -0.1580  0.2869
18021TIP3    H175478   1.868   3.098  16.513  0.7522  0.8386 -0.2839
18021TIP3    H275479   2.011   3.121  16.557  0.7374 -0.8612  0.7240
18022TIP3   OH275480   6.630   2.244   3.408 -0.1285  0.2556  0.5344
18022TIP3    H175481   6.599   2.176   3.349 -1.6686  0.3358  1.1885
18022TIP3    H275482   6.589   2.324   3.377 -0.9012  0.3137  1.6174
18023TIP3   OH275483   3.010   5.882  15.702  0.4576 -0.5068 -0.3756
18023TIP3    H175484   3.066   5.955  15.673 -1.5945  0.3193 -2.5731
18023TIP3    H275485   3.072   5.816  15.733  2.5596  0.9504 -1.1944
18024TIP3   OH275486   2.180   4.974   5.204  0.7560 -0.2021 -0.1732
18024TIP3    H175487   2.205   4.895   5.252 -0.4497  0.0288  0.8775
18024TIP3    H275488   2.235   5.043   5.242 -0.4601  0.0567  1.2213
18025TIP3   OH275489   4.765   6.675  14.990  1.0469 -0.3922  0.0131
18025TIP3    H175490   4.824   6.599  14.986  1.2553 -0.2275 -0.0114
18025TIP3    H275491   4.818   6.748  14.959  1.0607 -0.0968  0.7338
18026TIP3   OH275492   6.542   0.066   3.834 -0.8569  0.5552  0.3964
18026TIP3    H175493   6.626   0.027   3.858 -0.8176  1.0135  1.0093
18026TIP3    H275494   6.491  -0.008   3.800  0.1311  0.4440 -0.9544
18027TIP3   OH275495   3.714   6.766  11.217  0.4332 -0.4947  0.3244
18027TIP3    H175496   3.754   6.687  11.181  0.0800 -0.4473 -0.1884
18027TIP3    H275497   3.742   6.768  11.309  0.9046 -0.9090  0.1919
18028TIP3   OH275498   0.500   3.485   1.855 -0.0076 -0.0494 -0.3410
18028TIP3    H175499   0.442   3.558   1.876 -1.2279 -0.7421 -1.1701
18028TIP3    H275500   0.493   3.427   1.931  1.0282  0.6979  0.3566
18029TIP3   OH275501   5.935   3.641  15.984  0.4495 -0.1347 -0.2848
18029TIP3    H175502   5.956   3.733  15.977 -0.5708  0.2476  1.0489
18029TIP3    H275503   5.986   3.598  15.916  2.5323  1.1377  0.3795
18030TIP3   OH275504   0.693   5.120  10.659 -0.0046 -0.0852  0.1141
18030TIP3    H175505   0.668   5.202  10.701 -0.6839  0.5856 -1.5247
18030TIP3    H275506   0.610   5.076  10.641  0.2979 -0.5740 -0.0986
18031TIP3   OH275507   2.655   4.330  13.591 -0.4439  0.0876 -0.1311
18031TIP3    H175508   2.719   4.267  13.624 -0.4851  0.0375 -0.1464
18031TIP3    H275509   2.678   4.413  13.632 -1.1097 -0.1854  0.8295
18032TIP3   OH275510   3.195   5.548   3.837  0.5097  0.9899 -0.3088
18032TIP3    H175511   3.289   5.563   3.825  0.9380 -0.0179  1.3928
18032TIP3    H275512   3.177   5.468   3.788  0.6214  0.9848 -0.3405
18033TIP3   OH275513   5.232   6.782  10.931  0.1227 -0.4595 -0.0346
18033TIP3    H175514   5.243   6.716  10.863  0.3836  0.0377 -0.4850
18033TIP3    H275515   5.225   6.865  10.883  0.5180 -0.0761  0.5540
18034TIP3   OH275516   4.186   4.153  11.702 -0.4134 -0.1216 -0.3723
18034TIP3    H175517   4.257   4.213  11.682 -1.5033  1.0078 -0.9772
18034TIP3    H275518   4.225   4.066  11.692  1.2743  0.4553  0.8647
18035TIP3   OH275519   5.396   3.814  15.133 -0.0605 -0.4768  0.1945
18035TIP3    H175520   5.399   3.902  15.170 -0.1868 -1.0698  1.6896
18035TIP3    H275521   5.392   3.828  15.038 -3.0520  1.1967  0.4426
18036TIP3   OH275522   5.764   0.526  15.070  0.1721 -0.0491  0.6690
18036TIP3    H175523   5.732   0.614  15.090  0.2232 -0.2514  1.6819
18036TIP3    H275524   5.688   0.469  15.084 -0.1283 -0.0900 -0.8886
18037TIP3   OH275525   2.646   6.274  16.735 -0.2831 -0.5675  0.0442
18037TIP3    H175526   2.638   6.348  16.676  0.6466 -0.7080 -0.2742
18037TIP3    H275527   2.736   6.278  16.767 -0.9380 -0.1178  1.9614
18038TIP3   OH275528   3.573   2.600   4.198  0.3535  0.1797  0.6151
18038TIP3    H175529   3.654   2.604   4.249  1.5496  0.4865 -1.2151
18038TIP3    H275530   3.558   2.691   4.171 -0.6116  0.1213  0.9328
18039TIP3   OH275531   1.974   5.297  16.975  0.2611  0.2001  0.0640
18039TIP3    H175532   2.001   5.207  16.956  0.4310  0.5911 -1.7417
18039TIP3    H275533   2.010   5.315  17.062 -1.2294 -2.0203  1.2288
18040TIP3   OH275534   3.296   5.373  15.948 -0.4479  0.3926 -0.0237
18040TIP3    H175535   3.321   5.417  16.029 -1.3412  0.1171  0.4114
18040TIP3    H275536   3.369   5.389  15.889  0.6439 -0.2001  1.1238
18041TIP3   OH275537   5.164   2.554  14.535 -0.4617 -0.4897 -0.3001
18041TIP3    H175538   5.210   2.532  14.454 -0.6417 -2.1105 -0.0033
18041TIP3    H275539   5.193   2.643  14.556  1.7321 -1.0561 -0.6685
18042TIP3   OH275540   5.683   4.200  12.051  0.3139 -0.0144 -0.0470
18042TIP3    H175541   5.693   4.106  12.061  0.5356  0.0769  0.7050
18042TIP3    H275542   5.756   4.227  11.996 -0.3868 -0.4246 -1.2042
18043TIP3   OH275543   1.934   5.711  13.632 -0.2338 -0.2928  0.5571
18043TIP3    H175544   2.022   5.738  13.606 -0.2930  0.3610  1.0153
18043TIP3    H275545   1.935   5.715  13.728 -0.6289 -0.7114  0.5831
18044TIP3   OH275546   6.007   4.431   4.009  0.0944  0.2785  0.1867
18044TIP3    H175547   5.950   4.366   3.968 -0.2690  0.7426 -0.0633
18044TIP3    H275548   5.988   4.512   3.961  2.6775 -0.0247 -1.5352
18045TIP3   OH275549   1.186   2.059  14.367 -0.1433 -0.5122 -0.4490
18045TIP3    H175550   1.219   1.973  14.340 -2.0661 -0.9417 -1.6935
18045TIP3    H275551   1.236   2.122  14.316  0.2831 -0.9863 -0.6170
18046TIP3   OH275552   1.410   6.265   0.827 -0.0345  0.5027  0.1343
18046TIP3    H175553   1.355   6.342   0.833  1.0894  1.5177 -1.5090
18046TIP3    H275554   1.383   6.222   0.745  1.9303  1.3910 -1.0753
18047TIP3   OH275555   5.567   5.785  16.015  0.1657  0.3975  0.0301
18047TIP3    H175556   5.482   5.824  16.034  0.0334 -0.4356  1.3062
18047TIP3    H275557   5.630   5.854  16.035 -0.1292  0.4019  1.0204
18048TIP3   OH275558   5.374   4.961   5.371 -0.4797  0.2119  0.4098
18048TIP3    H175559   5.330   5.044   5.390 -0.0517  0.3440  0.8439
18048TIP3    H275560   5.340   4.935   5.285 -1.6779  0.1270  0.8903
18049TIP3   OH275561   0.185   1.216  11.366  0.3753  0.4352 -0.4149
18049TIP3    H175562   0.164   1.201  11.458 -0.6380 -0.4117 -0.7795
18049TIP3    H275563   0.153   1.305  11.349 -0.4037  0.1980 -0.2269
18050TIP3   OH275564   4.025   6.645  11.022 -0.0138  0.3213 -0.0923
18050TIP3    H175565   4.012   6.594  11.102  0.3165 -1.2624 -1.0050
18050TIP3    H275566   4.062   6.583  10.960 -1.8133  1.0619 -2.0230
18051TIP3   OH275567   3.375   5.808  15.081 -0.3699  0.3165  0.5987
18051TIP3    H175568   3.468   5.800  15.102 -0.1729  1.4578  0.2281
18051TIP3    H275569   3.368   5.891  15.035 -1.2774 -0.6680 -1.1291
18052TIP3   OH275570   4.191   3.911   0.777 -0.1952  0.3435 -0.6748
18052TIP3    H175571   4.246   3.969   0.724  0.3875  0.2259 -0.2193
18052TIP3    H275572   4.191   3.952   0.864 -1.1179  0.5248 -0.7533
18053TIP3   OH275573   1.149   1.723   1.206 -0.0685 -0.4692  0.5060
18053TIP3    H175574   1.209   1.672   1.152 -1.9003 -1.2137 -0.9058
18053TIP3    H275575   1.184   1.812   1.203  1.0874 -0.9224 -0.0752
18054TIP3   OH275576   6.177   6.083   2.333 -0.0259  0.1532  0.3173
18054TIP3    H175577   6.270   6.059   2.330  0.4323  1.8730 -1.2049
18054TIP3    H275578   6.167   6.127   2.417  0.5716  0.0815  0.4350
18055TIP3   OH275579   3.243   0.202   1.378  0.0152 -0.3937  0.0334
18055TIP3    H175580   3.250   0.257   1.456  0.6828 -1.8468  1.0479
18055TIP3    H275581   3.331   0.204   1.339  0.1452 -1.0449  0.2925
18056TIP3   OH275582   1.824   3.531   2.071  0.1413 -0.2863  0.2713
18056TIP3    H175583   1.811   3.490   2.156  2.2019 -0.8630  0.3582
18056TIP3    H275584   1.836   3.459   2.010  1.8382  0.0938  0.0862
18057TIP3   OH275585   4.864   5.069  10.484  0.0745  1.1268  0.5487
18057TIP3    H175586   4.927   5.132  10.519 -0.7872  1.6073  1.2778
18057TIP3    H275587   4.788   5.076  10.542 -0.5688  0.4017 -0.1802
18058TIP3   OH275588   4.484   0.939  11.598 -0.1759 -0.0172 -0.1326
18058TIP3    H175589   4.470   0.873  11.529  1.8372 -0.7077  0.0573
18058TIP3    H275590   4.396   0.967  11.622 -1.0170 -1.3543 -1.4584
18059TIP3   OH275591   0.450   5.409  13.116  0.5226 -0.8751 -0.6035
18059TIP3    H175592   0.388   5.437  13.183  1.8668 -0.4158  0.4833
18059TIP3    H275593   0.403   5.341  13.067 -0.9284 -0.3474 -0.0012
18060TIP3   OH275594   6.235   1.989  13.542  0.1848 -0.3335 -0.4392
18060TIP3    H175595   6.219   1.965  13.633 -1.2005  0.6853 -0.3805
18060TIP3    H275596   6.304   2.055  13.546 -1.4959  1.4909  0.1455
18061TIP3   OH275597   3.587   2.863   1.388  0.1455  0.4308  0.5199
18061TIP3    H175598   3.675   2.893   1.414  0.5569 -0.5341  0.2823
18061TIP3    H275599   3.530   2.892   1.459  0.9737 -0.5927  1.6487
18062TIP3   OH275600   4.551   0.910   2.065  0.7405 -0.4806  0.1026
18062TIP3    H175601   4.462   0.913   2.031  1.1162  0.2102 -0.8599
18062TIP3    H275602   4.583   0.823   2.038  0.6409 -0.3960 -0.3042
18063TIP3   OH275603   2.577   5.595  14.594  0.2903 -0.2135 -0.5732
18063TIP3    H175604   2.631   5.657  14.544 -0.6697  0.6101 -0.6048
18063TIP3    H275605   2.487   5.615  14.569 -0.0690 -1.3121 -0.2211
18064TIP3   OH275606   0.078   3.035   3.159 -0.0419 -0.1847  0.3313
18064TIP3    H175607   0.039   3.094   3.223  0.4789  0.7363 -0.1828
18064TIP3    H275608   0.156   3.000   3.203 -0.5918 -0.8511  0.7988
18065TIP3   OH275609   2.014   2.603  14.044  0.0447  0.6649  0.1146
18065TIP3    H175610   2.038   2.517  14.010  0.1286  0.5843  0.3734
18065TIP3    H275611   1.965   2.584  14.124  1.4545  0.8929  1.0526
18066TIP3   OH275612   0.497   4.684  10.550  0.5773 -0.0434 -0.0000
18066TIP3    H175613   0.528   4.666  10.461 -1.0775 -0.3485 -0.5506
18066TIP3    H275614   0.401   4.680  10.543  0.2743  2.9702  1.1667
18067TIP3   OH275615   1.290   6.272  14.654  0.1493 -0.8915  0.0308
18067TIP3    H175616   1.368   6.268  14.709 -0.7120 -0.8663  1.2864
18067TIP3    H275617   1.229   6.328  14.701 -1.2259 -2.1625 -0.1319
18068TIP3   OH275618   6.674   2.017  15.271 -0.1844 -0.6673  0.4025
18068TIP3    H175619   6.649   1.957  15.200  2.3456 -1.5298  0.1519
18068TIP3    H275620   6.719   2.089  15.227 -0.0260 -0.3986  0.9972
18069TIP3   OH275621   6.563   5.884  13.796 -0.4750  0.6666 -0.2744
18069TIP3    H175622   6.511   5.804  13.787 -1.4804  0.9539  2.2376
18069TIP3    H275623   6.499   5.955  13.798  0.1929  1.2689  0.3224
18070TIP3   OH275624   3.729   0.144   4.903 -0.1340  0.2605  0.1984
18070TIP3    H175625   3.758   0.197   4.977 -1.3676  2.3949 -0.7407
18070TIP3    H275626   3.770   0.184   4.826  0.0691 -1.0806 -0.4217
18071TIP3   OH275627   3.125   1.130   4.120 -0.1115  0.0490 -0.3975
18071TIP3    H175628   3.147   1.181   4.043 -0.9894  1.1116  0.0238
18071TIP3    H275629   3.203   1.135   4.176 -0.1607  0.8896 -0.3929
18072TIP3   OH275630   2.537   2.746   2.202 -0.0956 -0.4609 -0.4654
18072TIP3    H175631   2.564   2.792   2.123  1.0213 -0.0962  0.1153
18072TIP3    H275632   2.507   2.660   2.171 -1.3734  0.2988 -1.4600
18073TIP3   OH275633   6.122   2.888  11.938 -0.6797  0.6215 -0.0537
18073TIP3    H175634   6.028   2.895  11.951 -0.6035  1.3907  0.1217
18073TIP3    H275635   6.161   2.939  12.009 -0.1739  1.5421 -0.9586
18074TIP3   OH275636   0.921   1.087   4.848 -0.2323  0.3374 -0.1233
18074TIP3    H175637   1.007   1.073   4.886  0.9062  2.0826 -1.8365
18074TIP3    H275638   0.925   1.175   4.810 -2.4488  0.1138 -1.0938
18075TIP3   OH275639   6.760   0.334  10.671 -0.1578 -0.0974  0.0859
18075TIP3    H175640   6.775   0.341  10.577 -2.3151  0.6257 -0.2419
18075TIP3    H275641   6.797   0.414  10.707  1.2365 -0.6584 -0.0312
18076TIP3   OH275642   3.445   6.156  16.114 -0.4613 -0.6749 -0.0860
18076TIP3    H175643   3.365   6.146  16.164 -1.4064  0.3401 -1.3311
18076TIP3    H275644   3.441   6.245  16.079  1.2556 -0.5623 -0.1026
18077TIP3   OH275645   6.745   1.067   2.209 -1.0754 -0.0490  0.4015
18077TIP3    H175646   6.727   1.136   2.273 -1.8632  0.2024 -0.0749
18077TIP3    H275647   6.704   1.098   2.129 -0.2633 -0.4529 -0.1797
18078TIP3   OH275648   6.773   3.641  11.182 -0.2919 -0.0493  0.0304
18078TIP3    H175649   6.768   3.650  11.277 -3.2036  0.8784 -0.1085
18078TIP3    H275650   6.778   3.731  11.150 -0.3463 -0.3046 -0.7194
18079TIP3   OH275651   2.393   5.092  16.827 -0.1756 -0.2332  0.3064
18079TIP3    H175652   2.302   5.088  16.797  0.3840 -2.6601 -1.3837
18079TIP3    H275653   2.391   5.051  16.914 -0.7672  0.3841  0.5987
18080TIP3   OH275654   4.670   4.889   0.768 -0.3404  0.2551 -0.1834
18080TIP3    H175655   4.634   4.801   0.756 -0.9552  0.7362 -2.2302
18080TIP3    H275656   4.594   4.943   0.789 -0.0194  0.4102  0.6477
18081TIP3   OH275657   6.648   5.646   1.011  0.5597  0.1383  0.0981
18081TIP3    H175658   6.560   5.649   1.050  0.8444  2.9256  0.7244
18081TIP3    H275659   6.632   5.626   0.918 -0.8534  1.3680  0.0280
18082TIP3   OH275660   5.638   6.570   3.023 -1.1938  0.1614 -0.0666
18082TIP3    H175661   5.609   6.655   2.989  0.4234  0.8563  0.2118
18082TIP3    H275662   5.654   6.586   3.116 -0.6656 -0.3962 -0.0592
18083TIP3   OH275663   0.983   4.457  15.975 -0.1508 -0.1650  0.2373
18083TIP3    H175664   0.996   4.463  16.069 -0.2692  1.6408  0.1674
18083TIP3    H275665   0.920   4.526  15.955 -0.0970 -0.4964 -1.1699
18084TIP3   OH275666   4.431   4.580   4.876 -0.3355 -0.0774  0.0795
18084TIP3    H175667   4.458   4.541   4.959 -0.5769 -0.7400 -0.1511
18084TIP3    H275668   4.360   4.525   4.845 -0.7704  0.6246 -0.1922
18085TIP3   OH275669   5.945   2.748  16.296  0.2179  0.3266 -0.8121
18085TIP3    H175670   6.019   2.688  16.306  0.1016 -0.0351 -1.8878
18085TIP3    H275671   5.873   2.704  16.341  0.8567  1.1493  1.1186
18086TIP3   OH275672   3.928   5.996   0.549 -0.2006  0.3784  0.9838
18086TIP3    H175673   4.004   5.996   0.490  1.0779 -0.3069  2.5440
18086TIP3    H275674   3.949   5.928   0.614 -2.1769  0.1620  1.4513
18087TIP3   OH275675   4.373   0.818   1.103 -0.2999 -0.6445 -0.6136
18087TIP3    H175676   4.381   0.776   1.017  1.2003 -0.8265 -0.4139
18087TIP3    H275677   4.329   0.752   1.157 -0.2540 -0.9674 -0.9614
18088TIP3   OH275678   6.310   3.504  15.874  0.5587 -0.4128 -0.4918
18088TIP3    H175679   6.229   3.534  15.833 -0.2208 -1.4747  0.2285
18088TIP3    H275680   6.323   3.562  15.949 -0.0912 -0.8627 -0.0221
18089TIP3   OH275681   2.114   3.827   5.011 -0.2320 -0.1447  0.0425
18089TIP3    H175682   2.197   3.854   4.973 -0.0757  0.3397  0.7307
18089TIP3    H275683   2.108   3.733   4.991 -0.4603  0.2076 -1.7392
18090TIP3   OH275684   2.228   2.592  13.471  0.2937 -0.0103 -0.2209
18090TIP3    H175685   2.322   2.611  13.479  0.0800  0.6782  0.8145
18090TIP3    H275686   2.185   2.672  13.499 -0.6286  0.3456 -2.3998
18091TIP3   OH275687   4.478   1.113  15.219  0.0184  0.0843 -0.5252
18091TIP3    H175688   4.559   1.070  15.194 -0.5324 -0.8774 -0.7052
18091TIP3    H275689   4.423   1.109  15.141 -1.4022 -2.1903  0.4932
18092TIP3   OH275690   4.279   6.288   2.834  0.2963  0.4741 -0.3876
18092TIP3    H175691   4.372   6.283   2.814  0.0873 -1.5121 -1.1560
18092TIP3    H275692   4.247   6.199   2.817 -1.6926  1.0629  0.0659
18093TIP3   OH275693   1.732   4.616  13.848 -0.2012 -0.0374  0.1061
18093TIP3    H175694   1.773   4.557  13.911  1.2320 -0.2732 -1.0009
18093TIP3    H275695   1.691   4.559  13.783 -1.2965  0.2065  0.5555
18094TIP3   OH275696   1.174   5.436   5.964  0.4127  0.2505  0.1125
18094TIP3    H175697   1.145   5.389   6.042  1.7047  0.2627  0.6259
18094TIP3    H275698   1.238   5.377   5.924  2.0241  1.5121  0.7431
18095TIP3   OH275699   6.320   4.036  11.946  0.2622 -0.2435 -0.4318
18095TIP3    H175700   6.330   4.010  12.038 -0.5858  2.6812  0.5981
18095TIP3    H275701   6.407   4.067  11.921  0.4427 -0.8463 -0.5739
18096TIP3   OH275702   0.246   1.068   2.172  0.2632 -0.6950 -0.2434
18096TIP3    H175703   0.156   1.053   2.202  0.3518 -0.4040  0.1918
18096TIP3    H275704   0.281   0.981   2.154 -0.7032 -0.7165 -2.2515
18097TIP3   OH275705   5.576   0.105   4.564 -0.0290 -0.2887  0.0100
18097TIP3    H175706   5.634   0.174   4.598  1.7456 -1.6959 -0.0090
18097TIP3    H275707   5.536   0.144   4.487  1.6041  0.4660 -0.5087
18098TIP3   OH275708   1.903   1.431   4.783  0.0996  0.3165 -0.3711
18098TIP3    H175709   1.915   1.459   4.874 -1.5970  1.4650 -0.4546
18098TIP3    H275710   1.872   1.341   4.789  1.4392 -0.1299  0.1037
18099TIP3   OH275711   5.327   2.724   2.069  0.3167  0.3407  0.0592
18099TIP3    H175712   5.404   2.673   2.094 -1.4420 -1.5629  2.0103
18099TIP3    H275713   5.313   2.784   2.143  0.9939  2.1106 -1.1719
18100TIP3   OH275714   5.792   1.640   1.175 -0.0189 -0.8189  0.5280
18100TIP3    H175715   5.864   1.690   1.213  0.4522 -0.1924 -1.1097
18100TIP3    H275716   5.713   1.690   1.199  0.1936 -0.8241  1.2544
18101TIP3   OH275717   4.934   6.052   0.534  0.1043  0.0243 -0.6426
18101TIP3    H175718   4.981   6.080   0.456  0.0964 -0.1776 -0.7218
18101TIP3    H275719   5.001   6.012   0.590  0.0795  0.0079 -0.6242
18102TIP3   OH275720   2.108   0.943   0.833 -0.1855 -0.4435  0.0182
18102TIP3    H175721   2.105   0.927   0.927  0.5425  0.7702  0.2650
18102TIP3    H275722   2.137   0.860   0.796 -2.7356 -1.7018  0.5955
18103TIP3   OH275723   0.298   2.796  16.175  0.5726  0.0350  0.0494
18103TIP3    H175724   0.373   2.741  16.199 -0.5816 -1.4767  0.3469
18103TIP3    H275725   0.273   2.767  16.088 -0.5853 -0.5506  0.5539
18104TIP3   OH275726   6.326   4.523  14.283 -0.5001  0.0492 -0.2663
18104TIP3    H175727   6.412   4.556  14.257 -1.0827  0.6189 -1.5076
18104TIP3    H275728   6.264   4.570  14.229 -1.3961 -3.1032 -2.2797
18105TIP3   OH275729   0.619   1.753   4.230  0.0938  0.2542  0.4844
18105TIP3    H175730   0.660   1.692   4.170  1.0625  2.3523 -1.1216
18105TIP3    H275731   0.538   1.710   4.257 -1.6996  0.1109 -4.2719
18106TIP3   OH275732   1.458   4.923   0.266 -0.3793 -0.3296 -0.3555
18106TIP3    H175733   1.551   4.948   0.264 -0.0667 -1.1707  1.5672
18106TIP3    H275734   1.441   4.889   0.178  0.5182  1.7846 -1.4352
18107TIP3   OH275735   5.145   3.657   3.469  0.1281  0.0555  0.5370
18107TIP3    H175736   5.162   3.594   3.399  0.3170  1.1360 -0.4177
18107TIP3    H275737   5.222   3.714   3.469 -0.2650  0.6024  1.0270
18108TIP3   OH275738   3.902   1.626  11.386 -0.2271 -0.6006  0.6656
18108TIP3    H175739   3.939   1.544  11.419  1.3753 -0.4667 -0.6821
18108TIP3    H275740   3.947   1.694  11.435  0.9490 -0.4560 -0.5613
18109TIP3   OH275741   0.990   0.606   3.883  0.3596 -0.5701  0.1970
18109TIP3    H175742   0.912   0.659   3.895  1.0564  0.8673 -1.3157
18109TIP3    H275743   1.063   0.667   3.897  1.1827 -1.1157 -1.4754
18110TIP3   OH275744   2.191   2.754   0.789  0.1190  0.0419 -0.1259
18110TIP3    H175745   2.284   2.730   0.785 -0.2185 -1.4330  0.2690
18110TIP3    H275746   2.148   2.676   0.825 -1.2239  0.8466  0.0547
18111TIP3   OH275747   6.079   0.032  16.438 -0.5379 -0.4568  0.2030
18111TIP3    H175748   5.988   0.036  16.411 -0.1532 -0.3859 -1.1397
18111TIP3    H275749   6.089   0.104  16.501 -1.1823  0.0984 -0.3264
18112TIP3   OH275750   5.340   4.375   5.140  0.2610 -0.1452 -0.0995
18112TIP3    H175751   5.263   4.429   5.121  0.5789 -0.1468 -1.4859
18112TIP3    H275752   5.410   4.438   5.156 -0.0256 -0.1416  1.3049
18113TIP3   OH275753   2.011   3.276  10.815 -0.3254 -0.6095  0.3385
18113TIP3    H175754   2.057   3.275  10.731 -0.8007  1.1359  0.0211
18113TIP3    H275755   2.025   3.188  10.851  2.5424 -0.4283 -0.1049
18114TIP3   OH275756   1.290   3.424  14.832 -0.0735 -0.3074  0.2230
18114TIP3    H175757   1.203   3.463  14.830 -0.1909 -0.5318  0.6291
18114TIP3    H275758   1.306   3.395  14.742 -0.6755 -0.8066  0.2644
18115TIP3   OH275759   3.660   5.733  12.448  0.0663  0.3095  0.3233
18115TIP3    H175760   3.669   5.804  12.511 -0.7614 -0.4742  1.3728
18115TIP3    H275761   3.669   5.653  12.501 -0.4062 -0.3607 -0.5864
18116TIP3   OH275762   5.661   4.452   2.681 -0.2607 -0.5258 -0.1339
18116TIP3    H175763   5.740   4.505   2.676  0.2893 -1.3475 -0.5628
18116TIP3    H275764   5.681   4.386   2.748  0.2540 -1.9882 -1.6302
18117TIP3   OH275765   4.068   5.654  15.831  0.2725  0.1855 -0.4100
18117TIP3    H175766   3.989   5.672  15.883 -0.0309 -0.5600 -0.6025
18117TIP3    H275767   4.090   5.738  15.791  0.0932  0.6042  0.3497
18118TIP3   OH275768   2.663   5.134   2.062 -0.2341 -0.3790 -0.4759
18118TIP3    H175769   2.569   5.141   2.044 -0.3079 -1.3310 -0.5418
18118TIP3    H275770   2.704   5.183   1.991 -0.7120  1.6267  0.5722
18119TIP3   OH275771   1.112   2.123   4.393 -0.1458  0.2017 -0.3324
18119TIP3    H175772   1.145   2.145   4.480  0.4772 -2.4970  0.1931
18119TIP3    H275773   1.091   2.030   4.397  1.2466 -0.3915 -3.4499
18120TIP3   OH275774   4.170   2.085   3.522 -0.2397  0.4832  0.4660
18120TIP3    H175775   4.096   2.024   3.522 -0.5070  0.7637 -1.0064
18120TIP3    H275776   4.238   2.040   3.571 -1.1030 -0.1271  1.1493
18121TIP3   OH275777   2.455   1.225  15.042 -0.6869  0.0446 -0.2592
18121TIP3    H175778   2.396   1.253  15.112 -0.6216  1.5153 -0.7562
18121TIP3    H275779   2.439   1.131  15.033 -2.5384  0.2930  0.0005
18122TIP3   OH275780   1.675   6.663   1.257  0.1477  0.0562 -0.5432
18122TIP3    H175781   1.732   6.740   1.262  1.5412 -0.6160 -3.3981
18122TIP3    H275782   1.720   6.596   1.308  0.0013  0.5407  0.2323
18123TIP3   OH275783   1.196   2.289   1.699  0.1713 -0.2283  0.7175
18123TIP3    H175784   1.243   2.271   1.781  0.4452 -2.0206  0.2106
18123TIP3    H275785   1.250   2.250   1.631 -1.5936 -1.5928  0.0241
18124TIP3   OH275786   3.727   4.098   3.923 -0.0584  0.2029  0.5309
18124TIP3    H175787   3.747   4.023   3.979 -0.6663 -0.4319 -0.0763
18124TIP3    H275788   3.633   4.091   3.907 -0.1995  1.3399  0.7986
18125TIP3   OH275789   0.597   1.286  13.453 -0.7225  0.2677  0.6462
18125TIP3    H175790   0.597   1.191  13.454 -0.7272  0.2337 -0.6938
18125TIP3    H275791   0.511   1.311  13.488 -0.6267 -0.2034  1.2256
18126TIP3   OH275792   5.879   0.540  14.114 -0.7687 -0.1005  0.0286
18126TIP3    H175793   5.872   0.523  14.207 -1.8168  0.4935  0.0735
18126TIP3    H275794   5.967   0.576  14.102  0.1425 -2.0444  0.4554
18127TIP3   OH275795   3.610   6.754   5.787  0.2959  0.3085 -0.1329
18127TIP3    H175796   3.551   6.827   5.803 -0.6630 -0.3149 -0.7326
18127TIP3    H275797   3.589   6.690   5.854  2.2870  1.1962  1.4621
18128TIP3   OH275798   3.066   4.239  17.083 -0.6908  0.0153 -0.2247
18128TIP3    H175799   2.995   4.251  17.019 -0.0244  2.5582 -0.5853
18128TIP3    H275800   3.053   4.310  17.146  0.9020 -0.1361  0.3091
18129TIP3   OH275801   1.667   5.377  14.075 -0.3356 -0.4523  0.4830
18129TIP3    H175802   1.652   5.284  14.096 -1.9139 -0.5307 -0.8104
18129TIP3    H275803   1.697   5.375  13.984 -0.7008  0.3204  0.3440
18130TIP3   OH275804   5.127   1.655  16.069  0.4039  0.1956 -0.2684
18130TIP3    H175805   5.174   1.579  16.034  0.3280 -0.2720  0.6040
18130TIP3    H275806   5.164   1.729  16.022  0.5764 -0.3655 -1.0434
18131TIP3   OH275807   3.356   5.029   1.700 -0.3393  0.0970  0.2906
18131TIP3    H175808   3.440   5.026   1.744  0.5880 -1.0659 -1.4475
18131TIP3    H275809   3.319   4.941   1.711 -1.2618  0.5357  0.8732
18132TIP3   OH275810   4.673   4.998   5.921 -0.5452 -0.3762  0.2775
18132TIP3    H175811   4.661   4.917   5.873 -1.9124  1.0966 -2.0765
18132TIP3    H275812   4.665   5.067   5.855 -2.7459  1.8445  2.6152
18133TIP3   OH275813   6.074   5.207  13.445 -0.1189  0.3328  0.3631
18133TIP3    H175814   6.128   5.239  13.373  0.8095  1.2114  1.4285
18133TIP3    H275815   6.097   5.114  13.453  0.0507  0.3189 -0.2132
18134TIP3   OH275816   1.280   0.502  15.579 -0.6293 -0.1071  0.3315
18134TIP3    H175817   1.302   0.471  15.491 -0.5307  1.5204 -0.2544
18134TIP3    H275818   1.197   0.460  15.600  0.2390 -1.9707  0.2602
18135TIP3   OH275819   6.451   2.767  10.986  0.3342 -0.1279  0.1376
18135TIP3    H175820   6.504   2.789  10.909 -0.0303  0.4207  0.0396
18135TIP3    H275821   6.501   2.803  11.060  0.5656 -0.4431  0.1357
18136TIP3   OH275822   2.550   6.190   3.865  0.3978  0.3582  0.5494
18136TIP3    H175823   2.479   6.200   3.928  0.5639 -0.3285  0.8561
18136TIP3    H275824   2.625   6.163   3.917  0.2109 -1.4996 -0.0745
18137TIP3   OH275825   0.623   1.656  12.318  0.1691 -0.8788 -0.0366
18137TIP3    H175826   0.598   1.636  12.409 -0.9271  0.5698  0.0195
18137TIP3    H275827   0.540   1.677  12.275  0.8819  0.2039 -0.9163
18138TIP3   OH275828   1.971   1.644   6.496 -0.4485  0.3166 -0.1297
18138TIP3    H175829   1.893   1.623   6.444 -0.8560 -2.1372  1.3203
18138TIP3    H275830   1.936   1.668   6.582  0.3466 -1.1418  0.6360
18139TIP3   OH275831   5.610   1.227   6.650  0.4415  0.1443  0.2198
18139TIP3    H175832   5.698   1.223   6.686  1.1427 -0.9307 -1.4951
18139TIP3    H275833   5.600   1.317   6.619  0.2193  0.7818  2.0121
18140TIP3   OH275834   6.134   2.203  14.264 -0.5533 -0.1499 -0.1882
18140TIP3    H175835   6.068   2.258  14.222  1.0822 -0.0544 -2.9045
18140TIP3    H275836   6.098   2.115  14.260 -0.5054 -0.1348 -1.8303
18141TIP3   OH275837   2.592   3.669  16.638  0.2255 -0.1587 -0.4529
18141TIP3    H175838   2.659   3.705  16.580  1.8550 -1.2657  0.6530
18141TIP3    H275839   2.509   3.687  16.594  1.3436 -0.2187 -2.6937
18142TIP3   OH275840   2.493   4.478   3.710  0.0615  0.1207  0.2876
18142TIP3    H175841   2.555   4.417   3.751 -0.7062 -1.0782 -0.2540
18142TIP3    H275842   2.408   4.452   3.744 -0.4439 -0.0649 -1.0529
18143TIP3   OH275843   3.276   2.271   1.984  0.2985 -0.0790  0.1023
18143TIP3    H175844   3.240   2.316   1.908  0.7592  0.8270  0.4034
18143TIP3    H275845   3.367   2.302   1.990 -0.2074  1.2470  2.0100
18144TIP3   OH275846   0.474   5.989  13.407  0.2316  0.0206 -0.2089
18144TIP3    H175847   0.494   6.082  13.418  0.0117 -0.0679  1.1533
18144TIP3    H275848   0.406   5.971  13.472  0.6435 -1.2093 -0.0854
18145TIP3   OH275849   4.071   3.518  15.333 -0.3185  0.1715  0.2932
18145TIP3    H175850   3.993   3.489  15.285  1.0280 -0.0975 -1.8570
18145TIP3    H275851   4.063   3.477  15.419 -1.4331 -1.7270 -0.6557
18146TIP3   OH275852   1.889   5.573   3.733  0.1976 -0.1754 -0.6942
18146TIP3    H175853   1.980   5.551   3.711  0.6803  0.3012  0.6996
18146TIP3    H275854   1.896   5.650   3.789 -0.8589 -1.5572  1.4822
18147TIP3   OH275855   1.819   2.638   5.214  0.0665  0.8222  0.2361
18147TIP3    H175856   1.906   2.660   5.179  0.6543 -1.1196  0.3605
18147TIP3    H275857   1.784   2.721   5.245  1.3001  1.8883 -1.0758
18148TIP3   OH275858   2.430   3.708   0.051  0.4441 -0.1568 -0.5077
18148TIP3    H175859   2.502   3.765   0.076 -0.3442  1.2684 -1.3777
18148TIP3    H275860   2.351   3.757   0.073 -0.2873 -1.5208  0.0621
18149TIP3   OH275861   5.074   2.642   2.776 -0.5411  0.0715 -0.5381
18149TIP3    H175862   5.092   2.622   2.684 -1.0969 -3.6613  0.0292
18149TIP3    H275863   5.144   2.599   2.824 -1.1962  0.5558  0.8914
18150TIP3   OH275864   2.119   1.172  13.008 -0.2576  0.0570 -0.1697
18150TIP3    H175865   2.132   1.262  12.978 -1.3021  0.3341  0.1745
18150TIP3    H275866   2.194   1.154  13.063  0.1926  0.5650 -0.6059
18151TIP3   OH275867   0.380   4.172   3.228  0.1216 -0.1217 -0.0549
18151TIP3    H175868   0.404   4.129   3.146 -1.1280 -1.0569  0.0305
18151TIP3    H275869   0.289   4.147   3.242  0.1443  0.4790  1.3423
18152TIP3   OH275870   4.261   5.235  13.702  0.0741  0.4121  0.6041
18152TIP3    H175871   4.223   5.200  13.782  1.0821  0.5829  1.1684
18152TIP3    H275872   4.186   5.257  13.647 -0.6444 -2.4269  0.2846
18153TIP3   OH275873   4.705   3.586   3.766  0.7641  0.2829  0.5267
18153TIP3    H175874   4.698   3.605   3.860  0.1956  0.0245  0.5404
18153TIP3    H275875   4.796   3.606   3.745  1.4988 -1.6250  1.5820
18154TIP3   OH275876   4.533   0.643  14.568  0.4062 -0.0507 -0.1452
18154TIP3    H175877   4.513   0.573  14.505 -0.0047 -0.1450  0.0904
18154TIP3    H275878   4.488   0.720  14.534 -0.2895 -0.2397  0.3334
18155TIP3   OH275879   2.996   3.500   0.595 -0.3521  0.4306 -0.1905
18155TIP3    H175880   2.953   3.567   0.647 -1.1598  0.3313 -0.7138
18155TIP3    H275881   3.088   3.527   0.592 -0.3025  0.4726  1.2141
18156TIP3   OH275882   2.147   3.263  16.634 -0.6234  0.6639  0.3313
18156TIP3    H175883   2.106   3.338  16.591  0.2606  1.0299  0.1105
18156TIP3    H275884   2.130   3.276  16.727 -1.1281  0.7279  0.2365
18157TIP3   OH275885   4.048   2.255  12.122  0.2578 -0.4917  0.0962
18157TIP3    H175886   4.072   2.179  12.174  0.4453 -0.2054  0.4340
18157TIP3    H275887   4.126   2.310  12.123 -0.0674 -0.0262  0.3454
18158TIP3   OH275888   3.486   3.259  14.609  0.0983  0.0503  0.2454
18158TIP3    H175889   3.416   3.305  14.656 -1.8833 -0.7600 -1.7191
18158TIP3    H275890   3.449   3.173  14.591  0.5125  0.4422 -3.0985
18159TIP3   OH275891   5.720   1.404  17.100  0.5438 -0.0295  0.2400
18159TIP3    H175892   5.693   1.477  17.156  1.5408  1.6477 -1.3433
18159TIP3    H275893   5.726   1.329  17.159 -1.6788  0.8608  1.7281
18160TIP3   OH275894   6.381   0.976  12.779  0.2396  0.0662 -0.1310
18160TIP3    H175895   6.333   0.939  12.854  1.2917 -0.1792  0.4414
18160TIP3    H275896   6.315   0.982  12.710  0.0623 -3.3600 -0.4411
18161TIP3   OH275897   5.508   1.394   1.739 -0.7743 -0.1246  0.0295
18161TIP3    H175898   5.526   1.461   1.673  2.5662  0.3608  1.2619
18161TIP3    H275899   5.594   1.370   1.773 -2.2087 -1.8576  2.7780
18162TIP3   OH275900   3.268   5.557   6.544  0.6057 -0.1140 -0.1627
18162TIP3    H175901   3.250   5.468   6.575  0.2018  0.4430  1.3047
18162TIP3    H275902   3.360   5.556   6.518  1.4738 -0.2847  2.5790
18163TIP3   OH275903   6.725   3.736  11.727 -0.6370  0.3861  0.2818
18163TIP3    H175904   6.715   3.641  11.738 -1.7703  0.4076 -0.3912
18163TIP3    H275905   6.740   3.769  11.815  0.9516 -0.5323  0.3962
18164TIP3   OH275906   2.275   6.655  13.776  0.3371 -0.3455  0.5358
18164TIP3    H175907   2.349   6.713  13.797  1.1211 -0.5372 -1.4686
18164TIP3    H275908   2.203   6.689  13.829  1.1078  1.6827  0.4029
18165TIP3   OH275909   5.979   6.584  15.268  0.3996 -0.1159 -0.0477
18165TIP3    H175910   5.962   6.589  15.174 -1.0718 -2.4340 -0.0043
18165TIP3    H275911   5.996   6.491  15.284 -3.0531 -0.5408  2.4059
18166TIP3   OH275912   5.805   1.042   6.450  0.5886  0.2674  0.4583
18166TIP3    H175913   5.768   1.013   6.366  0.2357  3.0479 -0.4404
18166TIP3    H275914   5.740   1.014   6.515 -1.2259  1.6194 -0.6837
18167TIP3   OH275915   6.113   1.989   5.394 -0.4019 -0.0999  0.0735
18167TIP3    H175916   6.177   2.028   5.335 -1.0462  1.2734  0.2474
18167TIP3    H275917   6.144   1.900   5.408 -1.4981 -1.3722 -4.2441
18168TIP3   OH275918   0.008   0.750  16.704  0.3084  0.2642 -0.0710
18168TIP3    H175919  -0.069   0.804  16.726  1.0531  1.5402 -0.4673
18168TIP3    H275920   0.062   0.753  16.782 -0.3345 -1.2204  0.4635
18169TIP3   OH275921   1.966   4.624   5.994  0.5880 -0.3440 -0.4039
18169TIP3    H175922   1.952   4.710   6.033 -1.4615 -0.2693 -1.1903
18169TIP3    H275923   1.943   4.562   6.064 -1.9828 -0.2033 -1.0136
18170TIP3   OH275924   3.266   5.955  14.179 -0.1130 -0.1963 -0.1752
18170TIP3    H175925   3.241   5.865  14.160 -1.2801  0.2562 -0.9018
18170TIP3    H275926   3.297   5.952  14.270  0.3398 -1.4077 -0.3507
18171TIP3   OH275927   2.071   2.033  11.099 -0.7854  0.3659 -0.1125
18171TIP3    H175928   2.040   2.004  11.185 -1.0435  0.6069 -0.1249
18171TIP3    H275929   2.152   2.080  11.117  0.6512 -1.9081 -0.2518
18172TIP3   OH275930   2.732   5.368   5.139  0.0078 -0.3075  0.3822
18172TIP3    H175931   2.678   5.424   5.194  0.5781  0.1140  0.5193
18172TIP3    H275932   2.813   5.417   5.126  0.5714 -1.1434  0.6159
18173TIP3   OH275933   5.393   0.848   1.453  0.0961 -0.0169  0.1974
18173TIP3    H175934   5.409   0.843   1.359 -1.6206 -0.6349 -0.0944
18173TIP3    H275935   5.405   0.940   1.475  0.5275  0.1282 -0.6103
18174TIP3   OH275936   5.433   6.066   5.614  0.1202 -0.5157 -0.1588
18174TIP3    H175937   5.406   6.036   5.528  0.4886 -1.1001 -0.0760
18174TIP3    H275938   5.401   5.999   5.674 -0.9218  0.3289  0.2670
18175TIP3   OH275939   3.801   1.311  10.517 -0.1896 -0.4663 -0.2398
18175TIP3    H175940   3.832   1.240  10.574  0.3274  0.5866  0.8371
18175TIP3    H275941   3.782   1.383  10.577  2.2842  1.4133 -1.5070
18176TIP3   OH275942   2.469   3.907   1.858  0.0081  0.4575 -0.1380
18176TIP3    H175943   2.448   3.903   1.764  1.3212 -0.1675 -0.4183
18176TIP3    H275944   2.509   3.823   1.877 -0.4205  0.5084  1.0440
18177TIP3   OH275945   4.571   6.163  15.239 -0.1353  0.2141  0.1219
18177TIP3    H175946   4.518   6.217  15.180 -0.2069 -0.0503 -0.0608
18177TIP3    H275947   4.634   6.119  15.181  0.7656  1.0784  0.4270
18178TIP3   OH275948   0.572   0.304   1.773 -0.1881  0.2139  0.4247
18178TIP3    H175949   0.536   0.291   1.685  1.2831 -0.2282 -0.1436
18178TIP3    H275950   0.652   0.354   1.760  0.4312 -0.4613  1.4279
18179TIP3   OH275951   3.256   2.892   5.143  0.0176 -0.6502 -0.3028
18179TIP3    H175952   3.240   2.862   5.053  1.1768  1.3000 -1.2329
18179TIP3    H275953   3.276   2.812   5.191 -0.8359 -1.7752 -1.7165
18180TIP3   OH275954   5.863   0.225  16.119  0.3319 -0.1290  0.2266
18180TIP3    H175955   5.839   0.153  16.060 -2.9907  0.6170  0.4434
18180TIP3    H275956   5.958   0.230  16.114  0.4605 -2.6248 -2.0273
18181TIP3   OH275957   0.341   2.929  11.080  0.3738  0.9141  0.2001
18181TIP3    H175958   0.348   2.876  11.000 -2.4820 -2.1787  1.7530
18181TIP3    H275959   0.296   3.009  11.052 -0.0001  0.1861 -1.3880
18182TIP3   OH275960   3.166   4.600   0.965  0.1527  0.0308 -0.3263
18182TIP3    H175961   3.239   4.554   0.923 -0.4930 -0.2285 -1.1771
18182TIP3    H275962   3.095   4.537   0.966 -0.3286  0.5660 -0.2839
18183TIP3   OH275963   2.109   2.482   0.893 -0.3424 -0.2237 -0.1643
18183TIP3    H175964   2.032   2.494   0.948 -0.6310  0.0157 -0.6136
18183TIP3    H275965   2.159   2.413   0.935 -0.5114  0.0258  0.4537
18184TIP3   OH275966   4.747   1.473   0.994 -0.4584  0.4973  0.1686
18184TIP3    H175967   4.729   1.552   1.045 -1.8340  0.4668 -0.2118
18184TIP3    H275968   4.793   1.505   0.916 -1.8570  1.0963 -0.4565
18185TIP3   OH275969   4.445   4.152  12.245  0.0579 -0.5167  0.1870
18185TIP3    H175970   4.401   4.072  12.272  0.9394 -1.6655 -1.6059
18185TIP3    H275971   4.537   4.139  12.268  0.1890  0.0375  0.0147
18186TIP3   OH275972   6.446   5.836   5.524 -0.2336  0.6834 -0.2390
18186TIP3    H175973   6.511   5.769   5.539 -0.8328  0.1774  0.1374
18186TIP3    H275974   6.490   5.918   5.547  0.1732  0.3231  0.2740
18187TIP3   OH275975   3.466   1.363  12.573  0.0455 -0.2589 -0.8037
18187TIP3    H175976   3.532   1.433  12.577 -1.1086  0.8039  1.4135
18187TIP3    H275977   3.494   1.301  12.641 -1.5950  0.6157  0.7438
18188TIP3   OH275978   0.188   5.715  13.050 -0.8289  0.2113 -0.3017
18188TIP3    H175979   0.159   5.636  13.004  0.5926 -1.4153  1.4628
18188TIP3    H275980   0.269   5.739  13.006  0.3005 -1.0898  0.9866
18189TIP3   OH275981   2.943   5.345  15.257 -0.6817  0.1806  0.0011
18189TIP3    H175982   2.897   5.402  15.319  0.4642 -0.3459  1.3754
18189TIP3    H275983   3.004   5.294  15.311 -0.9844 -1.6712 -1.2985
18190TIP3   OH275984   3.272   4.146   3.588  0.3813  0.0995  0.2023
18190TIP3    H175985   3.196   4.163   3.533  0.7976  0.6174 -0.2151
18190TIP3    H275986   3.286   4.051   3.581 -1.4190 -0.3710  1.8546
18191TIP3   OH275987   0.917   5.761   1.249 -0.1627 -0.8705 -0.8457
18191TIP3    H175988   0.889   5.702   1.178 -0.3717  0.1808 -1.6761
18191TIP3    H275989   0.989   5.811   1.211 -1.9504  1.5410 -1.2799
18192TIP3   OH275990   4.816   3.836  12.143  0.4664 -0.3829  0.2554
18192TIP3    H175991   4.912   3.827  12.141  0.6861  1.5113  0.6148
18192TIP3    H275992   4.798   3.879  12.226 -0.4655  1.5239 -0.8691
18193TIP3   OH275993   2.840   0.188   3.923 -0.2272 -0.0579 -0.6782
18193TIP3    H175994   2.750   0.174   3.953 -0.6623  0.4920 -1.6932
18193TIP3    H275995   2.888   0.210   4.003 -0.6980 -1.6281  0.0924
18194TIP3   OH275996   5.929   0.867  16.956 -0.4603  0.2635 -0.0372
18194TIP3    H175997   5.933   0.773  16.942  0.9388 -0.1182  2.3094
18194TIP3    H275998   5.956   0.878  17.048  1.0063  3.0663 -0.7069
18195TIP3   OH275999   0.135   4.943   4.640  0.5799  0.1304 -0.6716
18195TIP3    H176000   0.050   4.903   4.619  1.2390 -1.6772 -0.1222
18195TIP3    H276001   0.190   4.869   4.666  2.9289  0.9917 -2.8069
18196TIP3   OH276002   1.366   5.557   0.642  0.4534 -0.7703 -0.2859
18196TIP3    H176003   1.378   5.650   0.626  1.3003 -0.7217  0.5453
18196TIP3    H276004   1.276   5.550   0.676  0.2703 -0.3086 -0.6654
18197TIP3   OH276005   3.736   3.441  12.968  0.3931 -0.4153  0.6963
18197TIP3    H176006   3.641   3.432  12.962  0.2892 -0.7020  2.2712
18197TIP3    H276007   3.767   3.351  12.980  0.7773 -0.2328  1.0803
18198TIP3   OH276008   6.239   3.077  12.110 -0.3303  0.3698 -0.1393
18198TIP3    H176009   6.177   3.136  12.069 -1.0112 -0.6809 -0.6746
18198TIP3    H276010   6.253   3.112  12.198 -0.1756  1.6929 -0.6772
18199TIP3   OH276011   3.443   4.555   5.005 -0.1524  0.5313 -0.5620
18199TIP3    H176012   3.474   4.628   5.059 -0.3992 -1.7204  2.8960
18199TIP3    H276013   3.497   4.481   5.032 -0.8692 -0.9454 -2.9093
18200TIP3   OH276014   0.733   0.491  15.599  0.3782 -0.1707  0.2275
18200TIP3    H176015   0.657   0.519  15.548  0.8106  1.8752  0.6137
18200TIP3    H276016   0.803   0.481  15.534  0.2653 -0.1613  0.1046
18201TIP3   OH276017   2.765   3.434   2.250 -0.4561 -0.2627  0.1316
18201TIP3    H176018   2.730   3.346   2.264 -0.2820 -0.3785 -0.1538
18201TIP3    H276019   2.801   3.432   2.161  0.5534 -0.2415  0.5260
18202TIP3   OH276020   0.345   2.427  16.388 -0.2019 -0.0956  0.3854
18202TIP3    H176021   0.387   2.396  16.308 -1.3236 -2.4000  0.6084
18202TIP3    H276022   0.384   2.513  16.404  0.6970  0.0354 -2.1149
18203TIP3   OH276023   1.981   1.680   2.262 -0.3648 -0.3058  0.9111
18203TIP3    H176024   2.071   1.685   2.294 -0.4791  0.9288  1.1034
18203TIP3    H276025   1.928   1.712   2.334 -0.8659 -0.0593  0.4366
18204TIP3   OH276026   4.623   6.067  15.899  0.4023  0.1812 -0.4867
18204TIP3    H176027   4.553   6.056  15.835  0.5971  0.6358 -0.7801
18204TIP3    H276028   4.689   6.002  15.875  1.4891  1.7889 -2.1330
18205TIP3   OH276029   1.001   6.183   2.647  0.5438  0.1526  0.1215
18205TIP3    H176030   0.955   6.184   2.730  0.1416 -0.1144 -0.0941
18205TIP3    H276031   1.023   6.275   2.630 -0.8226  0.4419 -0.2640
18206TIP3   OH276032   2.381   2.106  15.970  0.1662 -0.3606 -0.1997
18206TIP3    H176033   2.429   2.170  15.917 -0.2109 -1.5053 -1.9822
18206TIP3    H276034   2.328   2.160  16.029 -1.1521  1.0853 -2.5279
18207TIP3   OH276035   1.828   2.499  10.554  0.1401  0.0578  0.0534
18207TIP3    H176036   1.745   2.457  10.577 -0.0074 -0.1924 -0.8958
18207TIP3    H276037   1.837   2.485  10.459  0.9378  0.6642  0.0263
18208TIP3   OH276038   2.651   3.651  15.458  0.1406 -0.3169 -0.0825
18208TIP3    H176039   2.647   3.574  15.514 -0.5413  0.7957  1.4635
18208TIP3    H276040   2.719   3.630  15.394  0.7381 -1.7638  0.9631
18209TIP3   OH276041   0.292   4.284   1.284  0.4028 -0.2684  0.9965
18209TIP3    H176042   0.357   4.321   1.224 -3.1184  2.4059 -1.5998
18209TIP3    H276043   0.272   4.198   1.249  0.8543 -0.1200  0.3765
18210TIP3   OH276044   4.888   2.388  12.235 -0.0822  0.1642 -0.1449
18210TIP3    H176045   4.793   2.383  12.227 -0.1668  0.4010  0.6712
18210TIP3    H276046   4.915   2.444  12.162 -0.3379 -1.5968 -1.6758
18211TIP3   OH276047   1.613   4.762   1.680 -0.3471  0.3342 -0.2985
18211TIP3    H176048   1.535   4.814   1.699 -0.1983  1.1850 -1.8304
18211TIP3    H276049   1.686   4.818   1.706 -0.2054 -0.8149  1.9837
18212TIP3   OH276050   0.536   6.325   1.098  0.1090  0.3821 -0.2608
18212TIP3    H176051   0.612   6.310   1.042  0.2751  0.5981 -0.0955
18212TIP3    H276052   0.550   6.267   1.173 -0.1835 -0.0117 -0.5030
18213TIP3   OH276053   2.546   3.935   0.152 -0.0838  0.1643  0.4309
18213TIP3    H176054   2.638   3.962   0.155 -0.4699  1.5038  1.7238
18213TIP3    H276055   2.507   3.992   0.086  0.1992 -1.1496 -0.9137
18214TIP3   OH276056   1.526   6.723   5.377  0.4906  0.5274 -0.0829
18214TIP3    H176057   1.487   6.774   5.306  0.2153  0.3547 -0.0588
18214TIP3    H276058   1.584   6.660   5.333  1.9929  1.8260 -0.0345
18215TIP3   OH276059   0.996   4.468   2.682 -0.5400  0.3797  0.1375
18215TIP3    H176060   0.998   4.547   2.628 -2.5763 -1.1624 -2.4556
18215TIP3    H276061   0.912   4.472   2.727 -0.1827  0.1802  0.8336
18216TIP3   OH276062   5.349   1.109   5.516  0.3590  0.3550 -0.0264
18216TIP3    H176063   5.393   1.049   5.576  1.0465 -0.6165 -1.4373
18216TIP3    H276064   5.418   1.168   5.486 -0.3109  1.9077  1.3441
18217TIP3   OH276065   2.677   6.740   5.855 -0.3815  0.6025 -0.1433
18217TIP3    H176066   2.616   6.749   5.929 -0.2802 -0.0685  0.0237
18217TIP3    H276067   2.621   6.726   5.779 -0.5274  2.0382 -0.3370
18218TIP3   OH276068   6.432   3.341   2.473  0.5120  0.1631  0.5451
18218TIP3    H176069   6.381   3.404   2.422  0.1552 -1.1035 -0.7172
18218TIP3    H276070   6.519   3.380   2.481  0.3294  0.7632 -0.3085
18219TIP3   OH276071   5.030   1.259  13.722 -0.2113 -0.3364  0.0877
18219TIP3    H176072   5.114   1.213  13.728 -0.5994 -1.1346 -0.4231
18219TIP3    H276073   5.027   1.290  13.632  0.0014  0.6288  0.4018
18220TIP3   OH276074   6.497   4.511  11.658 -0.0799 -0.4443 -0.1122
18220TIP3    H176075   6.431   4.563  11.612  0.7267 -1.5420 -2.6468
18220TIP3    H276076   6.571   4.570  11.668 -0.6585  0.1534  0.9219
18221TIP3   OH276077   6.728   1.103  15.735  0.6163 -0.1915 -0.1501
18221TIP3    H176078   6.663   1.123  15.802  1.1396  3.1124 -0.4884
18221TIP3    H276079   6.727   1.179  15.677  3.5216 -0.8371 -1.1968
18222TIP3   OH276080   3.754   6.444  12.168  0.3990  0.1396  0.4865
18222TIP3    H176081   3.713   6.368  12.208 -0.6045  0.4885  0.1605
18222TIP3    H276082   3.804   6.409  12.094  0.0262 -0.2194  0.4029
18223TIP3   OH276083   4.679   4.293  15.041 -0.3411 -0.1117 -0.2444
18223TIP3    H176084   4.683   4.292  14.946 -1.5329 -0.4153 -0.3137
18223TIP3    H276085   4.680   4.201  15.066  3.0081 -0.0435  0.2526
18224TIP3   OH276086   1.944   2.223   3.309  0.1425 -0.0876  1.1703
18224TIP3    H176087   1.873   2.162   3.286 -0.8902  0.5581  2.4580
18224TIP3    H276088   1.985   2.246   3.226 -0.8688 -0.8488  0.4363
18225TIP3   OH276089   2.683   4.785   1.744  0.2052  0.1339 -0.1331
18225TIP3    H176090   2.682   4.841   1.822  0.1562  0.3115 -0.2626
18225TIP3    H276091   2.685   4.846   1.670 -1.8680  0.0148 -0.3399
18226TIP3   OH276092   1.468   5.276  12.932  0.0366 -0.6117 -0.2852
18226TIP3    H176093   1.414   5.312  13.002  0.9298 -0.9822  0.6174
18226TIP3    H276094   1.421   5.198  12.903 -0.4725 -0.3083 -0.2877
18227TIP3   OH276095   3.312   2.061  15.225 -0.0296  0.2654 -0.4776
18227TIP3    H176096   3.391   2.042  15.174 -2.3062 -0.7519 -3.8838
18227TIP3    H276097   3.289   1.977  15.266 -0.1485  0.1916 -0.6947
18228TIP3   OH276098   0.118   2.148  14.749 -0.2467  0.0104 -0.0444
18228TIP3    H176099   0.109   2.177  14.658  1.3190 -1.5052 -0.7527
18228TIP3    H276100   0.194   2.195  14.782 -0.6265  0.3245  0.4053
18229TIP3   OH276101   0.553   5.721  10.993 -0.1545  0.0558  0.1262
18229TIP3    H176102   0.614   5.741  10.922 -0.1440  0.2821  0.1958
18229TIP3    H276103   0.518   5.635  10.972 -1.7048  0.9731 -1.2657
18230TIP3   OH276104   2.619   5.763  15.067  0.3756  0.9706 -0.1552
18230TIP3    H176105   2.644   5.773  14.975  0.5486  1.5974 -0.0417
18230TIP3    H276106   2.675   5.824  15.115  0.2150  0.7234  0.3583
18231TIP3   OH276107   5.593   1.516  14.670 -0.3437 -0.3745  0.1193
18231TIP3    H176108   5.509   1.477  14.693 -0.7295 -0.1625 -0.8470
18231TIP3    H276109   5.655   1.443  14.672 -0.4204 -0.4188  1.4212
18232TIP3   OH276110   1.230   4.012   0.853  0.5278 -0.0345 -1.1169
18232TIP3    H176111   1.300   4.073   0.875  0.6685 -0.8451  0.9478
18232TIP3    H276112   1.173   4.060   0.794  0.1592  2.4287  1.0928
18233TIP3   OH276113   6.199   3.113   4.387 -0.3328  0.7653  0.1005
18233TIP3    H176114   6.187   3.097   4.481 -0.2035 -2.1739 -0.2787
18233TIP3    H276115   6.165   3.202   4.373  0.8127  1.7923  3.0927
18234TIP3   OH276116   2.700   0.911  15.281  0.2953 -0.0617 -0.5746
18234TIP3    H176117   2.717   0.976  15.213 -1.4475  0.6899 -0.3418
18234TIP3    H276118   2.701   0.961  15.363  1.6393 -0.8272 -0.0919
18235TIP3   OH276119   4.860   0.207  16.085  0.1995 -0.6496  0.0943
18235TIP3    H176120   4.849   0.199  16.180  0.6651 -0.1280  0.1979
18235TIP3    H276121   4.882   0.299  16.071  0.4269 -0.7856 -0.4946
18236TIP3   OH276122   0.567   3.497  15.654 -0.3200  0.3533 -0.0034
18236TIP3    H176123   0.551   3.550  15.732 -0.4235  0.2348  0.0570
18236TIP3    H276124   0.509   3.421  15.665  0.0199  0.0983  0.0377
18237TIP3   OH276125   6.093   2.996   5.183 -0.8562  0.1307  0.2147
18237TIP3    H176126   6.102   2.901   5.193 -2.8119 -0.0777  0.2323
18237TIP3    H276127   6.091   3.009   5.088 -1.1095  0.1021  0.2165
18238TIP3   OH276128   0.388   0.472   2.486 -0.3934  0.5150  0.6040
18238TIP3    H176129   0.390   0.543   2.423  0.1985  0.0105  0.0379
18238TIP3    H276130   0.383   0.393   2.432 -0.9107  0.1241  1.2179
18239TIP3   OH276131   3.891   3.603  14.533  0.2483 -0.0286  0.6404
18239TIP3    H176132   3.830   3.546  14.581 -1.4518  1.7941  0.7938
18239TIP3    H276133   3.962   3.620  14.596 -1.0156  0.8258  1.9044
18240TIP3   OH276134   1.059   4.945  11.954 -0.0750 -0.1810  0.4028
18240TIP3    H176135   1.150   4.920  11.941  0.2199  1.1087 -0.1509
18240TIP3    H276136   1.036   4.994  11.875 -1.4854 -1.1181  0.2077
18241TIP3   OH276137   3.583   0.859  16.467 -0.3380 -0.3770  0.6646
18241TIP3    H176138   3.555   0.768  16.477 -0.1520 -0.3849  1.1437
18241TIP3    H276139   3.569   0.878  16.374  0.6157 -1.2261  0.3283
18242TIP3   OH276140   4.378   6.602   1.492 -0.4238 -0.0860 -0.0261
18242TIP3    H176141   4.375   6.538   1.421 -1.5239 -0.5921  0.4541
18242TIP3    H276142   4.303   6.580   1.547  0.3756  0.3264  1.2685
18243TIP3   OH276143   5.952   0.887   2.150  0.0803  0.0497 -0.4363
18243TIP3    H176144   6.006   0.910   2.225 -0.3538 -0.3180 -0.0058
18243TIP3    H276145   6.015   0.864   2.082  0.5096  1.5559 -0.5888
18244TIP3   OH276146   4.892   3.241  13.600  0.2505 -0.0049 -0.1060
18244TIP3    H176147   4.939   3.290  13.668  2.3923 -0.1622 -1.3839
18244TIP3    H276148   4.800   3.263  13.614  0.6818  0.5730  2.3464
18245TIP3   OH276149   0.575   6.716   5.753  0.0285  0.9550  0.2806
18245TIP3    H176150   0.607   6.645   5.698  0.9712  0.3266  1.5694
18245TIP3    H276151   0.480   6.714   5.743 -0.1327 -1.6086  1.5168
18246TIP3   OH276152   4.535   5.585  15.689 -0.3284 -0.3525 -0.4548
18246TIP3    H176153   4.520   5.643  15.614  1.5582  2.0166  0.8537
18246TIP3    H276154   4.538   5.644  15.765 -0.9731 -2.5108  1.3628
18247TIP3   OH276155   5.045   5.167   2.849  0.2003 -0.0872  0.9076
18247TIP3    H176156   5.050   5.202   2.760 -0.7055  0.9409  1.2470
18247TIP3    H276157   4.953   5.174   2.873  0.5054  0.1066  2.1030
18248TIP3   OH276158   4.256   6.678  14.456  0.1264 -0.2161 -0.2223
18248TIP3    H176159   4.333   6.632  14.490  0.4704  0.1211 -0.5323
18248TIP3    H276160   4.243   6.751  14.517  1.6810  1.3074 -1.6258
18249TIP3   OH276161   3.984   2.412   2.183 -0.1192 -0.0462 -0.0188
18249TIP3    H176162   4.039   2.489   2.197  1.4047 -0.7229 -1.9060
18249TIP3    H276163   3.977   2.405   2.088 -1.0718 -1.6763  0.1425
18250TIP3   OH276164   4.739   1.349  15.573 -0.3011  0.3609 -0.1102
18250TIP3    H176165   4.682   1.399  15.631  0.4717  0.1637  0.8521
18250TIP3    H276166   4.694   1.349  15.488 -0.6272  2.1085  0.0375
18251TIP3   OH276167   5.241   4.299  13.742  0.3086 -0.6404 -0.9066
18251TIP3    H176168   5.329   4.321  13.711  0.7270 -2.7861 -1.4089
18251TIP3    H276169   5.186   4.307  13.664  0.4137 -1.1260 -1.0310
18252TIP3   OH276170   3.436   1.271   5.598  0.4895  0.1482 -0.0210
18252TIP3    H176171   3.472   1.186   5.623  1.7178  0.6303 -0.1014
18252TIP3    H276172   3.377   1.294   5.670  1.1058 -0.1976  0.6033
18253TIP3   OH276173   3.667   4.918   2.604 -0.3016  1.0892  0.0313
18253TIP3    H176174   3.626   4.873   2.678 -0.1185  2.6791  1.1419
18253TIP3    H276175   3.618   4.887   2.527 -2.3613  1.4851  1.1032
18254TIP3   OH276176   1.438   1.958  15.727  0.5599 -0.1442 -0.0963
18254TIP3    H176177   1.484   1.958  15.811  1.8095  0.2765 -0.7336
18254TIP3    H276178   1.440   1.867  15.698 -2.2757 -0.8358  1.5016
18255TIP3   OH276179   3.414   4.800  17.160 -0.2408  0.1635  0.5414
18255TIP3    H176180   3.466   4.819  17.082 -1.2059  0.8779  0.0639
18255TIP3    H276181   3.434   4.871  17.221  0.5571 -0.4248  0.9867
18256TIP3   OH276182   6.221   4.124   1.307 -0.3421 -0.6569  0.2553
18256TIP3    H176183   6.316   4.122   1.304 -0.3451 -0.3009 -2.4629
18256TIP3    H276184   6.195   4.031   1.304 -0.0649 -0.7204 -0.3266
18257TIP3   OH276185   3.970   4.673  12.785 -0.2136 -0.1779  0.6744
18257TIP3    H176186   4.034   4.633  12.726  0.0819  0.1602  0.7648
18257TIP3    H276187   4.008   4.758  12.808  0.2168 -0.7714  2.2589
18258TIP3   OH276188   4.465   3.680   4.156  0.5825 -0.0009 -0.1474
18258TIP3    H176189   4.557   3.657   4.172  1.1461  1.8094 -0.6453
18258TIP3    H276190   4.467   3.745   4.086 -1.1354 -0.2894 -0.5241
18259TIP3   OH276191   2.949   0.051   4.298  0.3564 -0.0732 -0.1624
18259TIP3    H176192   2.973   0.094   4.380  0.3160  1.9610 -1.1607
18259TIP3    H276193   2.905  -0.029   4.325  0.3431  0.5425  1.8012
18260TIP3   OH276194   6.719   3.789  12.208 -0.2959 -0.0193  0.4137
18260TIP3    H176195   6.786   3.724  12.228 -2.5723 -2.6982 -0.0519
18260TIP3    H276196   6.672   3.802  12.290 -0.4579  0.2989  0.2723
18261TIP3   OH276197   3.560   5.271   0.519  0.0178  0.1775 -0.2087
18261TIP3    H176198   3.466   5.257   0.529  0.1669  0.2698  1.5596
18261TIP3    H276199   3.597   5.255   0.606  1.4473  1.6216 -0.4875
18262TIP3   OH276200   3.248   0.577   1.805  0.3152 -0.4486  0.3526
18262TIP3    H176201   3.182   0.537   1.862  0.1728 -2.1235 -0.8872
18262TIP3    H276202   3.324   0.590   1.862 -0.1508 -1.1434  1.1645
18263TIP3   OH276203   6.199   0.247   6.171  0.0296 -0.0088  0.8290
18263TIP3    H176204   6.252   0.173   6.142  1.9082  1.8018 -0.6817
18263TIP3    H276205   6.136   0.209   6.233  1.4512 -2.6828  0.7794
18264TIP3   OH276206   6.272   1.102   4.099 -0.5018  0.3148 -0.2526
18264TIP3    H176207   6.362   1.097   4.067 -0.5884 -1.1312 -0.3582
18264TIP3    H276208   6.235   1.178   4.056  0.9417  1.5014  0.5231
18265TIP3   OH276209   3.957   5.503   4.676  0.0721  0.8394  0.2302
18265TIP3    H176210   3.884   5.507   4.614  0.5516  0.4529 -0.3725
18265TIP3    H276211   4.014   5.434   4.641  0.8854  1.3534  0.5170
18266TIP3   OH276212   4.484   6.341  14.758  0.2688  0.3556 -0.3849
18266TIP3    H176213   4.395   6.308  14.766  0.1051  0.7641 -0.4687
18266TIP3    H276214   4.483   6.423  14.809  0.6859  0.1833 -0.1002
18267TIP3   OH276215   6.335   5.261  16.471  0.1837 -0.0511  0.5383
18267TIP3    H176216   6.427   5.282  16.459  0.7487 -0.3637  3.4905
18267TIP3    H276217   6.329   5.167  16.456 -0.1317  0.2764 -1.6921
18268TIP3   OH276218   1.433   2.429  12.839 -0.3677 -0.2887  0.1165
18268TIP3    H176219   1.379   2.433  12.918  0.9882 -0.2595  1.0778
18268TIP3    H276220   1.394   2.358  12.788 -2.7314  1.2412 -0.3628
18269TIP3   OH276221   6.462   3.444  16.642  0.6391  0.3158  0.0003
18269TIP3    H176222   6.446   3.370  16.700  1.4016  0.0047 -0.1684
18269TIP3    H276223   6.505   3.406  16.565  1.9555  1.0472  0.3422
18270TIP3   OH276224   3.347   5.034  13.848 -0.7107  0.4969 -0.4429
18270TIP3    H176225   3.296   5.012  13.926 -0.5205  2.5172  0.2963
18270TIP3    H276226   3.292   5.003  13.775 -1.0763 -1.0483  0.4410
18271TIP3   OH276227   1.166   0.070  16.456  0.1749 -0.8748 -0.2467
18271TIP3    H176228   1.158   0.089  16.550 -1.9431  0.4031 -0.6196
18271TIP3    H276229   1.075   0.065  16.425  0.8125  0.4517 -2.5366
18272TIP3   OH276230   1.606   1.431  12.617 -0.0863  0.0361  0.6358
18272TIP3    H176231   1.594   1.360  12.554 -1.3379 -0.6902  1.6578
18272TIP3    H276232   1.587   1.393  12.702 -0.9534  1.6106  1.2012
18273TIP3   OH276233   3.751   6.331   1.322 -0.1187 -0.3095  0.0205
18273TIP3    H176234   3.815   6.396   1.351  0.0978 -1.1431  1.5434
18273TIP3    H276235   3.676   6.382   1.293  0.8241  0.6627 -0.8274
18274TIP3   OH276236   1.566   0.722  16.886  0.0651 -0.3458  0.4921
18274TIP3    H176237   1.572   0.723  16.981 -4.0221 -0.2510  0.9204
18274TIP3    H276238   1.617   0.798  16.858 -0.5813  1.0739  2.8594
18275TIP3   OH276239   1.627   2.376  16.294  0.0473 -0.5114 -0.0311
18275TIP3    H176240   1.683   2.302  16.269  1.0295  0.3128 -0.3173
18275TIP3    H276241   1.652   2.447  16.235 -0.2362  0.3277  0.8313
18276TIP3   OH276242   4.417   4.561   0.814  0.4855 -0.5198  0.1428
18276TIP3    H176243   4.346   4.538   0.875 -0.4299  0.9604 -0.2925
18276TIP3    H276244   4.376   4.622   0.752  1.3238 -2.1571 -2.1342
18277TIP3   OH276245   4.327   3.717  11.937  0.5705  0.1961  0.5259
18277TIP3    H176246   4.231   3.712  11.941  0.5888 -0.8326  0.1813
18277TIP3    H276247   4.348   3.804  11.969 -0.4806  0.4124  0.6778
18278TIP3   OH276248   4.550   3.451   2.054 -0.3360  0.5251  0.5038
18278TIP3    H176249   4.541   3.431   2.147  0.7518  0.0954  0.5351
18278TIP3    H276250   4.630   3.504   2.049 -0.5718  0.8276 -0.1462
18279TIP3   OH276251   2.464   5.822   5.499  0.3059  0.7832  0.3219
18279TIP3    H176252   2.495   5.731   5.503  1.2243  1.0494 -0.2896
18279TIP3    H276253   2.461   5.850   5.590  1.1319  0.4836  0.4528
18280TIP3   OH276254   0.545   2.451  14.131 -0.0415 -0.0541 -0.8226
18280TIP3    H176255   0.569   2.359  14.125 -1.1661 -0.3732 -0.6283
18280TIP3    H276256   0.508   2.461  14.219  2.7281  1.2707  0.3503
18281TIP3   OH276257   4.655   0.432   4.921  0.2505  0.3139 -0.5279
18281TIP3    H176258   4.656   0.468   5.010 -1.9031  0.1980 -0.3982
18281TIP3    H276259   4.736   0.382   4.914  1.1923  1.5862  0.8209
18282TIP3   OH276260   6.500   1.898   1.167 -0.3334  0.1372  0.1500
18282TIP3    H176261   6.497   1.980   1.117  0.0360 -0.7990 -1.4703
18282TIP3    H276262   6.574   1.909   1.227 -1.5539  1.7699  1.4621
18283TIP3   OH276263   4.930   0.847   4.621 -0.1151 -0.2555  0.3819
18283TIP3    H176264   4.972   0.761   4.631  0.9908  0.4067  1.6891
18283TIP3    H276265   5.001   0.910   4.628 -1.0218  0.8123  0.2467
18284TIP3   OH276266   5.072   4.827  15.544  0.4043  0.3205 -0.1557
18284TIP3    H176267   4.991   4.777  15.542  0.8457 -0.3949 -1.2447
18284TIP3    H276268   5.130   4.778  15.602  0.0409  0.8762  0.6884
18285TIP3   OH276269   5.824   0.170   0.968  0.1723 -0.1971  0.0709
18285TIP3    H176270   5.916   0.172   0.994  0.4145 -1.4856 -0.6127
18285TIP3    H276271   5.798   0.078   0.976 -0.3477 -0.3035 -2.0382
18286TIP3   OH276272   0.296   1.610  14.793  0.3748 -0.1937 -0.7215
18286TIP3    H176273   0.264   1.649  14.712  2.3978 -0.0219 -1.4865
18286TIP3    H276274   0.328   1.685  14.844 -1.6797 -0.1886  0.6856
18287TIP3   OH276275   4.438   6.339  16.197 -0.1585  0.1885  0.2632
18287TIP3    H176276   4.458   6.416  16.145 -0.3352  1.9662  2.6581
18287TIP3    H276277   4.361   6.301  16.154 -0.0380  1.2877 -1.0052
18288TIP3   OH276278   1.339   3.517   2.738  0.8503 -0.0062 -0.7320
18288TIP3    H176279   1.388   3.441   2.771  0.1324 -0.5919 -1.0122
18288TIP3    H276280   1.289   3.484   2.664 -0.0633  0.5565 -0.3870
18289TIP3   OH276281   2.966   2.445   4.850 -0.8575 -0.5863  0.0102
18289TIP3    H176282   3.030   2.488   4.906 -0.7641 -0.7746  0.0482
18289TIP3    H276283   3.008   2.440   4.764 -1.9311  1.9456 -0.7493
18290TIP3   OH276284   6.786   3.263   3.639  0.0297 -0.3452 -0.8097
18290TIP3    H176285   6.810   3.320   3.566  1.1176 -1.2371 -1.1618
18290TIP3    H276286   6.858   3.271   3.700 -1.6732  1.8326  1.1191
18291TIP3   OH276287   2.209   5.910  11.649  0.2560 -0.2428 -0.2353
18291TIP3    H176288   2.276   5.938  11.585 -0.3891  1.1517 -0.3390
18291TIP3    H276289   2.259   5.881  11.725  1.0065 -0.3587 -0.7615
18292TIP3   OH276290   3.032   5.696   2.844 -0.3673 -0.4172  0.3744
18292TIP3    H176291   3.006   5.739   2.763  0.1763 -0.1340  0.3392
18292TIP3    H276292   3.122   5.727   2.859 -0.1486 -1.1527  0.6181
18293TIP3   OH276293   6.731   5.700  10.240  0.5014  0.2511  0.0070
18293TIP3    H176294   6.640   5.673  10.249  0.2996  0.5867 -0.8821
18293TIP3    H276295   6.736   5.783  10.288  0.7809 -0.6151  1.5410
18294TIP3   OH276296   0.723   1.834  14.621 -0.3237 -0.1485 -0.3818
18294TIP3    H176297   0.702   1.780  14.697  0.6075  0.9120  0.6805
18294TIP3    H276298   0.799   1.791  14.582 -0.2660 -0.2166 -0.1972
18295TIP3   OH276299   3.095   5.127  17.084 -0.3970 -0.5180 -0.1448
18295TIP3    H176300   3.154   5.166  17.020 -1.8717 -0.5051 -1.5414
18295TIP3    H276301   3.126   5.161  17.168  0.1930  1.3088 -1.0384
18296TIP3   OH276302   2.182   4.459   1.657  0.3495 -0.4900  0.5896
18296TIP3    H176303   2.185   4.538   1.710  0.0075 -0.5359  0.6815
18296TIP3    H276304   2.120   4.479   1.587  1.4779 -0.1065 -0.3345
18297TIP3   OH276305   6.205   0.678  15.346 -0.0574 -0.2542  0.0438
18297TIP3    H176306   6.203   0.774  15.348 -2.8087 -0.1509 -1.8967
18297TIP3    H276307   6.291   0.655  15.380  0.5965  2.8860  0.8190
18298TIP3   OH276308   6.324   6.479  14.654  0.3302 -0.1039 -0.0724
18298TIP3    H176309   6.245   6.425  14.657  2.0714 -2.8262  0.7526
18298TIP3    H276310   6.315   6.530  14.574 -1.8056 -1.0233 -0.4996
18299TIP3   OH276311   5.012   2.617   6.318 -0.2480 -0.3193 -0.0106
18299TIP3    H176312   4.919   2.636   6.307 -0.8639 -0.2003  4.0175
18299TIP3    H276313   5.014   2.531   6.360  1.3043  0.4713  1.6356
18300TIP3   OH276314   5.972   3.622   5.904  0.1169 -0.4945  0.3227
18300TIP3    H176315   5.918   3.623   5.826 -1.0853  1.9066  1.0971
18300TIP3    H276316   5.921   3.571   5.968 -1.2894  1.6667  1.0156
18301TIP3   OH276317   4.649   1.229   0.220  0.1416  0.6432 -0.3154
18301TIP3    H176318   4.704   1.255   0.294 -1.0709  1.4846  0.3131
18301TIP3    H276319   4.669   1.136   0.207 -0.2542  0.2515  1.6312
18302TIP3   OH276320   3.736   5.619  13.158 -0.1159  0.2067 -0.0554
18302TIP3    H176321   3.722   5.533  13.118 -1.1282 -1.1515  2.9268
18302TIP3    H276322   3.815   5.652  13.115 -1.3785 -0.7711 -3.4451
18303TIP3   OH276323   5.708   0.023   3.278 -0.7885  0.0270 -0.3098
18303TIP3    H176324   5.766   0.044   3.205 -0.1554  0.4045  0.2823
18303TIP3    H276325   5.758  -0.040   3.331 -1.4149 -0.5754 -0.4261
18304TIP3   OH276326   2.272   4.356   2.203  0.2260  0.3825  0.2766
18304TIP3    H176327   2.323   4.317   2.131  1.8050  2.9627 -0.1267
18304TIP3    H276328   2.219   4.424   2.161  1.7526  2.4741  1.5458
18305TIP3   OH276329   0.130   1.758  12.290 -0.6370  0.2900  0.1032
18305TIP3    H176330   0.082   1.718  12.362  0.8707 -0.2209  0.8512
18305TIP3    H276331   0.160   1.842  12.325  1.5067 -0.6625  0.6932
18306TIP3   OH276332   1.185   1.204  14.782  0.4035 -0.2288  0.2377
18306TIP3    H176333   1.260   1.146  14.770 -0.2298 -0.8832 -0.6381
18306TIP3    H276334   1.141   1.205  14.696 -0.8735 -0.2508  0.8697
18307TIP3   OH276335   5.257   1.941   3.887  0.2058  0.2942  0.2242
18307TIP3    H176336   5.308   1.988   3.953  1.2581  3.3642 -2.4693
18307TIP3    H276337   5.322   1.888   3.840 -0.1440 -0.2153  0.3089
18308TIP3   OH276338   5.385   6.440  15.043 -0.2825  0.2653 -0.8846
18308TIP3    H176339   5.362   6.365  15.098  0.9705  0.2429 -0.3601
18308TIP3    H276340   5.332   6.429  14.964 -0.5233 -0.8665 -0.5802
18309TIP3   OH276341   1.688   5.961   5.830  0.5502  0.4339 -0.3373
18309TIP3    H176342   1.663   5.965   5.923  0.7938 -1.6895 -0.1174
18309TIP3    H276343   1.615   5.916   5.788  0.1726  1.8977 -1.3248
18310TIP3   OH276344   2.990   4.900  16.398 -0.0903  0.1206 -0.6506
18310TIP3    H176345   2.992   4.826  16.337  0.5169 -0.5027  0.0960
18310TIP3    H276346   2.964   4.861  16.482  1.0439  0.5887 -0.0572
18311TIP3   OH276347   0.635   3.195  12.488  0.2219  0.1200  0.2108
18311TIP3    H176348   0.579   3.269  12.466 -1.8062 -1.4120 -0.1332
18311TIP3    H276349   0.606   3.168  12.575  0.3672 -0.7326  0.0052
18312TIP3   OH276350   3.447   0.165   5.863  0.3132 -0.5330  0.3870
18312TIP3    H176351   3.393   0.148   5.941  1.0428  0.5653  1.1453
18312TIP3    H276352   3.457   0.260   5.861  1.9669 -0.6918  0.0944
18313TIP3   OH276353   0.305   0.044   1.981  0.3356  0.1461 -0.4344
18313TIP3    H176354   0.275   0.134   1.983  1.7805  0.6396  0.7473
18313TIP3    H276355   0.373   0.042   1.915 -1.5825 -0.7918 -2.5349
18314TIP3   OH276356   0.899   0.575   4.492  0.3914 -0.2664 -0.5238
18314TIP3    H176357   0.965   0.644   4.500  0.3917 -0.2318 -0.8087
18314TIP3    H276358   0.942   0.496   4.525 -0.0232  0.1139  1.0157
18315TIP3   OH276359   5.319   6.256  13.520  0.7975  0.5176 -0.1952
18315TIP3    H176360   5.411   6.234  13.539  0.1875 -1.5531  0.6941
18315TIP3    H276361   5.290   6.189  13.458 -0.4673  0.3242  0.5657
18316TIP3   OH276362   0.342   4.848  11.324  0.2733 -0.3470  0.4053
18316TIP3    H176363   0.374   4.774  11.377  2.2111  1.3119  1.6930
18316TIP3    H276364   0.405   4.856  11.253  0.1939  0.2204  0.3944
18317TIP3   OH276365   1.784   4.264   3.118  0.2741 -0.0439 -0.5728
18317TIP3    H176366   1.738   4.181   3.108  0.2019 -0.3646  1.7518
18317TIP3    H276367   1.715   4.328   3.135  0.5055 -0.1916  1.1019
18318TIP3   OH276368   2.907   1.669  11.513  0.3791 -0.4931 -0.2755
18318TIP3    H176369   2.848   1.626  11.576 -1.4246 -0.3530 -1.7903
18318TIP3    H276370   2.962   1.726  11.567 -1.1246 -0.3553  1.1886
18319TIP3   OH276371   6.789   2.455  13.293  1.1380 -0.2332 -0.2189
18319TIP3    H176372   6.872   2.414  13.273  2.0495  1.8220 -0.9684
18319TIP3    H276373   6.767   2.506  13.215 -0.1177  0.3376  0.4647
18320TIP3   OH276374   3.435   4.682  12.047 -0.3579  0.2287 -0.6749
18320TIP3    H176375   3.444   4.664  11.954 -0.0129  0.2769 -0.6536
18320TIP3    H276376   3.437   4.595  12.088 -2.6734  0.0218 -0.8587
18321TIP3   OH276377   1.860   4.604   1.886  0.1140 -0.8080  0.5764
18321TIP3    H176378   1.903   4.660   1.822  1.9573 -1.4062  1.2281
18321TIP3    H276379   1.795   4.555   1.835 -0.8800  1.1743 -0.1678
18322TIP3   OH276380   3.348   6.306   1.330 -0.0397  0.4887  0.1697
18322TIP3    H176381   3.339   6.349   1.416  0.5250  0.9543  0.0007
18322TIP3    H276382   3.261   6.313   1.291 -0.4971 -0.3744  0.9971
18323TIP3   OH276383   0.376   5.757   4.191 -0.4094  0.0072  0.3543
18323TIP3    H176384   0.351   5.694   4.123  2.2850 -0.5952 -0.1842
18323TIP3    H276385   0.306   5.822   4.190 -1.7401 -1.3675 -1.1924
18324TIP3   OH276386   5.339   5.267  14.265  0.0518 -0.1885 -0.4867
18324TIP3    H176387   5.250   5.240  14.287 -0.1593  1.5970  1.1824
18324TIP3    H276388   5.331   5.306  14.178 -0.4143 -1.6173 -1.1178
18325TIP3   OH276389   1.700   3.148  16.447 -0.2126  0.4265  0.0649
18325TIP3    H176390   1.639   3.212  16.483 -0.2528  0.4293 -0.0079
18325TIP3    H276391   1.671   3.064  16.483 -0.7533  0.3153 -0.6069
18326TIP3   OH276392   1.186   6.342   2.177 -0.0955  0.3686 -0.1343
18326TIP3    H176393   1.126   6.273   2.149  0.1634 -0.0069  0.2277
18326TIP3    H276394   1.180   6.342   2.273  1.0892 -0.2407 -0.0387
18327TIP3   OH276395   1.937   3.438  12.384 -0.2004 -0.2322 -0.2292
18327TIP3    H176396   1.911   3.372  12.320  1.3049 -0.7967 -0.3012
18327TIP3    H276397   2.028   3.417  12.405 -0.4307  0.3582  1.5798
18328TIP3   OH276398   0.843   3.567  15.057  0.1358 -0.0773  0.2605
18328TIP3    H176399   0.913   3.512  15.091 -0.6190 -0.2891  1.5268
18328TIP3    H276400   0.763   3.520  15.077 -0.3685 -0.2576 -1.9547
18329TIP3   OH276401   4.262   0.446  16.428  0.4419 -0.1534 -0.0595
18329TIP3    H176402   4.233   0.359  16.456 -0.4769  0.0005 -0.4681
18329TIP3    H276403   4.338   0.465  16.482 -0.6453 -0.2885  1.5929
18330TIP3   OH276404   2.616   5.834   2.892  0.1313  0.1808  0.3152
18330TIP3    H176405   2.633   5.785   2.812  0.1514 -1.0750  1.0504
18330TIP3    H276406   2.523   5.856   2.888 -0.4320 -1.8563  0.9454
18331TIP3   OH276407   3.239   5.107   1.171  0.1667 -0.2039 -0.1876
18331TIP3    H176408   3.269   5.118   1.261  2.6570 -0.7816 -0.8416
18331TIP3    H276409   3.203   5.018   1.169 -0.3816 -0.0008  0.3320
18332TIP3   OH276410   5.219   0.747   1.637  0.5722  0.4275 -0.1988
18332TIP3    H176411   5.251   0.744   1.547  0.8996 -0.6855 -0.0601
18332TIP3    H276412   5.124   0.747   1.629  0.6010  0.0478 -0.5493
18333TIP3   OH276413   6.427   1.478   5.497 -0.7259  0.0550 -0.1049
18333TIP3    H176414   6.335   1.489   5.470 -0.4778 -1.6297 -1.8175
18333TIP3    H276415   6.422   1.456   5.590 -2.0468  0.1863 -0.1181
18334TIP3   OH276416   1.543   2.276  13.993  0.3145 -0.6042 -0.2656
18334TIP3    H176417   1.634   2.305  13.995 -1.0060  4.5284  3.0040
18334TIP3    H276418   1.498   2.341  13.939 -1.6975 -2.4443 -0.9840
18335TIP3   OH276419   2.018   6.352  12.073  0.3605 -0.1631  0.5503
18335TIP3    H176420   2.082   6.290  12.037 -1.3026 -0.2216 -2.5721
18335TIP3    H276421   1.943   6.297  12.097 -0.3607  0.4199 -0.3584
18336TIP3   OH276422   4.597   3.615  12.107  0.1274 -0.1422  0.3175
18336TIP3    H176423   4.651   3.690  12.082  0.6215 -0.6034 -0.0234
18336TIP3    H276424   4.589   3.563  12.026  0.4187 -0.8401  0.7351
18337TIP3   OH276425   6.308   1.782  16.136 -0.4737 -0.6758 -0.1523
18337TIP3    H176426   6.253   1.843  16.185 -0.0163 -1.3073  1.1873
18337TIP3    H276427   6.248   1.711  16.112 -0.4637 -0.8926  0.4541
18338TIP3   OH276428   4.239   1.596   2.098  0.1625  0.4760  0.1359
18338TIP3    H176429   4.251   1.645   2.179 -0.6112 -1.5828  1.5508
18338TIP3    H276430   4.264   1.506   2.120 -0.4946 -0.2279 -1.7947
18339TIP3   OH276431   0.745   2.945  13.564  0.0321 -0.1131 -0.0397
18339TIP3    H176432   0.672   2.997  13.600  0.2159 -0.4255  0.8012
18339TIP3    H276433   0.803   2.931  13.639  0.1874 -1.1812 -0.3485
18340TIP3   OH276434   4.455   6.681  12.081 -0.0084 -0.2236  0.0110
18340TIP3    H176435   4.481   6.609  12.024  1.1113 -0.0840  0.3279
18340TIP3    H276436   4.372   6.712  12.045  0.6930 -0.1115 -1.5530
18341TIP3   OH276437   2.319   0.320  11.290  0.3874  0.2556  0.8140
18341TIP3    H176438   2.323   0.247  11.227 -0.8208  1.2887 -0.5405
18341TIP3    H276439   2.250   0.295  11.351 -1.6992  1.1769 -1.0051
18342TIP3   OH276440   5.544   6.004  12.134  0.0215 -0.0500 -0.0574
18342TIP3    H176441   5.464   6.048  12.165  0.0886  0.0346 -0.0031
18342TIP3    H276442   5.529   5.912  12.152 -1.4909 -0.5183 -3.0146
18343TIP3   OH276443   3.056   0.482  14.822 -0.4724  0.8306  0.0326
18343TIP3    H176444   3.099   0.439  14.748  0.6200  2.7186 -0.5020
18343TIP3    H276445   3.128   0.520  14.873 -1.1687 -0.6111  2.2448
18344TIP3   OH276446   0.638   2.870  13.318 -0.1569  0.3364 -0.4617
18344TIP3    H176447   0.728   2.851  13.292 -0.2361 -1.3626  0.3775
18344TIP3    H276448   0.645   2.904  13.407 -0.2500  1.6698 -0.9430
18345TIP3   OH276449   3.513   1.188  16.098 -0.1094  0.1536 -0.4519
18345TIP3    H176450   3.430   1.139  16.091 -0.1484  0.2247 -0.4797
18345TIP3    H276451   3.494   1.273  16.060 -0.3453  0.5588  0.5288
18346TIP3   OH276452   1.967   6.500   4.338 -0.4529 -0.5212 -0.3475
18346TIP3    H176453   1.947   6.407   4.340  1.3540 -0.9620  2.5060
18346TIP3    H276454   2.046   6.506   4.283  0.8314 -1.0860  1.3563
18347TIP3   OH276455   4.122   4.980   5.396 -0.1191 -0.0227 -0.2825
18347TIP3    H176456   4.087   4.893   5.377  1.2270 -0.4755 -0.7749
18347TIP3    H276457   4.208   4.963   5.436  0.2386  1.0812 -0.5485
18348TIP3   OH276458   2.939   2.863  15.632  0.0186  0.3140  0.2370
18348TIP3    H176459   2.883   2.898  15.701 -0.8044  1.2882 -0.8942
18348TIP3    H276460   2.920   2.917  15.555  2.5999  0.7893 -0.1748
18349TIP3   OH276461   6.148   6.779   4.498 -0.0659  0.0237  0.0842
18349TIP3    H176462   6.053   6.786   4.507  0.0311  1.9266  0.1561
18349TIP3    H276463   6.161   6.730   4.417 -1.1601  1.3337 -0.9375
18350TIP3   OH276464   2.833   3.791   1.344 -0.0588 -0.0237  1.0872
18350TIP3    H176465   2.822   3.696   1.354  1.3532 -0.4005 -0.3572
18350TIP3    H276466   2.907   3.812   1.400 -0.0456  0.1186  1.0160
18351TIP3   OH276467   6.296   4.657   1.601 -0.6180 -0.5845 -0.1205
18351TIP3    H176468   6.302   4.645   1.507 -0.9831 -0.6796 -0.1287
18351TIP3    H276469   6.388   4.666   1.629 -0.5280 -0.1432 -0.5365
18352TIP3   OH276470   4.155   1.471   2.433  0.7052 -0.5858 -0.7373
18352TIP3    H176471   4.113   1.507   2.511 -1.5143  0.8598 -2.4638
18352TIP3    H276472   4.085   1.423   2.388  0.8463  1.6439 -3.5860
18353TIP3   OH276473   0.543   1.066   5.789 -0.1417 -0.4540  0.1469
18353TIP3    H176474   0.558   1.029   5.876  0.7701  0.0054  0.1974
18353TIP3    H276475   0.486   1.141   5.804 -1.8475 -1.6865  0.0664
18354TIP3   OH276476   3.654   5.553  12.851 -0.5627 -0.3203 -0.0048
18354TIP3    H176477   3.730   5.506  12.817 -1.8813 -1.0872 -2.0760
18354TIP3    H276478   3.667   5.643  12.822 -0.5100 -0.4834 -0.4983
18355TIP3   OH276479   2.580   5.999   3.667  0.2801  0.7064 -0.3538
18355TIP3    H176480   2.514   6.010   3.598  1.2022  1.8269 -1.1195
18355TIP3    H276481   2.564   6.073   3.726 -0.1604  0.0568  0.3475
18356TIP3   OH276482   2.471   5.597   0.397  0.2607 -0.1384 -0.4306
18356TIP3    H176483   2.516   5.680   0.386 -1.6764  1.1398  0.8225
18356TIP3    H276484   2.541   5.533   0.410  1.9326  0.8171 -3.6293
18357TIP3   OH276485   1.221   5.917  13.473 -0.2028 -0.3813 -0.4837
18357TIP3    H176486   1.247   5.996  13.521  1.8376 -0.7376 -0.9032
18357TIP3    H276487   1.269   5.923  13.390 -0.8207 -1.5649 -0.9458
18358TIP3   OH276488   5.093   0.564  16.953 -0.2742 -0.1526 -0.1412
18358TIP3    H176489   5.084   0.498  17.021 -1.0816  0.0258 -0.0613
18358TIP3    H276490   5.086   0.648  16.999  0.7960  0.0083 -0.2307
18359TIP3   OH276491   3.040   5.474   5.246 -0.4087 -0.0545 -0.0060
18359TIP3    H176492   3.133   5.482   5.270 -0.5864  0.0072  0.6509
18359TIP3    H276493   2.994   5.528   5.309 -0.5964  3.1429 -2.6248
18360TIP3   OH276494   5.630   0.167  10.957 -0.3815  0.1937 -0.3859
18360TIP3    H176495   5.704   0.202  10.907 -0.2041  0.4663  0.0644
18360TIP3    H276496   5.569   0.135  10.890  0.6085 -1.0167 -0.7470
18361TIP3   OH276497   2.033   1.345  17.029 -0.3792  0.2299 -0.3437
18361TIP3    H176498   2.116   1.312  17.063 -0.9965 -0.2562  0.7315
18361TIP3    H276499   2.027   1.310  16.940 -0.2106 -1.1047  0.1610
18362TIP3   OH276500   0.246   0.996  15.945  0.4138  0.5812 -0.2110
18362TIP3    H176501   0.276   1.029  16.030  0.5532  1.1902 -0.4981
18362TIP3    H276502   0.250   0.900  15.955 -0.8736  0.6114  0.9275
18363TIP3   OH276503   1.131   2.455  16.707 -0.4159 -0.1354  0.6171
18363TIP3    H176504   1.068   2.395  16.747 -0.3778 -2.2183 -2.0842
18363TIP3    H276505   1.100   2.464  16.616  0.3872  2.9363  0.5302
18364TIP3   OH276506   6.584   0.901  11.987  0.7722 -0.1184  0.7747
18364TIP3    H176507   6.569   0.882  11.895 -1.3702 -1.5868  1.3295
18364TIP3    H276508   6.678   0.888  12.000  1.4245  1.7229 -1.4764
18365TIP3   OH276509   0.847   5.095  11.372  0.1818 -0.6456 -0.3508
18365TIP3    H176510   0.834   5.110  11.278  1.1857  2.6791 -0.0790
18365TIP3    H276511   0.939   5.071  11.380  0.3460  0.0406 -0.1437
18366TIP3   OH276512   0.559   6.362  11.622  0.1142 -0.2635 -0.0046
18366TIP3    H176513   0.594   6.330  11.705 -1.7266 -0.7685  0.6143
18366TIP3    H276514   0.468   6.332  11.621 -0.3145  0.9732 -1.5548
18367TIP3   OH276515   4.415   3.834   2.726 -0.2170 -0.2989 -0.4317
18367TIP3    H176516   4.372   3.918   2.743 -0.6234 -0.2502 -1.6666
18367TIP3    H276517   4.400   3.783   2.806 -0.1175  0.7303  0.2626
18368TIP3   OH276518   3.096   4.087  11.384 -0.1167  0.9576 -0.2002
18368TIP3    H176519   3.132   4.056  11.301  0.9216 -0.8549  0.8661
18368TIP3    H276520   3.001   4.071  11.376  0.0519  0.1742 -0.7848
18369TIP3   OH276521   5.183   6.539  17.027 -0.1616 -0.1395 -0.1543
18369TIP3    H176522   5.166   6.540  17.121 -0.7298 -0.5415 -0.2481
18369TIP3    H276523   5.184   6.447  17.003 -0.8805 -0.0270 -0.6801
18370TIP3   OH276524   4.019   0.977   3.967  0.4567  0.0983 -0.0438
18370TIP3    H176525   4.010   1.043   4.036  2.3842  0.1300  0.2362
18370TIP3    H276526   4.074   0.910   4.005 -0.8469 -1.3440 -0.5956
18371TIP3   OH276527   5.525   4.224  16.257 -0.2494  0.3647  0.0776
18371TIP3    H176528   5.615   4.257  16.252 -1.0474  2.6182 -0.4849
18371TIP3    H276529   5.512   4.177  16.175  0.5171 -0.3413  0.3408
18372TIP3   OH276530   0.759   5.427   5.260 -0.3911 -0.2204 -0.3725
18372TIP3    H176531   0.853   5.435   5.242 -0.1903 -1.1990  0.1913
18372TIP3    H276532   0.720   5.419   5.173  0.3359 -2.5136 -0.5574
18373TIP3   OH276533   4.143   0.639   5.565  0.3504  0.0963 -0.1637
18373TIP3    H176534   4.117   0.551   5.537  0.2778 -0.0369  0.3121
18373TIP3    H276535   4.185   0.626   5.650 -0.3533  0.6124  0.2700
18374TIP3   OH276536   1.417   2.240   2.965 -0.3570 -0.3425 -0.4466
18374TIP3    H176537   1.337   2.195   2.992 -0.1539 -0.4296  0.0204
18374TIP3    H276538   1.406   2.330   2.997 -0.0978 -0.4557 -0.0423
18375TIP3   OH276539   3.503   1.683   3.156 -0.5337 -0.5800  0.1924
18375TIP3    H176540   3.548   1.655   3.236  2.1939  0.5888 -0.8407
18375TIP3    H276541   3.432   1.619   3.146  1.8581 -3.6130  1.0292
18376TIP3   OH276542   6.335   2.651  13.335  0.4766 -1.5637 -0.7607
18376TIP3    H176543   6.427   2.674  13.345 -0.1052  0.2574  1.2520
18376TIP3    H276544   6.301   2.649  13.424 -1.8045 -0.3416 -1.5202
18377TIP3   OH276545   1.295   3.766   4.452 -0.0788  0.2220  0.3766
18377TIP3    H176546   1.366   3.711   4.485 -0.3612  0.8068  2.0468
18377TIP3    H276547   1.333   3.813   4.378  1.6484  1.3448  1.9045
18378TIP3   OH276548   6.092   4.500  16.126 -0.5206  0.6297 -0.1134
18378TIP3    H176549   6.025   4.560  16.157  0.2863  0.3812  2.2974
18378TIP3    H276550   6.129   4.543  16.049 -1.4579  2.1595  0.2634
18379TIP3   OH276551   1.689   0.708   0.574 -0.5498  0.0591  0.4572
18379TIP3    H176552   1.756   0.647   0.606 -1.0400 -0.4726  0.5018
18379TIP3    H276553   1.621   0.651   0.538 -0.5768  0.6190 -0.4004
18380TIP3   OH276554   4.644   4.569   0.204 -0.3827 -0.7293 -0.2363
18380TIP3    H176555   4.582   4.626   0.250  0.0060 -0.0067 -0.5866
18380TIP3    H276556   4.660   4.497   0.264 -0.4095 -0.1510  0.4702
18381TIP3   OH276557   5.326   1.292  15.744 -0.5078 -0.2131 -0.3577
18381TIP3    H176558   5.416   1.319  15.763 -0.0877 -1.3891 -0.5960
18381TIP3    H276559   5.330   1.255  15.655 -1.3626  0.3075 -0.6289
18382TIP3   OH276560   2.142   3.142   1.627  0.0519 -0.4702  0.2928
18382TIP3    H176561   2.097   3.156   1.543 -1.5621 -1.1696  1.0096
18382TIP3    H276562   2.163   3.231   1.657  0.8863 -0.2194 -0.9507
18383TIP3   OH276563   5.786   3.471   0.387  0.2055  0.0259 -0.2879
18383TIP3    H176564   5.718   3.538   0.394 -0.1564 -0.3948  0.2110
18383TIP3    H276565   5.740   3.393   0.359 -0.0147 -1.0087  2.6145
18384TIP3   OH276566   6.198   4.476   2.050  0.5885  0.3143  0.1753
18384TIP3    H176567   6.262   4.425   2.001  0.5697  0.1373  0.3364
18384TIP3    H276568   6.132   4.499   1.985  1.4687  1.6120 -0.2947
18385TIP3   OH276569   2.588   6.174   4.882  0.4773  0.3843 -0.2063
18385TIP3    H176570   2.592   6.126   4.799 -0.4775  0.2637 -0.1834
18385TIP3    H276571   2.521   6.130   4.933 -0.5025  1.7746 -0.2212
18386TIP3   OH276572   6.646   6.227  17.194  0.0131 -0.0096  0.0557
18386TIP3    H176573   6.557   6.261  17.184 -0.6431 -1.0332  1.9101
18386TIP3    H276574   6.648   6.149  17.138  0.2590  0.8144 -1.1296
18387TIP3   OH276575   0.144   6.422   2.566 -0.1296  0.1128 -0.2088
18387TIP3    H176576   0.196   6.370   2.627 -0.6774  1.8076  1.8242
18387TIP3    H276577   0.171   6.391   2.479  2.2273 -0.9546  0.8069
18388TIP3   OH276578   6.004   1.421   0.489  0.0902  0.0104 -0.6406
18388TIP3    H176579   6.055   1.342   0.473  1.1156  1.2224 -4.6148
18388TIP3    H276580   5.913   1.393   0.478  0.3976 -0.7903 -1.2609
18389TIP3   OH276581   3.626   2.666  13.861 -0.1771  0.1552 -0.3466
18389TIP3    H176582   3.613   2.625  13.775  2.4791 -0.8740 -0.3491
18389TIP3    H276583   3.557   2.732  13.866 -1.4857 -0.9128 -2.5156
18390TIP3   OH276584   3.477   0.902  13.798 -0.1098  0.0704 -0.5130
18390TIP3    H176585   3.426   0.858  13.731 -2.0993 -1.4767  1.8730
18390TIP3    H276586   3.413   0.934  13.861  1.7265 -0.6690  1.9074
18391TIP3   OH276587   5.860   0.247  12.511 -0.3865  0.2350  0.8895
18391TIP3    H176588   5.852   0.331  12.466 -1.9154  0.8117  2.1380
18391TIP3    H276589   5.835   0.182  12.445 -0.8097  0.8891  0.3912
18392TIP3   OH276590   4.058   5.887  11.993 -0.1002  0.2081  0.1859
18392TIP3    H176591   4.092   5.921  11.910 -0.3315  1.3546  0.5309
18392TIP3    H276592   4.134   5.851  12.037  0.1194  0.0459 -0.3149
18393TIP3   OH276593   4.311   2.612  15.308 -0.0474 -0.4559  0.7132
18393TIP3    H176594   4.381   2.547  15.304 -1.7944 -2.4562  0.7098
18393TIP3    H276595   4.337   2.672  15.378  2.5576  0.0580 -0.5893
18394TIP3   OH276596   4.888   5.070  15.505  0.2869 -0.3148  0.3101
18394TIP3    H176597   4.912   5.102  15.592 -3.1712  0.4443  1.1260
18394TIP3    H276598   4.922   4.981  15.502  3.6624  0.8087  0.8912
18395TIP3   OH276599   4.010   1.147  15.679  0.1532 -0.0469  0.1280
18395TIP3    H176600   3.982   1.153  15.770 -0.0649 -0.6555  0.1086
18395TIP3    H276601   3.928   1.134  15.630  0.4508 -2.3408  0.1147
18396TIP3   OH276602   5.981   2.048  15.262  0.7055 -0.5095 -0.1213
18396TIP3    H176603   5.980   2.117  15.328  2.4860 -0.5681  0.0212
18396TIP3    H276604   5.893   2.009  15.267  0.2532  0.5676  1.0307
18397TIP3   OH276605   6.540   1.218  12.389 -0.3447  0.2356  0.2521
18397TIP3    H176606   6.551   1.124  12.373 -1.6641  0.1082  0.0152
18397TIP3    H276607   6.473   1.246  12.327 -0.0409  1.3220  0.3930
18398TIP3   OH276608   5.468   4.644   4.237  0.3847 -0.5343 -0.5969
18398TIP3    H176609   5.522   4.716   4.270 -0.9009 -0.5865  1.8514
18398TIP3    H276610   5.410   4.685   4.172  0.9387  0.2263 -0.6284
18399TIP3   OH276611   1.151   4.547  15.558 -0.5626 -0.5278  0.5552
18399TIP3    H176612   1.123   4.513  15.473  0.7821  0.6482 -0.4166
18399TIP3    H276613   1.202   4.476  15.597  2.0603  0.1551 -1.3609
18400TIP3   OH276614   5.755   5.021  10.644  0.0493  0.2336 -0.1758
18400TIP3    H176615   5.816   4.976  10.586 -0.8171  0.2708 -1.1285
18400TIP3    H276616   5.729   4.954  10.707 -0.9360 -0.5274 -1.3546
18401TIP3   OH276617   1.984   5.563  11.805  0.4996 -0.3583 -0.9241
18401TIP3    H176618   1.974   5.609  11.722  1.3904 -0.5985 -1.1813
18401TIP3    H276619   1.982   5.470  11.782  0.2101 -0.4337 -0.6050
18402TIP3   OH276620   0.707   1.076   5.582 -0.6237 -0.0473  0.4337
18402TIP3    H176621   0.763   1.003   5.558  1.6413  1.7387 -0.0174
18402TIP3    H276622   0.673   1.053   5.668  1.1928 -1.0395  0.9311
18403TIP3   OH276623   4.701   3.145  16.675  0.3248 -0.4103  0.5409
18403TIP3    H176624   4.688   3.080  16.606  0.6222  1.0561 -0.9670
18403TIP3    H276625   4.794   3.167  16.668  1.1205 -2.2632  3.3608
18404TIP3   OH276626   3.086   4.783   6.591 -0.0449 -0.0071 -0.2063
18404TIP3    H176627   3.131   4.741   6.665 -1.5126  0.4682  1.0214
18404TIP3    H276628   3.075   4.713   6.527  0.1711 -0.7616  0.5525
18405TIP3   OH276629   5.871   3.844  13.775 -0.1859  0.0545 -0.4791
18405TIP3    H176630   5.795   3.830  13.831  0.5485 -0.9705  0.3216
18405TIP3    H276631   5.890   3.757  13.740  0.0256  0.4878 -1.4525
18406TIP3   OH276632   5.843   5.362  14.173  0.6615  0.0921  0.1875
18406TIP3    H176633   5.786   5.285  14.176  0.8205  0.0106  1.4417
18406TIP3    H276634   5.887   5.355  14.088 -0.0575 -0.6651 -0.1373
18407TIP3   OH276635   5.459   2.248   5.078 -0.7935 -0.0785 -0.1757
18407TIP3    H176636   5.497   2.228   5.164 -1.5804 -0.9142 -0.0061
18407TIP3    H276637   5.502   2.187   5.018 -0.2911  0.4611 -0.3756
18408TIP3   OH276638   6.394   2.802  14.245  0.4201  0.1036  0.6550
18408TIP3    H176639   6.384   2.707  14.249 -0.9259  0.2139  0.3700
18408TIP3    H276640   6.328   2.830  14.182  2.6074  0.9893 -1.4243
18409TIP3   OH276641   6.629   0.529  13.306  0.3243 -0.1138 -0.1461
18409TIP3    H176642   6.547   0.481  13.295 -0.3034  1.0854 -0.7874
18409TIP3    H276643   6.686   0.493  13.238  0.6223 -1.4969  0.7909
18410TIP3   OH276644   4.995   3.067   1.829 -0.6356  0.1321 -0.3440
18410TIP3    H176645   5.040   3.097   1.908 -0.1044 -1.3627 -0.0510
18410TIP3    H276646   5.064   3.062   1.762 -0.8226  0.1021 -0.5350
18411TIP3   OH276647   4.288   6.760   4.237 -0.1698  0.0436 -0.4515
18411TIP3    H176648   4.323   6.671   4.233 -0.8513 -0.2527  0.1123
18411TIP3    H276649   4.237   6.770   4.156 -0.8541 -0.4032 -0.0791
18412TIP3   OH276650   0.954   1.330   4.697 -0.2021  0.0322 -0.7088
18412TIP3    H176651   1.013   1.403   4.715 -0.3449 -0.4001  1.8997
18412TIP3    H276652   1.005   1.271   4.642  1.3332  0.2891  0.3956
18413TIP3   OH276653   2.821   0.876   5.781 -0.6157 -0.5695 -0.4649
18413TIP3    H176654   2.735   0.861   5.743 -0.9118  0.1946 -0.1110
18413TIP3    H276655   2.805   0.886   5.875 -0.0300 -1.3009 -0.2775
18414TIP3   OH276656   5.868   1.991   1.770  0.3046  0.2485 -0.4153
18414TIP3    H176657   5.908   1.989   1.683 -1.4229 -0.4575 -1.2420
18414TIP3    H276658   5.804   1.920   1.769 -0.2636  0.6849  1.2050
18415TIP3   OH276659   4.171   0.131  14.564  0.3483  0.1400 -0.0272
18415TIP3    H176660   4.147   0.204  14.620 -1.5622  0.2180 -0.8763
18415TIP3    H276661   4.225   0.170  14.495 -2.8908  1.4015 -2.0608
18416TIP3   OH276662   0.635   3.558  16.173 -0.0572 -0.1755  0.4458
18416TIP3    H176663   0.685   3.639  16.179 -2.1683  1.0647  3.1650
18416TIP3    H276664   0.701   3.489  16.184  1.6773  1.1292 -1.1190
18417TIP3   OH276665   2.831   5.523  12.469  0.1282  0.2070 -0.1568
18417TIP3    H176666   2.859   5.531  12.378  1.0837  0.9875  0.1875
18417TIP3    H276667   2.877   5.593  12.515 -1.4550  0.7503  0.6811
18418TIP3   OH276668   6.707   4.190   1.637  0.4177  0.2473  0.1938
18418TIP3    H176669   6.665   4.266   1.676  1.4488  0.9617 -0.0252
18418TIP3    H276670   6.777   4.227   1.582  1.5965 -0.8753  0.8640
18419TIP3   OH276671   3.054   3.631   5.753  0.4569 -0.1842 -0.2853
18419TIP3    H176672   3.093   3.548   5.781  0.3377 -0.3285 -0.5417
18419TIP3    H276673   2.960   3.614   5.751  0.0577  0.9364  3.0092
18420TIP3   OH276674   4.467   3.481   2.329 -0.0346  0.4841  0.2445
18420TIP3    H176675   4.402   3.448   2.391 -1.1037  0.8464 -0.6414
18420TIP3    H276676   4.488   3.569   2.361 -0.4306  0.5923  0.2164
18421TIP3   OH276677   0.699   6.749   4.061  0.2523 -0.1530 -0.2706
18421TIP3    H176678   0.764   6.741   4.131  2.0661  0.6709 -1.7801
18421TIP3    H276679   0.743   6.799   3.992 -1.9164  0.2220 -1.4851
18422TIP3   OH276680   0.006   2.441  15.645  0.3249 -0.2821 -0.0681
18422TIP3    H176681   0.074   2.374  15.636  1.7700  1.2385 -1.3449
18422TIP3    H276682  -0.029   2.429  15.733  1.0942 -2.1716  0.0283
18423TIP3   OH276683   2.486   5.045   0.887 -0.2249 -0.1442  0.2939
18423TIP3    H176684   2.419   4.989   0.927 -0.1687 -1.4264 -1.2841
18423TIP3    H276685   2.461   5.134   0.912 -2.0890 -0.6485  0.4055
18424TIP3   OH276686   5.321   0.381   0.991  0.0701  0.4403  0.2549
18424TIP3    H176687   5.303   0.468   0.956 -0.4882  0.7407  1.2539
18424TIP3    H276688   5.377   0.397   1.067 -0.9511  0.0367  1.1144
18425TIP3   OH276689   2.987   0.415   3.238  0.0728 -0.4714  0.2104
18425TIP3    H176690   2.967   0.498   3.281 -1.9088 -1.2717  0.9464
18425TIP3    H276691   3.018   0.358   3.308  0.1878 -0.7539 -0.0656
18426TIP3   OH276692   5.237   5.904   2.114  0.5205  0.0847 -0.2841
18426TIP3    H176693   5.183   5.825   2.120 -1.2516  1.3621  2.1769
18426TIP3    H276694   5.175   5.975   2.097  1.8279  1.2181 -0.4838
18427TIP3   OH276695   0.445   4.596  13.498 -1.4200  0.6339 -0.5018
18427TIP3    H176696   0.506   4.523  13.489 -1.1132  0.8052  0.1831
18427TIP3    H276697   0.371   4.560  13.548 -1.6641  0.5628 -0.9051
18428TIP3   OH276698   4.167   0.447  12.617 -0.1103  0.5117  0.0578
18428TIP3    H176699   4.181   0.378  12.552 -1.7188 -0.0348  0.2496
18428TIP3    H276700   4.249   0.496  12.618 -0.0954  0.6935 -2.5606
18429TIP3   OH276701   3.070   1.478   2.960  0.1901 -0.0726 -0.0516
18429TIP3    H176702   3.125   1.473   3.038 -2.0304  3.0019  1.9333
18429TIP3    H276703   3.131   1.495   2.889  2.0213  0.9077  1.6651
18430TIP3   OH276704   2.537   1.347   5.079  0.4558 -0.6273 -0.5635
18430TIP3    H176705   2.501   1.432   5.105  0.3735 -0.8135 -0.0604
18430TIP3    H276706   2.495   1.284   5.137  0.6772 -0.9897 -0.7924
18431TIP3   OH276707   5.812   5.692   3.912 -0.0846  0.3765 -0.1484
18431TIP3    H176708   5.813   5.618   3.851 -0.6640 -0.5012  0.8651
18431TIP3    H276709   5.865   5.759   3.870  1.1626 -0.9195 -0.7172
18432TIP3   OH276710   2.374   5.845  16.413  0.6745  0.1241  0.2856
18432TIP3    H176711   2.421   5.914  16.367 -1.0770  0.6300 -0.8792
18432TIP3    H276712   2.300   5.890  16.455 -0.5300 -0.9835 -0.5345
18433TIP3   OH276713   0.303   6.591  13.116  0.3146 -0.0111 -0.7316
18433TIP3    H176714   0.322   6.498  13.120 -0.5555 -0.1902 -0.4824
18433TIP3    H276715   0.289   6.610  13.023  1.4476  0.0828 -0.8923
18434TIP3   OH276716   4.097   0.463   5.794 -0.1941 -0.0799 -0.1325
18434TIP3    H176717   4.102   0.485   5.887 -1.4508 -2.5028  0.5740
18434TIP3    H276718   4.161   0.394   5.782 -0.3486 -0.0841 -0.9769
18435TIP3   OH276719   0.595   2.840   1.662  0.2228  0.1920  0.3608
18435TIP3    H176720   0.523   2.854   1.724  0.9960  2.3874  0.8648
18435TIP3    H276721   0.635   2.927   1.652  2.1998 -0.7727 -0.6664
18436TIP3   OH276722   3.198   4.027   6.147  0.0608 -0.5253 -0.3434
18436TIP3    H176723   3.221   3.942   6.183 -0.9010 -0.7889 -0.3355
18436TIP3    H276724   3.277   4.055   6.100  0.8419 -0.8176  0.7343
18437TIP3   OH276725   4.955   6.127  13.801 -0.3532  0.0396 -0.7911
18437TIP3    H176726   4.937   6.215  13.835 -0.6689 -0.5382  0.5960
18437TIP3    H276727   4.873   6.101  13.758 -0.5827  0.0558 -0.3681
18438TIP3   OH276728   1.438   4.247   3.476  0.5174 -0.0575  0.1027
18438TIP3    H176729   1.390   4.204   3.405  1.4882 -0.2660 -0.4417
18438TIP3    H276730   1.502   4.182   3.504  0.7245  0.3441  0.5688
18439TIP3   OH276731   2.938   6.571   5.253  0.1705  0.6236  0.2509
18439TIP3    H176732   2.945   6.478   5.230  0.3700  1.0759 -1.7357
18439TIP3    H276733   3.020   6.610   5.221  0.3144  1.4184  1.5162
18440TIP3   OH276734   6.225   0.477  16.111 -0.0526 -0.4331 -0.0200
18440TIP3    H176735   6.286   0.403  16.100  0.0776 -0.2328 -0.7062
18440TIP3    H276736   6.252   0.540  16.044 -1.4904 -0.6666 -0.8568
18441TIP3   OH276737   0.471   6.192  11.340 -0.1152 -0.4198  0.3705
18441TIP3    H176738   0.401   6.256  11.325  0.4671  0.9798  3.0589
18441TIP3    H276739   0.548   6.245  11.359  0.9374 -1.9485  0.5515
18442TIP3   OH276740   0.745   3.748  12.260 -0.2012 -0.1462  0.5729
18442TIP3    H176741   0.838   3.729  12.273 -0.4497 -2.0916 -0.0786
18442TIP3    H276742   0.703   3.662  12.261 -2.0109  0.6921  0.8716
18443TIP3   OH276743   1.751   5.318  14.487 -0.1670 -0.4478  0.2067
18443TIP3    H176744   1.714   5.306  14.574 -0.3034 -0.9663  0.0819
18443TIP3    H276745   1.721   5.242  14.438  2.6148 -1.9511  0.6339
18444TIP3   OH276746   2.351   5.606  12.207  0.0517  0.2150  0.2259
18444TIP3    H176747   2.301   5.534  12.168 -0.1252  0.7450 -0.5365
18444TIP3    H276748   2.291   5.680  12.207  1.0798  1.1105 -1.5141
18445TIP3   OH276749   0.107   5.408   0.330  0.2669 -0.0203  0.2770
18445TIP3    H176750   0.064   5.325   0.312 -0.2196  0.4247 -0.6998
18445TIP3    H276751   0.121   5.447   0.244  0.1186  1.0870  0.7316
18446TIP3   OH276752   0.099   4.400   1.795 -0.4500  0.3376 -0.4522
18446TIP3    H176753   0.083   4.450   1.716 -1.8183  1.5508  0.5293
18446TIP3    H276754   0.152   4.458   1.850  1.3764 -0.8911 -0.8489
18447TIP3   OH276755   1.367   2.523   4.147 -0.2292  0.5421  0.2492
18447TIP3    H176756   1.450   2.483   4.121  0.5094  1.3065  1.3180
18447TIP3    H276757   1.303   2.453   4.141  1.3025 -1.4316  3.7877
18448TIP3   OH276758   6.497   6.073  14.820 -0.1645  0.6895  0.2512
18448TIP3    H176759   6.544   6.121  14.889 -1.1227 -1.2975  2.4092
18448TIP3    H276760   6.539   5.987  14.818  0.4852  0.9703 -2.4453
18449TIP3   OH276761   6.471   3.024  11.565  0.3920 -0.3108  0.1055
18449TIP3    H176762   6.411   2.970  11.616 -0.0689 -0.0389 -0.1394
18449TIP3    H276763   6.535   2.962  11.528  0.9006 -0.4776  1.2242
18450TIP3   OH276764   0.715   5.656  13.291 -0.1291  0.3639  0.2793
18450TIP3    H176765   0.791   5.692  13.246 -0.7533  0.1222 -1.0081
18450TIP3    H276766   0.642   5.710  13.261 -0.4681  0.6285  1.5396
18451TIP3   OH276767   4.929   1.228   4.918 -0.1182  0.3738 -0.1261
18451TIP3    H176768   5.003   1.215   4.859 -0.8701  0.2023 -1.0571
18451TIP3    H276769   4.930   1.322   4.937  0.4718  0.3347  0.0533
18452TIP3   OH276770   0.986   1.725   5.037 -0.3668  0.7478 -0.6430
18452TIP3    H176771   1.063   1.780   5.023  0.4729  0.0624  1.0009
18452TIP3    H276772   0.941   1.765   5.111  0.4029 -0.8593  0.7526
18453TIP3   OH276773   3.171   2.543  13.578 -0.3301 -0.0279 -0.2039
18453TIP3    H176774   3.185   2.636  13.558  1.1976 -0.1323  0.2269
18453TIP3    H276775   3.178   2.537  13.673 -1.2668 -0.4711 -0.1553
18454TIP3   OH276776   6.265   2.775  13.034 -0.0869 -0.2256 -0.1321
18454TIP3    H176777   6.263   2.725  13.116 -0.7990  1.1443  0.7295
18454TIP3    H276778   6.276   2.709  12.966  0.7200 -1.3959  1.0670
18455TIP3   OH276779   0.139   1.185   4.506 -0.1850  0.6931 -0.1676
18455TIP3    H176780   0.137   1.106   4.452 -0.5152 -0.3207  1.2801
18455TIP3    H276781   0.063   1.236   4.476 -1.1063 -0.4379  0.1473
18456TIP3   OH276782   2.588   2.730  16.953 -0.3491 -0.2640 -0.0264
18456TIP3    H176783   2.596   2.657  17.014 -1.5139 -0.4745 -0.1022
18456TIP3    H276784   2.600   2.808  17.007  1.2827 -0.4937 -0.0077
18457TIP3   OH276785   2.828   4.505  13.768 -0.6767  0.5182 -1.0349
18457TIP3    H176786   2.921   4.490  13.754 -0.8091 -0.2023 -1.2249
18457TIP3    H276787   2.823   4.589  13.813  0.0296  0.8041 -1.4738
18458TIP3   OH276788   2.947   0.864   4.307  0.1178 -0.1873  0.1316
18458TIP3    H176789   2.940   0.958   4.325 -0.1235 -0.2222  0.2137
18458TIP3    H276790   2.940   0.822   4.392  0.2248 -0.2821  0.0946
18459TIP3   OH276791   2.018   4.266   1.794 -0.1253 -0.4246 -0.4666
18459TIP3    H176792   2.102   4.231   1.824 -0.1563 -0.3202 -0.2530
18459TIP3    H276793   2.042   4.334   1.731 -0.0632 -0.7756 -0.8275
18460TIP3   OH276794   4.768   2.918  12.818 -0.7735 -0.4480 -0.4549
18460TIP3    H176795   4.693   2.968  12.851  1.1748  1.2815  1.6783
18460TIP3    H276796   4.814   2.980  12.760 -0.2760 -1.0454 -0.7158
18461TIP3   OH276797   0.322   4.758  13.265  0.0193  0.2131  0.0731
18461TIP3    H176798   0.392   4.692  13.270 -0.1132 -0.1744 -2.1501
18461TIP3    H276799   0.246   4.710  13.233 -0.6728  1.0591  0.4091
18462TIP3   OH276800   0.537   0.712  17.108 -0.4987  0.1148 -0.2286
18462TIP3    H176801   0.590   0.655  17.163  0.7931  0.8180 -0.6799
18462TIP3    H276802   0.526   0.792  17.160 -0.5006  0.2432 -0.4253
18463TIP3   OH276803   6.513   2.579   5.062  0.5478 -0.3064  0.3808
18463TIP3    H176804   6.443   2.543   5.008  1.9322  0.9964 -2.5070
18463TIP3    H276805   6.587   2.520   5.048  0.3474 -1.2001  2.7238
18464TIP3   OH276806   6.352   0.067  16.307  0.2820  0.4627  0.5050
18464TIP3    H176807   6.418   0.012  16.349  1.9457  1.4732 -0.6822
18464TIP3    H276808   6.268   0.032  16.338  1.3146 -1.6344  1.0999
18465TIP3   OH276809   3.329   6.117  16.897 -0.0585 -0.1747  0.3599
18465TIP3    H176810   3.399   6.124  16.832  0.9591  0.7334  1.5072
18465TIP3    H276811   3.303   6.208  16.913 -1.2959 -0.4823  0.1994
18466TIP3   OH276812   1.221   2.403  14.718  0.4509 -0.8745  0.0143
18466TIP3    H176813   1.315   2.402  14.700  0.4719  0.0856  0.0031
18466TIP3    H276814   1.190   2.486  14.681 -0.1583 -0.5539  1.1944
18467TIP3   OH276815   4.075   5.545  13.626 -0.2386  0.0041  0.1304
18467TIP3    H176816   4.146   5.606  13.645  0.4674 -0.7227 -0.1349
18467TIP3    H276817   4.001   5.601  13.603  0.2888  0.7662  0.2428
18468TIP3   OH276818   0.776   4.533  12.459  0.2987  0.3208 -0.1435
18468TIP3    H176819   0.861   4.575  12.474  1.5386 -2.2495  0.5447
18468TIP3    H276820   0.756   4.489  12.542 -0.4937 -1.1154 -1.0547
18469TIP3   OH276821   1.549   4.279   4.080 -0.1773  1.0307  0.6271
18469TIP3    H176822   1.561   4.208   4.143  0.2953  1.4833  1.0467
18469TIP3    H276823   1.529   4.234   3.997 -0.0053  0.4142  0.9163
18470TIP3   OH276824   6.158   2.384  12.227  0.3467  0.2159  0.1406
18470TIP3    H176825   6.069   2.419  12.217  0.9362  1.7832  0.1383
18470TIP3    H276826   6.202   2.447  12.285  2.0097  0.5229 -1.3626
18471TIP3   OH276827   2.312   1.228   2.008 -0.0439  0.4921 -0.2851
18471TIP3    H176828   2.341   1.177   1.932 -1.3828  0.5133 -0.8215
18471TIP3    H276829   2.223   1.197   2.026  0.4501  0.0423  1.6733
18472TIP3   OH276830   4.610   1.495   1.756  0.4305 -0.5285  0.7040
18472TIP3    H176831   4.608   1.540   1.671  0.8229 -1.8719 -0.0352
18472TIP3    H276832   4.587   1.564   1.819  2.7580  1.1928 -0.1695
18473TIP3   OH276833   2.525   5.114  12.842  0.1319 -0.2792  0.7222
18473TIP3    H176834   2.571   5.072  12.770 -0.1952 -0.7759  0.7954
18473TIP3    H276835   2.484   5.041  12.890 -4.3379  0.2662 -1.7458
18474TIP3   OH276836   0.663   1.169   3.616 -0.1105 -0.0263  0.1226
18474TIP3    H176837   0.646   1.195   3.525  1.5298  0.7834 -0.0018
18474TIP3    H276838   0.592   1.109   3.638 -0.5520 -0.2265 -1.6896
18475TIP3   OH276839   3.615   1.673  10.596 -0.0338 -0.3553 -0.0472
18475TIP3    H176840   3.568   1.690  10.514 -1.1832  0.2751  0.7074
18475TIP3    H276841   3.545   1.667  10.662  0.6779 -2.9197  0.5862
18476TIP3   OH276842   2.438   4.841  11.759 -0.0613 -0.1960 -0.4752
18476TIP3    H176843   2.512   4.805  11.710  0.9764  0.5627  0.4727
18476TIP3    H276844   2.360   4.810  11.713  0.8603 -0.2306 -2.0674
18477TIP3   OH276845   3.668   1.977  12.530 -0.3533 -0.5706 -0.0432
18477TIP3    H176846   3.752   1.938  12.554 -1.2513 -1.0268  2.7242
18477TIP3    H276847   3.676   1.995  12.436  1.2483 -4.6073 -0.8938
18478TIP3   OH276848   2.870   0.479  14.502 -0.5127 -0.3767  0.1401
18478TIP3    H176849   2.795   0.437  14.545 -1.1464  0.8993  0.3384
18478TIP3    H276850   2.831   0.553  14.454  0.6847  0.6671  0.7226
18479TIP3   OH276851   4.112   0.337  15.359 -0.0902 -0.0829 -0.3192
18479TIP3    H176852   4.122   0.242  15.370  0.0911 -0.3630 -2.4349
18479TIP3    H276853   4.064   0.365  15.437 -0.0805 -1.9014  0.3972
18480TIP3   OH276854   1.418   2.224   4.440  0.1524  0.2018 -0.2684
18480TIP3    H176855   1.395   2.311   4.473  2.8333  1.0748 -0.4761
18480TIP3    H276856   1.398   2.228   4.347 -1.3249 -0.0474  0.0035
18481TIP3   OH276857   2.063   2.396   0.636 -0.3844 -0.3282 -0.5159
18481TIP3    H176858   2.150   2.416   0.601 -0.5073  0.0264 -0.6189
18481TIP3    H276859   2.074   2.404   0.731 -0.3462 -0.1222 -0.5376
18482TIP3   OH276860   6.180   6.737   3.160 -0.0691 -0.0487 -0.0186
18482TIP3    H176861   6.244   6.795   3.201 -1.4073  0.5096  1.3968
18482TIP3    H276862   6.097   6.784   3.166 -0.7211 -0.9528 -1.3602
18483TIP3   OH276863   0.550   2.451   2.435 -0.5772 -0.0804  0.0429
18483TIP3    H176864   0.628   2.397   2.447 -0.2970 -0.1349 -1.7641
18483TIP3    H276865   0.570   2.532   2.483  0.6754 -0.0395 -0.5018
18484TIP3   OH276866   2.818   2.990  15.856 -0.5265  0.0774  0.0127
18484TIP3    H176867   2.888   3.055  15.861  0.3478 -0.8742  0.4492
18484TIP3    H276868   2.745   3.030  15.903 -0.0122  0.7542  0.2448
18485TIP3   OH276869   6.423   2.385   3.556 -0.2649  0.1949  0.5106
18485TIP3    H176870   6.505   2.340   3.533 -1.2384 -0.6925 -1.5430
18485TIP3    H276871   6.451   2.466   3.599  1.6559 -0.4678  0.5991
18486TIP3   OH276872   6.198   6.340  16.222  0.1866 -0.1570 -0.0238
18486TIP3    H176873   6.147   6.393  16.161  0.7072  1.3126  0.7641
18486TIP3    H276874   6.199   6.391  16.303  1.5974 -0.8611  0.4344
18487TIP3   OH276875   4.420   0.471   2.079  0.5833  0.4000  0.3293
18487TIP3    H176876   4.384   0.496   1.995  1.1107  0.5652  0.1471
18487TIP3    H276877   4.473   0.394   2.060 -1.2417 -1.0699  0.9260
18488TIP3   OH276878   1.358   5.143   5.368 -0.3063  0.0646  0.1951
18488TIP3    H176879   1.285   5.090   5.335 -0.5532 -0.4993  1.5854
18488TIP3    H276880   1.330   5.233   5.355 -0.5202 -0.1287 -0.8184
18489TIP3   OH276881   3.890   0.591  13.900  0.3225  0.2878  0.5090
18489TIP3    H176882   3.905   0.504  13.864 -0.2490  0.0978  0.7207
18489TIP3    H276883   3.840   0.636  13.831  1.3191  0.7204  0.0564
18490TIP3   OH276884   4.098   5.141   5.183  0.2845  0.2347  0.5227
18490TIP3    H176885   4.115   5.113   5.273  1.8666  1.3888  0.6242
18490TIP3    H276886   4.169   5.103   5.132 -1.0600 -1.1264 -0.4501
18491TIP3   OH276887   3.664   5.014  13.179 -0.0488 -0.3752  0.0910
18491TIP3    H176888   3.714   5.052  13.251 -2.0369 -0.2494  1.5046
18491TIP3    H276889   3.672   4.920  13.191 -0.0537 -0.3543  0.2628
18492TIP3   OH276890   2.872   4.092   2.448  0.3055 -0.7573  0.0184
18492TIP3    H176891   2.866   4.135   2.533  0.8198  0.0859 -0.3562
18492TIP3    H276892   2.781   4.088   2.417  0.1585 -0.7435  0.4459
18493TIP3   OH276893   6.170   3.179  17.088 -0.2830  0.1837 -0.1833
18493TIP3    H176894   6.146   3.106  17.031  2.4002 -1.1062  0.1401
18493TIP3    H276895   6.124   3.162  17.170 -1.4309  0.1094 -0.8352
18494TIP3   OH276896   2.290   6.256  13.872  0.0107 -0.3083 -0.5612
18494TIP3    H176897   2.367   6.207  13.900  1.5166  1.5218 -1.2939
18494TIP3    H276898   2.293   6.338  13.923 -1.0683  0.0830 -1.0887
18495TIP3   OH276899   0.926   3.937   4.448  0.3793  0.2394  0.3436
18495TIP3    H176900   0.886   3.898   4.371  0.4158 -0.0917  0.4924
18495TIP3    H276901   0.884   3.894   4.523 -0.9620  1.8180  0.5568
18496TIP3   OH276902   5.336   5.395  12.270 -0.0878  0.2454 -0.7446
18496TIP3    H176903   5.346   5.464  12.335 -2.8407  1.0203 -1.0343
18496TIP3    H276904   5.382   5.319  12.308  0.5135  1.3845  0.9048
18497TIP3   OH276905   5.289   0.366  15.808 -0.6534  0.5388 -0.0136
18497TIP3    H176906   5.194   0.356  15.812 -0.5575 -1.8684 -1.9599
18497TIP3    H276907   5.307   0.381  15.716  0.8922  1.1528  0.3617
18498TIP3   OH276908   2.874   5.775  15.488  0.0625 -0.1089  0.0792
18498TIP3    H176909   2.796   5.733  15.525 -0.9299  1.7229  0.1568
18498TIP3    H276910   2.908   5.829  15.559  2.1237 -1.7518  0.4193
18499TIP3   OH276911   5.707   3.684  15.795 -0.6506  0.0460  0.0865
18499TIP3    H176912   5.743   3.692  15.883 -1.1636  1.2843  0.2015
18499TIP3    H276913   5.666   3.598  15.794  1.1030 -0.8498  0.3789
18500TIP3   OH276914   0.058   0.825  11.904 -0.2124  0.5033 -0.6942
18500TIP3    H176915   0.093   0.739  11.881  0.6525  0.3751  0.9643
18500TIP3    H276916   0.130   0.886  11.887  0.9642  0.2508  2.6249
18501TIP3   OH276917   2.194   4.963  15.475 -0.1143 -0.3541 -0.4814
18501TIP3    H176918   2.105   4.982  15.444 -0.3741 -0.0209  0.4142
18501TIP3    H276919   2.183   4.887  15.532  0.2620 -0.6218 -0.7640
18502TIP3   OH276920   2.515   2.614  11.856 -0.8501 -0.3285  0.1059
18502TIP3    H176921   2.550   2.571  11.778  0.2161 -1.1798  1.0220
18502TIP3    H276922   2.494   2.542  11.916  0.6153  0.3544  1.5266
18503TIP3   OH276923   4.055   4.097   2.586 -0.1962  0.3642 -0.3705
18503TIP3    H176924   4.082   4.073   2.497  0.0045  0.9454 -0.4727
18503TIP3    H276925   3.960   4.107   2.580 -0.2612 -0.1793 -0.3727
18504TIP3   OH276926   2.970   6.511  13.381 -0.2639  0.0251 -0.0077
18504TIP3    H176927   2.991   6.502  13.288 -0.8291 -3.0294  0.0535
18504TIP3    H276928   3.015   6.438  13.423  0.4943  1.6827  2.2789
18505TIP3   OH276929   2.186   0.161   2.141  0.5313  0.6397  0.1933
18505TIP3    H176930   2.150   0.243   2.106 -0.6970  0.4004  0.8362
18505TIP3    H276931   2.281   0.171   2.132  0.3750  1.8684 -0.3214
18506TIP3   OH276932   0.711   0.005   0.449 -0.4093 -0.3207  0.3827
18506TIP3    H176933   0.616   0.006   0.443 -0.3634  0.7453 -0.5684
18506TIP3    H276934   0.730   0.034   0.538 -0.9612  0.5108  0.2367
18507TIP3   OH276935   2.254   5.329   6.278 -0.2427 -0.0139  0.2194
18507TIP3    H176936   2.285   5.420   6.278 -1.5790  0.4613 -0.6641
18507TIP3    H276937   2.265   5.301   6.369  1.5990  0.5080  0.2053
18508TIP3   OH276938   5.971   4.594   2.477 -0.2289  1.0709 -0.0575
18508TIP3    H176939   6.062   4.564   2.472  0.0504  1.8340  0.2980
18508TIP3    H276940   5.946   4.609   2.386 -0.7675 -1.3074 -0.3685
18509TIP3   OH276941   4.832   5.536  16.215  0.0713  0.3081 -0.0349
18509TIP3    H176942   4.880   5.607  16.172 -1.7172  2.3047  1.0887
18509TIP3    H276943   4.837   5.463  16.154  2.3795  1.2275 -1.0380
18510TIP3   OH276944   3.360   4.357   1.579  0.6715  0.3179  0.3730
18510TIP3    H176945   3.363   4.452   1.582  0.1160  0.2962  2.1812
18510TIP3    H276946   3.336   4.330   1.667  0.3925 -1.4917 -0.2115
18511TIP3   OH276947   1.564   4.497   1.050 -0.3557  0.1761 -0.5920
18511TIP3    H176948   1.534   4.471   1.137  0.8564  0.0999 -0.1706
18511TIP3    H276949   1.598   4.416   1.012 -0.1081  0.3793 -0.8023
18512TIP3   OH276950   1.701   0.439  15.496 -0.6173  0.4436 -0.1503
18512TIP3    H176951   1.734   0.528  15.509 -1.4293  0.9721 -1.4572
18512TIP3    H276952   1.648   0.445  15.416 -1.2188 -1.0765  0.1069
18513TIP3   OH276953   1.775   3.213   5.164  0.1748  0.5679  0.0815
18513TIP3    H176954   1.809   3.258   5.087 -1.2637  1.0089 -0.3379
18513TIP3    H276955   1.783   3.120   5.143  2.6820  0.5825  0.7342
18514TIP3   OH276956   2.460   0.838  12.327  0.1049  0.4050  0.0673
18514TIP3    H176957   2.402   0.880  12.263 -1.9925 -1.9069  0.3227
18514TIP3    H276958   2.546   0.838  12.285 -0.7477  0.9850 -1.7794
18515TIP3   OH276959   1.603   6.213  10.353  0.4321 -0.3237 -0.1517
18515TIP3    H176960   1.555   6.276  10.406 -1.6012 -1.7269 -0.2085
18515TIP3    H276961   1.535   6.163  10.307  2.0441 -0.3135 -2.7676
18516TIP3   OH276962   3.790   1.942   2.569 -0.6104  0.2314  0.0530
18516TIP3    H176963   3.720   1.989   2.524 -0.4147  1.6369  1.1525
18516TIP3    H276964   3.871   1.975   2.530 -0.5184 -0.5207 -0.4012
18517TIP3   OH276965   2.086   3.200  16.923  0.3515 -0.0859 -0.2742
18517TIP3    H176966   1.993   3.195  16.946  0.7799 -0.3679  1.4876
18517TIP3    H276967   2.118   3.111  16.933  0.9608  0.1344 -0.2247
18518TIP3   OH276968   0.062   5.563  13.602  0.3878  0.4851 -0.2416
18518TIP3    H176969   0.128   5.522  13.546  1.5776  1.5547  0.3273
18518TIP3    H276970   0.061   5.655  13.574 -1.4042  0.3450 -0.7357
18519TIP3   OH276971   1.070   6.183   5.618 -0.2237  0.8513 -0.1842
18519TIP3    H176972   1.144   6.189   5.558 -0.2067  2.1944 -0.0749
18519TIP3    H276973   1.047   6.090   5.620  1.4223  0.4155 -0.2454
18520TIP3   OH276974   1.364   4.224  12.611 -0.0292 -0.0929  0.4878
18520TIP3    H176975   1.416   4.304  12.606 -0.2118 -0.0382 -0.9732
18520TIP3    H276976   1.286   4.243  12.559  0.2385 -1.4379 -0.4568
18521TIP3   OH276977   3.306   4.968  11.250  0.5467 -0.1085  0.2596
18521TIP3    H176978   3.354   4.927  11.322  0.3477  0.2073  0.5795
18521TIP3    H276979   3.346   4.933  11.170  0.6036 -0.6550  0.5223
18522TIP3   OH276980   5.607   4.314   0.674  0.2092  0.0102 -0.2773
18522TIP3    H176981   5.615   4.236   0.619  2.9166 -0.5793  0.7820
18522TIP3    H276982   5.619   4.281   0.763 -2.3772  1.1848  0.5816
18523TIP3   OH276983   6.344   1.884  11.489 -0.1451  0.2204 -0.0843
18523TIP3    H176984   6.401   1.810  11.512 -0.0245  0.3255 -0.0417
18523TIP3    H276985   6.321   1.868  11.397  2.1324  1.5411 -0.9783
18524TIP3   OH276986   0.747   1.047   0.487 -0.1010 -0.5315 -0.0921
18524TIP3    H176987   0.721   1.137   0.470 -0.4631 -1.0302 -2.5806
18524TIP3    H276988   0.674   1.010   0.538 -1.3586 -0.1879 -1.5819
18525TIP3   OH276989   1.556   1.234   1.955 -0.2326 -0.0600 -0.3141
18525TIP3    H176990   1.488   1.243   2.022  0.0052  1.3314 -0.2191
18525TIP3    H276991   1.520   1.173   1.891 -0.3032 -1.7465  1.2550
18526TIP3   OH276992   1.766   2.040   0.742 -0.0816 -0.0225  0.1164
18526TIP3    H176993   1.671   2.039   0.739 -0.1767 -0.6635  2.1488
18526TIP3    H276994   1.793   1.980   0.672 -1.2833 -2.5044  1.6705
18527TIP3   OH276995   6.706   2.492   5.833  0.2033 -0.4105  0.6977
18527TIP3    H176996   6.682   2.512   5.924  0.7988  2.0929  0.3738
18527TIP3    H276997   6.754   2.569   5.803 -1.9240 -0.1055 -2.4786
18528TIP3   OH276998   4.852   5.807  16.550  0.2102 -0.0642  0.1271
18528TIP3    H176999   4.778   5.760  16.510 -1.6850  2.1475  0.8396
18528TIP3    H277000   4.838   5.898  16.525  2.6370  0.4517  0.4853
18529TIP3   OH277001   0.721   6.595  15.315 -0.2194  0.0014 -0.4651
18529TIP3    H177002   0.654   6.562  15.376 -0.3830  1.4847  0.1881
18529TIP3    H277003   0.688   6.680  15.287  1.3761  0.7368 -0.1825
18530TIP3   OH277004   1.994   3.249   0.618  0.1297  0.3015 -0.1582
18530TIP3    H177005   2.076   3.235   0.572  0.5512 -0.8536  0.8926
18530TIP3    H277006   1.935   3.183   0.582 -0.1654  0.7278 -0.4707
18531TIP3   OH277007   0.297   1.307   3.310 -0.4110  0.5165 -0.5789
18531TIP3    H177008   0.290   1.212   3.303  1.5792  0.2105  0.7773
18531TIP3    H277009   0.277   1.326   3.402  1.0737  1.1586 -0.3552
18532TIP3   OH277010   4.786   2.096  17.097 -0.5739 -0.3427  0.2113
18532TIP3    H177011   4.752   2.053  17.019 -1.9135  0.6780  0.1849
18532TIP3    H277012   4.708   2.124  17.145  0.2082 -0.8268  1.8668
18533TIP3   OH277013   5.821   1.014   1.880 -0.4398  0.0836  0.3123
18533TIP3    H177014   5.825   0.969   1.964  1.8907 -0.3543  0.0308
18533TIP3    H277015   5.788   0.949   1.819 -4.1245  0.9565  1.1082
18534TIP3   OH277016   1.204   0.811  16.231  0.1717 -0.3302  0.3345
18534TIP3    H177017   1.179   0.820  16.139 -0.4338  2.3717  0.6634
18534TIP3    H277018   1.121   0.799  16.277  0.2063  0.8003  0.7217
18535TIP3   OH277019   5.501   3.238  16.296  0.1653 -0.2881  0.6772
18535TIP3    H177020   5.425   3.247  16.354 -0.8886  2.0253 -0.9052
18535TIP3    H277021   5.464   3.204  16.215  0.3389  2.6469 -0.7652
18536TIP3   OH277022   3.806   4.516  11.609  0.1079 -0.7120 -0.3832
18536TIP3    H177023   3.867   4.443  11.607  0.9800 -0.0024 -0.5343
18536TIP3    H277024   3.724   4.480  11.577  0.2588 -1.8488  0.4285
18537TIP3   OH277025   4.508   3.066   0.546  0.6238  0.5174 -0.0840
18537TIP3    H177026   4.505   3.118   0.466  0.4160 -0.3807 -0.6879
18537TIP3    H277027   4.418   3.035   0.558  0.2529  2.0290  1.4795
18538TIP3   OH277028   1.022   6.072   4.387 -0.3172 -0.3472 -0.1146
18538TIP3    H177029   0.983   5.996   4.430 -1.4857  0.9064  1.1548
18538TIP3    H277030   1.058   6.124   4.459  2.1380 -0.5422 -1.1002
18539TIP3   OH277031   6.529   4.808  12.912  0.1032 -0.4312  0.2211
18539TIP3    H177032   6.570   4.751  12.977 -0.7454 -0.1590  1.0066
18539TIP3    H277033   6.602   4.857  12.874  0.6637 -0.9336  0.6341
18540TIP3   OH277034   1.811   5.079   6.783 -0.6656 -0.1411  0.4337
18540TIP3    H177035   1.726   5.036   6.783 -0.1147 -1.2796  1.2051
18540TIP3    H277036   1.792   5.171   6.768 -1.9974 -0.4325  0.2476
18541TIP3   OH277037   6.739   4.333  11.912 -0.4465  0.5804 -0.0319
18541TIP3    H177038   6.772   4.244  11.905 -0.8679  0.4489 -0.4808
18541TIP3    H277039   6.644   4.323  11.908 -0.5331  0.9829  0.7588
18542TIP3   OH277040   6.564   0.950  11.085 -0.3504 -0.2962 -0.0788
18542TIP3    H177041   6.549   0.883  11.019 -4.4128  0.1421  0.1224
18542TIP3    H277042   6.552   1.033  11.038  1.1987  0.2289  0.3756
18543TIP3   OH277043   6.460   2.752  16.742  0.0011  0.0836  0.3896
18543TIP3    H177044   6.466   2.661  16.713  1.8923 -0.3992  2.0065
18543TIP3    H277045   6.488   2.803  16.667  0.1324 -0.7730 -0.1597
18544TIP3   OH277046   6.213   5.609  11.206 -0.4313  0.0271 -0.1414
18544TIP3    H177047   6.212   5.680  11.142  1.2499 -0.9071 -1.2780
18544TIP3    H277048   6.143   5.631  11.267  0.5809  3.1037  0.0603
18545TIP3   OH277049   6.564   3.967  12.770  0.4415  0.2587  0.6067
18545TIP3    H177050   6.489   4.005  12.724  0.7017  0.3458  0.2471
18545TIP3    H277051   6.531   3.887  12.810  0.1486  0.3159  0.4766
18546TIP3   OH277052   5.124   4.504   2.820 -0.0087  0.1502  0.1148
18546TIP3    H177053   5.084   4.419   2.840  0.1892  0.6914  3.4515
18546TIP3    H277054   5.195   4.483   2.760 -0.5503 -1.9221  0.1154
18547TIP3   OH277055   1.367   4.105  11.381  0.5583  0.0787  0.2346
18547TIP3    H177056   1.342   4.108  11.288  0.3447  0.9763  0.3215
18547TIP3    H277057   1.293   4.142  11.428  1.2758  1.0401  0.6400
18548TIP3   OH277058   2.728   2.378  13.478  0.1839  0.2130  0.1198
18548TIP3    H177059   2.692   2.313  13.539 -0.2608 -0.2537 -0.6344
18548TIP3    H277060   2.690   2.356  13.394  0.7441  0.9030 -0.3234
18549TIP3   OH277061   3.476   5.878  10.919  0.1376 -0.6636  0.1308
18549TIP3    H177062   3.425   5.870  11.000 -0.3250 -0.0424 -0.0845
18549TIP3    H277063   3.422   5.836  10.852 -0.8986  1.3712 -0.4149
18550TIP3   OH277064   6.304   4.164  14.332 -0.1526  0.0879  0.5616
18550TIP3    H177065   6.322   4.214  14.253 -0.8542 -0.5037  0.0140
18550TIP3    H277066   6.389   4.156  14.375  0.4239 -0.3949 -0.6257
18551TIP3   OH277067   2.470   5.086   4.999 -0.6598  0.0890 -0.4966
18551TIP3    H177068   2.424   5.009   4.963 -0.3334  0.5199 -1.8813
18551TIP3    H277069   2.401   5.152   5.007 -0.8068 -0.1230  0.0541
18552TIP3   OH277070   2.844   1.826  12.256 -0.5885  0.0012  0.3623
18552TIP3    H177071   2.794   1.822  12.338 -0.2479  1.1306  0.6427
18552TIP3    H277072   2.778   1.819  12.187 -1.2647  2.1843  0.7121
18553TIP3   OH277073   6.218   1.169   0.216 -0.3444  0.2755 -0.6946
18553TIP3    H177074   6.220   1.078   0.185  0.8972 -0.6227  1.7109
18553TIP3    H277075   6.277   1.216   0.156 -0.9237 -0.5056 -1.9102
18554TIP3   OH277076   6.512   6.216   2.504 -0.4827 -0.5843 -0.0819
18554TIP3    H177077   6.601   6.182   2.501 -1.0346 -2.1702  0.6088
18554TIP3    H277078   6.458   6.147   2.466 -1.3975  0.5032 -0.8400
18555TIP3   OH277079   5.695   1.389  15.028  1.0254 -0.7212 -0.5576
18555TIP3    H177080   5.778   1.391  14.980  0.1327  0.0963 -2.1700
18555TIP3    H277081   5.658   1.476  15.013 -0.6567 -1.4626 -0.8810
18556TIP3   OH277082   4.849   5.965   5.240 -0.8296  0.2298  0.4346
18556TIP3    H177083   4.816   5.922   5.162  0.3442 -0.7453  0.4351
18556TIP3    H277084   4.944   5.967   5.228 -0.4640 -1.2701  2.4278
18557TIP3   OH277085   2.358   0.907   4.765  0.1378 -0.1596 -0.3347
18557TIP3    H177086   2.397   0.933   4.682  1.7953 -0.4934  0.2917
18557TIP3    H277087   2.291   0.842   4.742 -0.6041  0.9817 -1.5053
18558TIP3   OH277088   2.295   3.780  10.960 -0.0507 -0.8737  0.3623
18558TIP3    H177089   2.315   3.842  10.889  2.0391 -1.7207  0.1648
18558TIP3    H277090   2.277   3.836  11.035 -0.9310  0.0092 -0.4617
18559TIP3   OH277091   3.005   6.080   1.588  0.2282  0.0761 -0.0226
18559TIP3    H177092   3.005   6.117   1.500 -0.3377 -0.9992 -0.4828
18559TIP3    H277093   3.031   5.989   1.576 -0.6605 -0.3004  0.8271
18560TIP3   OH277094   0.589   3.516  12.032  0.2174  0.2185 -1.0111
18560TIP3    H177095   0.635   3.508  12.116 -1.8812  0.2284  0.2003
18560TIP3    H277096   0.626   3.595  11.993 -0.0542  1.3119  0.8011
18561TIP3   OH277097   5.568   3.466  15.444 -0.4677 -0.4747  0.3930
18561TIP3    H177098   5.603   3.383  15.412  2.1160  0.6638 -0.0306
18561TIP3    H277099   5.554   3.518  15.365 -1.7742 -0.3851  0.6674
18562TIP3   OH277100   0.887   5.026  13.212  0.3614  0.2604 -0.2134
18562TIP3    H177101   0.944   5.019  13.136 -1.0822  0.8863 -1.3878
18562TIP3    H277102   0.935   4.981  13.282  2.5144  1.1954 -0.9950
18563TIP3   OH277103   6.517   0.774   5.746  0.6731  0.3102  0.0946
18563TIP3    H177104   6.595   0.764   5.800  0.4243 -0.8283  0.2644
18563TIP3    H277105   6.497   0.685   5.716 -0.2392  0.6710 -0.3976
18564TIP3   OH277106   6.686   0.286   0.457  0.3377 -0.0318 -0.0274
18564TIP3    H177107   6.638   0.301   0.538 -1.1767 -1.4600 -0.6209
18564TIP3    H277108   6.641   0.339   0.392 -0.2878 -1.1799 -0.5369
18565TIP3   OH277109   4.819   0.535  15.409 -0.7042  1.0846 -0.6891
18565TIP3    H177110   4.824   0.497  15.497  0.0530  1.9337 -0.3419
18565TIP3    H277111   4.773   0.618  15.421  1.9206  2.6460 -0.5166
18566TIP3   OH277112   4.967   5.821   0.273 -0.1743  0.6438 -1.3124
18566TIP3    H177113   4.894   5.786   0.323  0.7048  0.1203 -0.3639
18566TIP3    H277114   4.927   5.858   0.195 -1.2245 -1.9866 -2.1246
18567TIP3   OH277115   1.426   5.190  13.454 -0.6505 -0.1466 -0.1243
18567TIP3    H177116   1.419   5.286  13.456 -2.6340 -0.2426  1.6851
18567TIP3    H277117   1.343   5.161  13.417 -0.8199 -1.1729  0.9764
18568TIP3   OH277118   4.462   0.411  15.858 -0.2057 -1.2163 -0.0400
18568TIP3    H177119   4.366   0.418  15.855 -0.1377  0.2495  0.1783
18568TIP3    H277120   4.479   0.329  15.903 -1.3863 -0.9259  0.9919
18569TIP3   OH277121   0.624   4.753   0.606  0.0916 -0.6148  0.1607
18569TIP3    H177122   0.597   4.835   0.565  1.6665 -0.4092 -0.5415
18569TIP3    H277123   0.704   4.728   0.559 -0.9388 -3.1507 -0.4348
18570TIP3   OH277124   5.838   1.948  14.927 -0.3226 -0.4762  0.2320
18570TIP3    H177125   5.748   1.918  14.941 -0.5846  0.5040  0.7413
18570TIP3    H277126   5.893   1.875  14.956 -0.9271 -0.1747  2.2495
18571TIP3   OH277127   6.018   6.605   0.166  0.4333  0.2106 -0.1776
18571TIP3    H177128   6.070   6.565   0.236 -3.4808  1.2336  3.7840
18571TIP3    H277129   5.974   6.532   0.124  1.2183 -0.2874 -0.1575
18572TIP3   OH277130   6.338   2.328  11.621  0.6623 -0.5046  0.2272
18572TIP3    H177131   6.304   2.239  11.627 -0.2212 -0.1333  0.9761
18572TIP3    H277132   6.329   2.350  11.528 -2.0354 -0.1354  0.4862
18573TIP3   OH277133   5.036   4.832  14.950  0.4789 -0.9535 -0.0982
18573TIP3    H177134   5.116   4.828  15.003  0.0456 -1.5462  0.5351
18573TIP3    H277135   5.065   4.811  14.861  1.3377  0.8148 -0.2735
18574TIP3   OH277136   4.760   5.604   1.287  0.0778  0.0363  0.3918
18574TIP3    H177137   4.709   5.660   1.230  1.3827  3.0196  1.9311
18574TIP3    H277138   4.698   5.538   1.318 -2.3090  2.2181  0.5488
18575TIP3   OH277139   6.400   4.484   5.197  0.5438 -0.4559 -0.1335
18575TIP3    H177140   6.414   4.579   5.207  0.1942 -0.0605 -2.6784
18575TIP3    H277141   6.322   4.478   5.142  0.0605 -2.2840  0.6997
18576TIP3   OH277142   6.119   6.514  16.011  0.4517 -0.1972 -0.2793
18576TIP3    H177143   6.149   6.605  16.013  0.9543 -0.3570 -0.4454
18576TIP3    H277144   6.028   6.519  16.040 -0.2248  0.6443 -2.2909
18577TIP3   OH277145   5.957   5.650   6.301 -0.0907  0.2381 -0.1418
18577TIP3    H177146   5.880   5.669   6.248 -0.5340  0.2225  0.4914
18577TIP3    H277147   5.940   5.694   6.384  0.7149  0.4842 -0.0936
18578TIP3   OH277148   5.905   3.609  12.854 -0.5838 -0.1619 -0.3255
18578TIP3    H177149   5.853   3.690  12.851  0.1088  0.3343  0.4491
18578TIP3    H277150   5.842   3.540  12.875 -1.1614  0.1949 -0.8522
18579TIP3   OH277151   6.075   0.768  12.431 -0.2386  0.5333 -0.5434
18579TIP3    H177152   6.044   0.757  12.521 -0.8021  0.4492 -0.7474
18579TIP3    H277153   6.106   0.681  12.405  0.9108  0.7794 -0.0765
18580TIP3   OH277154   0.941   1.145  14.601 -0.2028 -0.4004  0.0054
18580TIP3    H177155   0.966   1.141  14.508  1.1085  0.7337  0.2789
18580TIP3    H277156   0.910   1.056  14.621  4.2721 -2.2804 -0.2518
18581TIP3   OH277157   6.536   1.090   4.040 -0.1223 -0.6930 -0.4712
18581TIP3    H177158   6.544   1.005   4.084  0.9573 -0.2344  0.2537
18581TIP3    H277159   6.613   1.139   4.069  1.1476 -0.6558 -3.5408
18582TIP3   OH277160   3.035   4.186   3.433  0.4348  0.4943 -0.1878
18582TIP3    H177161   2.961   4.223   3.482 -0.8743 -0.9615 -0.9888
18582TIP3    H277162   3.032   4.230   3.348 -0.7103 -0.8592 -0.8959
18583TIP3   OH277163   1.448   0.641  15.762 -0.2523  0.4184  0.2058
18583TIP3    H177164   1.377   0.579  15.777  1.0316 -1.4890 -1.2178
18583TIP3    H277165   1.517   0.615  15.824  0.9759 -0.7783 -1.5827
18584TIP3   OH277166   4.024   5.811  14.178 -0.0007 -0.2075 -0.4271
18584TIP3    H177167   4.051   5.874  14.111 -3.5633 -0.0653 -1.9470
18584TIP3    H277168   4.024   5.727  14.131  0.2275 -0.5945  0.2591
18585TIP3   OH277169   2.436   5.986  11.507  0.3216  0.5841  0.8434
18585TIP3    H177170   2.497   6.059  11.525  0.6245  0.5291  0.0657
18585TIP3    H277171   2.459   5.957  11.419 -1.2983  1.0044  0.2603
18586TIP3   OH277172   2.517   1.097  13.081 -0.0174 -0.3127 -0.3926
18586TIP3    H177173   2.570   1.176  13.090  0.4463 -0.6054 -0.5155
18586TIP3    H277174   2.443   1.111  13.139  0.3057  0.0072 -0.0522
18587TIP3   OH277175   1.311   1.530  14.917 -0.5569 -0.1768 -0.8264
18587TIP3    H177176   1.258   1.596  14.963  0.0425 -0.7825  0.8149
18587TIP3    H277177   1.301   1.552  14.824 -2.7927  0.3863 -0.5137
18588TIP3   OH277178   3.201   0.851  15.011  0.0979  0.1087  0.0491
18588TIP3    H177179   3.111   0.878  14.992 -0.1897 -0.5175  0.4911
18588TIP3    H277180   3.240   0.832  14.926 -0.2720  0.1211 -0.1233
18589TIP3   OH277181   2.274   2.048   1.054  0.2935 -0.1399  0.1304
18589TIP3    H177182   2.235   2.059   0.967 -1.8211  0.6421  1.1052
18589TIP3    H277183   2.230   1.972   1.091  1.3379 -0.6029  0.4605
18590TIP3   OH277184   1.173   5.050  10.927 -0.4277 -0.3950 -0.3072
18590TIP3    H177185   1.246   5.017  10.978  0.2168 -2.1955 -2.2515
18590TIP3    H277186   1.194   5.028  10.836 -1.1013  3.3472 -1.5844
18591TIP3   OH277187   5.985   1.998  12.079 -0.0763 -0.4716 -0.6321
18591TIP3    H177188   6.011   1.915  12.039  2.6827 -0.1675  0.3465
18591TIP3    H277189   6.017   1.993  12.169 -2.3932  0.5495  0.3277
18592TIP3   OH277190   4.429   6.225  13.204 -0.1285 -0.0827  0.1080
18592TIP3    H177191   4.335   6.213  13.216  0.0091 -1.3998  0.0761
18592TIP3    H277192   4.451   6.169  13.129  0.9241 -1.1074  1.1150
18593TIP3   OH277193   0.511   4.916   1.232  0.2932  0.5160  0.3986
18593TIP3    H177194   0.509   4.847   1.298  0.7657  0.4519  0.3472
18593TIP3    H277195   0.430   4.904   1.182  1.4002 -1.4238 -1.0716
18594TIP3   OH277196   1.948   5.787   1.415  0.2496 -0.2410  0.1220
18594TIP3    H177197   2.012   5.745   1.472  1.2130  1.0871  0.0676
18594TIP3    H277198   1.863   5.771   1.457  0.7669 -0.7891  0.9740
18595TIP3   OH277199   1.615   6.489  14.346  0.1224  0.0610  0.1297
18595TIP3    H177200   1.562   6.567  14.366 -0.7937 -0.3539 -0.5842
18595TIP3    H277201   1.566   6.417  14.385  0.6002 -0.2383  0.1758
18596TIP3   OH277202   3.706   6.067  16.173 -0.1873  0.1294 -0.8310
18596TIP3    H177203   3.732   5.980  16.202  1.9868  0.5971 -1.2026
18596TIP3    H277204   3.621   6.054  16.132 -1.3526 -1.2762  1.7734
18597TIP3   OH277205   6.459   3.572   0.699 -0.1908 -0.0296 -0.2177
18597TIP3    H177206   6.437   3.663   0.719  0.1060 -0.1555  0.7696
18597TIP3    H277207   6.502   3.575   0.614 -2.9004  0.3719 -1.6510
18598TIP3   OH277208   6.155   3.581  11.951 -0.2823  0.4820 -0.4170
18598TIP3    H177209   6.210   3.518  11.998  0.1067  1.2671  0.2017
18598TIP3    H277210   6.216   3.625  11.891 -0.5488  0.2843 -0.8356
18599TIP3   OH277211   4.695   1.263   2.245  0.5501 -0.0880  0.2152
18599TIP3    H177212   4.772   1.231   2.196 -0.0901  0.0788 -0.9366
18599TIP3    H277213   4.664   1.186   2.292  2.4153  0.2299  2.1034
18600TIP3   OH277214   5.643   0.946   0.477  0.1229  0.5802  0.1171
18600TIP3    H177215   5.676   0.921   0.563 -0.5460  1.3008  0.5984
18600TIP3    H277216   5.716   0.993   0.435  0.4785  0.1486  0.2461
18601TIP3   OH277217   2.113   5.877  13.513  0.3202  0.0448 -0.0920
18601TIP3    H177218   2.144   5.822  13.441 -0.9303  0.8157 -1.2580
18601TIP3    H277219   2.186   5.937  13.530  0.0891  0.8805 -1.8108
18602TIP3   OH277220   6.212   2.039  11.631  0.2460 -0.0511  0.0192
18602TIP3    H177221   6.215   1.972  11.700 -0.1466 -0.4287 -0.3253
18602TIP3    H277222   6.262   2.001  11.559 -1.0012 -0.5169 -0.6356
18603TIP3   OH277223   1.942   6.729  12.474 -0.3286  0.2469 -0.4710
18603TIP3    H177224   1.959   6.797  12.409  1.0164  1.0049  0.6252
18603TIP3    H277225   1.955   6.772  12.559  1.0025 -1.4417  0.2533
18604TIP3   OH277226   1.127   3.633  15.368  0.3671 -0.7067 -0.2434
18604TIP3    H177227   1.072   3.599  15.439 -0.3287  0.9089  0.0346
18604TIP3    H277228   1.070   3.693  15.320  1.3261 -0.4930 -1.1597
18605TIP3   OH277229   0.277   5.273  14.167 -0.0914  0.1764  0.2589
18605TIP3    H177230   0.361   5.299  14.130  0.1916 -3.1019 -1.9113
18605TIP3    H277231   0.298   5.201  14.226 -1.2177  0.8627  1.5515
18606TIP3   OH277232   5.289   4.076   4.778 -0.0531  0.1312 -0.8577
18606TIP3    H177233   5.348   4.071   4.853  1.3866 -1.0317 -2.0129
18606TIP3    H277234   5.266   4.169   4.771  0.5803  0.4008  0.3955
18607TIP3   OH277235   1.863   1.847   4.971  0.8029 -0.0083 -0.6043
18607TIP3    H177236   1.889   1.782   4.906 -0.3501  2.1783 -3.4298
18607TIP3    H277237   1.779   1.881   4.940  1.8899  3.6658 -0.0172
18608TIP3   OH277238   5.411   1.355   6.380  0.5854  0.2419 -0.5900
18608TIP3    H177239   5.405   1.289   6.449  1.8954  2.5512  1.9431
18608TIP3    H277240   5.321   1.383   6.365 -0.0970 -2.4662 -2.2553
18609TIP3   OH277241   6.380   5.666  15.986  0.0879 -0.3978 -0.8340
18609TIP3    H177242   6.386   5.731  15.916  0.7117 -0.6239 -0.9962
18609TIP3    H277243   6.329   5.710  16.054 -0.1655 -0.0225 -1.2554
18610TIP3   OH277244   1.489   2.371  13.148 -0.5082  0.5502  0.0548
18610TIP3    H177245   1.496   2.304  13.215 -0.9728  0.8115  0.3681
18610TIP3    H277246   1.439   2.442  13.189  0.7899  1.4985  0.0447
18611TIP3   OH277247   0.881   5.110  12.686  0.2467  0.1440  0.0050
18611TIP3    H177248   0.900   5.064  12.604  0.8296 -0.0739  0.2588
18611TIP3    H277249   0.785   5.116  12.689  0.0281 -2.4247  0.6839
18612TIP3   OH277250   0.544   1.772  11.389  0.5290 -0.4881 -0.2335
18612TIP3    H177251   0.618   1.718  11.418 -0.2444 -0.5942  1.6548
18612TIP3    H277252   0.486   1.776  11.465  0.1417  2.2929 -0.5627
18613TIP3   OH277253   4.449   3.463  14.118  0.1955 -0.3079 -0.8430
18613TIP3    H177254   4.480   3.546  14.154  0.4249 -0.8912  0.3513
18613TIP3    H277255   4.366   3.485  14.075  0.0013  0.4553 -0.1057
18614TIP3   OH277256   5.032   3.962   0.076  0.4035 -0.2166 -0.5170
18614TIP3    H177257   5.117   3.938   0.113 -0.1824 -1.6235 -0.0074
18614TIP3    H277258   5.044   3.956  -0.019  0.9757 -0.0298 -0.4581
18615TIP3   OH277259   1.070   1.813  14.626 -0.7941 -0.3177  0.1296
18615TIP3    H177260   1.034   1.811  14.537  1.3141  0.3474 -0.7953
18615TIP3    H277261   1.092   1.904  14.641  0.3055 -0.6608  0.7086
18616TIP3   OH277262   1.024   2.526  11.355  0.1174  0.4348 -0.2039
18616TIP3    H177263   1.068   2.468  11.292  2.2979  3.8741 -2.2074
18616TIP3    H277264   0.987   2.596  11.301 -1.8316  1.3247  2.0967
18617TIP3   OH277265   1.133   6.739  13.283 -0.1780  0.1744  0.3016
18617TIP3    H177266   1.105   6.755  13.373  1.3795  0.8212  0.7151
18617TIP3    H277267   1.226   6.718  13.291 -0.0455  0.1130 -1.1548
18618TIP3   OH277268   3.264   5.269  14.902  0.0847 -0.3865 -0.4443
18618TIP3    H177269   3.287   5.242  14.991  1.3678 -2.3261 -1.3038
18618TIP3    H277270   3.341   5.316  14.871  0.3289 -1.2018 -1.0952
18619TIP3   OH277271   5.921   3.487  11.837 -0.3230  0.6183  0.2702
18619TIP3    H177272   5.997   3.526  11.880  0.4788  0.0819 -0.6198
18619TIP3    H277273   5.935   3.503  11.744 -0.4857 -0.8500 -0.0327
18620TIP3   OH277274   3.656   1.336   2.558 -0.3111 -0.6867  0.3487
18620TIP3    H177275   3.608   1.417   2.539  0.8628 -0.0306  0.0720
18620TIP3    H277276   3.684   1.346   2.649  0.9101 -0.1972 -0.0690
18621TIP3   OH277277   2.099   3.836  15.891  0.3745 -0.2277 -0.6218
18621TIP3    H177278   2.095   3.753  15.939  3.6201 -0.9621 -1.3864
18621TIP3    H277279   2.032   3.827  15.823  0.5731 -2.1701 -0.6306
18622TIP3   OH277280   6.469   2.825   1.108 -0.1062 -0.4824  0.2267
18622TIP3    H177281   6.454   2.890   1.177 -0.4605  1.3060 -1.4189
18622TIP3    H277282   6.554   2.848   1.071 -0.8857  0.0768 -1.3531
18623TIP3   OH277283   4.390   6.416  16.856 -0.2979 -0.0627 -0.7485
18623TIP3    H177284   4.357   6.326  16.851  1.5414 -0.7801 -1.0357
18623TIP3    H277285   4.320   6.470  16.818 -1.3516 -1.3879 -0.7696
18624TIP3   OH277286   6.631   6.781  13.854 -0.3258  0.3102 -0.1895
18624TIP3    H177287   6.628   6.782  13.950 -0.9464  0.3570 -0.2020
18624TIP3    H277288   6.719   6.751  13.833 -0.0593  0.6683  0.3938
18625TIP3   OH277289   5.047   1.787   4.404  0.0327  0.3224 -0.1884
18625TIP3    H177290   5.012   1.760   4.489 -0.9789 -2.0930 -1.2783
18625TIP3    H277291   4.977   1.838   4.364 -0.4839 -0.6390 -0.5348
18626TIP3   OH277292   0.858   1.849  10.626 -0.2541  0.6102 -0.6202
18626TIP3    H177293   0.798   1.864  10.552 -0.5289 -1.2991 -0.8469
18626TIP3    H277294   0.827   1.767  10.665  0.9698  0.6712  0.5314
18627TIP3   OH277295   3.314   1.671   1.767  0.1610 -0.1064 -0.0565
18627TIP3    H177296   3.409   1.664   1.765  0.1605 -0.0543 -0.5354
18627TIP3    H277297   3.296   1.765   1.766  0.1076 -0.1118  0.3676
18628TIP3   OH277298   3.820   5.343   2.416  0.0234 -0.2230  0.3461
18628TIP3    H177299   3.903   5.296   2.423  0.2677  0.2019  0.2829
18628TIP3    H277300   3.844   5.435   2.409 -0.4062 -0.1847 -0.9062
18629TIP3   OH277301   1.926   3.555  13.393  0.0870  0.2715  0.3173
18629TIP3    H177302   1.915   3.649  13.379  0.7316  0.3796  0.4914
18629TIP3    H277303   1.996   3.549  13.458  0.3212 -0.3395  0.0141
18630TIP3   OH277304   0.519   5.640  12.975 -0.3370  0.5429  0.5716
18630TIP3    H177305   0.499   5.593  12.894  0.4583 -1.2661  1.3587
18630TIP3    H277306   0.474   5.590  13.043  0.1989  1.1721  1.4130
18631TIP3   OH277307   1.345   5.508   5.665  0.0058  0.1678 -0.2575
18631TIP3    H177308   1.396   5.435   5.628 -1.7321 -0.9847 -0.4754
18631TIP3    H277309   1.347   5.493   5.759  0.8775  0.7106 -0.1720
18632TIP3   OH277310   0.867   4.676  15.454  0.1373 -0.3038  0.0601
18632TIP3    H177311   0.956   4.710  15.449  0.6259 -1.6708 -1.7967
18632TIP3    H277312   0.836   4.676  15.363 -1.6018 -0.2816  0.6112
18633TIP3   OH277313   4.807   5.373   3.801 -0.2663  0.4878  0.1309
18633TIP3    H177314   4.721   5.414   3.808 -0.9998 -1.2104  3.4743
18633TIP3    H277315   4.788   5.280   3.792  1.2714  0.2046 -0.4676
18634TIP3   OH277316   2.944   5.599  14.856  0.3321 -0.3113  0.1052
18634TIP3    H177317   2.907   5.517  14.822 -0.8198  0.3148 -0.1749
18634TIP3    H277318   2.877   5.665  14.839  0.7318  0.4731  1.4377
18635TIP3   OH277319   3.932   1.936   2.286  0.1803  0.3756  0.2083
18635TIP3    H177320   3.907   2.019   2.245  2.0335  1.0604  0.3807
18635TIP3    H277321   4.018   1.953   2.324 -0.7474 -0.6861  3.0668
18636TIP3   OH277322   3.325   6.597  11.240  0.2666 -0.2642  0.0694
18636TIP3    H177323   3.246   6.591  11.185  1.0067  0.3830 -1.1189
18636TIP3    H277324   3.305   6.543  11.316 -1.8168  0.8825  0.4144
18637TIP3   OH277325   6.295   3.380   3.323 -0.0884 -0.8486 -0.4041
18637TIP3    H177326   6.323   3.457   3.274 -1.4313 -0.4902 -0.6421
18637TIP3    H277327   6.280   3.313   3.257  0.7900 -1.2327 -0.2239
18638TIP3   OH277328   0.577   6.165  15.682  0.2460  0.7885  1.1155
18638TIP3    H177329   0.641   6.235  15.667 -0.8986  2.0420  1.8111
18638TIP3    H277330   0.538   6.151  15.596 -1.3027  2.8913  1.3846
18639TIP3   OH277331   3.448   2.836  13.042  0.1732  0.1357  0.2773
18639TIP3    H177332   3.513   2.785  13.091  1.3571  2.6350  1.4642
18639TIP3    H277333   3.459   2.926  13.074 -2.9273  0.9012 -0.5284
18640TIP3   OH277334   1.985   6.190   5.840 -0.1359  0.2790 -0.2584
18640TIP3    H177335   2.013   6.106   5.804  0.1421 -0.5379  1.7686
18640TIP3    H277336   1.905   6.212   5.792  0.4014 -0.5496 -1.5932
18641TIP3   OH277337   5.626   4.902   3.375  0.0729  0.2549 -0.8416
18641TIP3    H177338   5.690   4.947   3.320  0.9162  1.9323  1.3271
18641TIP3    H277339   5.661   4.814   3.386  1.2140  0.6675 -0.9901
18642TIP3   OH277340   3.728   2.960  16.726  0.0619  0.4904  0.3044
18642TIP3    H177341   3.771   2.888  16.679  1.3070  1.7005 -0.4721
18642TIP3    H277342   3.762   2.953  16.816  0.1266  0.0858  0.2503
18643TIP3   OH277343   4.117   3.045  10.684 -0.8641  0.1057 -0.7038
18643TIP3    H177344   4.173   3.039  10.761 -1.1086 -1.1572 -0.5977
18643TIP3    H277345   4.097   3.138  10.676  2.4665  0.8515 -1.6815
18644TIP3   OH277346   1.420   2.806  12.998 -0.2203  0.5145 -0.3036
18644TIP3    H177347   1.385   2.867  13.063 -0.5339  0.1380 -0.1181
18644TIP3    H277348   1.366   2.727  13.007 -2.0453  1.3312 -2.7519
18645TIP3   OH277349   1.004   5.831  12.520 -0.3314  0.1966  0.2622
18645TIP3    H177350   1.094   5.798  12.514  0.0824  1.0456  1.4383
18645TIP3    H277351   1.013   5.920  12.553 -1.5240  0.9472 -1.3062
18646TIP3   OH277352   4.150   5.660   5.987  0.6906  0.1736  0.1072
18646TIP3    H177353   4.117   5.574   6.012  1.6668  0.3314  2.1271
18646TIP3    H277354   4.080   5.721   6.007  1.2891  0.2399  2.1948
18647TIP3   OH277355   2.226   4.655   3.786  0.0294 -0.2066  0.1348
18647TIP3    H177356   2.255   4.685   3.700 -1.1915 -0.9319 -0.5648
18647TIP3    H277357   2.132   4.636   3.774  0.0798 -1.3408  1.3370
18648TIP3   OH277358   4.552   0.457   5.231 -0.1625  0.4797  0.2245
18648TIP3    H177359   4.612   0.516   5.277  0.0496  1.3015 -1.0465
18648TIP3    H277360   4.562   0.373   5.275  1.4931  0.7487  0.4087
18649TIP3   OH277361   5.116   3.955   1.249  0.3986 -0.0034  0.3182
18649TIP3    H177362   5.145   4.044   1.230 -1.1986  0.4943  0.0876
18649TIP3    H277363   5.113   3.951   1.345 -1.1002  0.7635  0.3343
18650TIP3   OH277364   0.526   6.162   3.895 -0.0122 -0.4696 -0.3801
18650TIP3    H177365   0.511   6.129   3.983 -2.1498 -2.0569 -1.2485
18650TIP3    H277366   0.598   6.109   3.861 -1.1823 -2.0046 -0.5761
18651TIP3   OH277367   1.697   2.560   4.127 -0.7037 -0.1092  0.2077
18651TIP3    H177368   1.665   2.505   4.055 -2.0884 -0.5913  1.1475
18651TIP3    H277369   1.736   2.498   4.189  2.8279  0.4870 -1.1431
18652TIP3   OH277370   1.174   4.078   4.423  0.1548 -0.7833 -0.0038
18652TIP3    H177371   1.139   4.139   4.357  2.0791 -0.0619 -0.4314
18652TIP3    H277372   1.096   4.041   4.464 -1.1042  0.3166 -1.2463
18653TIP3   OH277373   1.283   0.040   3.890  0.1201 -0.0470 -0.1157
18653TIP3    H177374   1.290   0.012   3.982 -0.2998 -0.5218 -0.2239
18653TIP3    H277375   1.269  -0.041   3.841 -0.8298  0.3114 -0.4636
18654TIP3   OH277376   0.050   0.615  15.877  0.2518  0.6871  0.1883
18654TIP3    H177377   0.062   0.707  15.850  0.0608  0.1667 -1.8902
18654TIP3    H277378  -0.018   0.618  15.944 -0.1129  2.0370 -0.2064
18655TIP3   OH277379   3.280   3.139   5.643 -0.1660 -0.1867  0.9162
18655TIP3    H177380   3.291   3.107   5.553 -0.7484 -0.1023  0.8073
18655TIP3    H277381   3.307   3.231   5.639  1.8380 -0.7187  1.3042
18656TIP3   OH277382   1.064   6.167   3.199 -0.0041 -0.1609  0.1923
18656TIP3    H177383   1.112   6.200   3.123  0.0166 -0.2926  0.1491
18656TIP3    H277384   1.082   6.073   3.201  0.2279 -0.1136  0.5265
18657TIP3   OH277385   0.053   6.581  16.077  0.2609 -0.4241  0.2776
18657TIP3    H177386   0.024   6.672  16.078  1.5534  0.0153 -0.4846
18657TIP3    H277387   0.063   6.559  15.984  1.9949 -0.6492  0.4818
18658TIP3   OH277388   2.728   1.542   0.919 -0.1289  0.3302 -0.4295
18658TIP3    H177389   2.661   1.596   0.962 -1.1947 -0.3282 -1.1959
18658TIP3    H277390   2.754   1.478   0.985  0.3033  1.0694  0.1193
18659TIP3   OH277391   2.253   3.224   0.494  0.0800 -0.5659 -0.3406
18659TIP3    H177392   2.318   3.169   0.451 -0.0584 -2.1908  1.3994
18659TIP3    H277393   2.278   3.223   0.586 -1.4631  0.1136  0.1150
18660TIP3   OH277394   5.150   0.056  17.057  0.4361  0.0313  0.4589
18660TIP3    H177395   5.166  -0.025  17.009  1.0890 -0.9929  2.3060
18660TIP3    H277396   5.057   0.052  17.081  0.8284 -1.0177  1.9421
18661TIP3   OH277397   1.165   6.655   2.200 -0.0763  0.1683  0.4686
18661TIP3    H177398   1.166   6.560   2.208 -2.0977 -0.2291 -2.2744
18661TIP3    H277399   1.155   6.671   2.106 -2.2480  2.9902  1.0344
18662TIP3   OH277400   2.628   4.449  16.191 -0.0667  0.7503 -0.0876
18662TIP3    H177401   2.566   4.411  16.253  1.0847 -0.0433  0.6131
18662TIP3    H277402   2.573   4.481  16.119 -1.1982 -1.0985 -0.1072
18663TIP3   OH277403   5.724   2.444   0.767  0.3585 -0.2696  0.0198
18663TIP3    H177404   5.712   2.539   0.758 -0.3233 -0.3319  0.2322
18663TIP3    H277405   5.790   2.422   0.701 -0.8037  0.0799 -1.3122
18664TIP3   OH277406   2.083   2.016   0.262 -0.6058 -0.0433  0.1200
18664TIP3    H177407   2.083   1.922   0.248 -2.5668 -0.0466  0.0006
18664TIP3    H277408   2.127   2.052   0.185  1.2335 -0.8866  0.7149
18665TIP3   OH277409   3.636   0.655  11.726 -0.1315  0.7515  0.1744
18665TIP3    H177410   3.700   0.611  11.781  0.6114 -1.1661 -2.0520
18665TIP3    H277411   3.686   0.723  11.681  0.1921 -0.1168 -0.8377
18666TIP3   OH277412   6.031   5.242  14.797  0.3036  0.6071  0.0517
18666TIP3    H177413   6.067   5.297  14.727 -1.8566  2.6581  0.4162
18666TIP3    H277414   5.948   5.210  14.762  1.8868 -3.4880 -0.5393
18667TIP3   OH277415   5.726   0.064   0.312  0.2380 -0.2509 -0.4312
18667TIP3    H177416   5.728  -0.032   0.313  0.3412 -0.2493  0.8448
18667TIP3    H277417   5.700   0.086   0.222  0.2455 -1.4682 -0.7540
18668TIP3   OH277418   2.944   0.246  12.260  0.0164 -0.1280  0.3279
18668TIP3    H177419   3.037   0.259  12.280  0.1836 -0.1778 -0.3935
18668TIP3    H277420   2.909   0.202  12.338  1.0219 -1.8285 -0.1324
18669TIP3   OH277421   6.170   6.563   3.458  0.4016  0.7293 -0.4355
18669TIP3    H177422   6.163   6.478   3.501 -2.0388  0.7963 -0.5757
18669TIP3    H277423   6.214   6.545   3.375  0.3787 -0.3038 -0.2259
18670TIP3   OH277424   5.640   3.497   4.101  0.1861  0.2710  0.1285
18670TIP3    H177425   5.622   3.589   4.122  0.9210  0.2822  0.7419
18670TIP3    H277426   5.722   3.478   4.146  0.7862 -0.2856 -1.1609
18671TIP3   OH277427   2.959   3.975  15.210 -0.2078  0.3838 -0.2703
18671TIP3    H177428   2.926   3.910  15.148  0.7546  1.3878 -1.8937
18671TIP3    H277429   2.957   4.058  15.161  2.6892  0.8453  0.2354
18672TIP3   OH277430   5.321   6.780  14.293 -0.2870  0.3632 -0.1061
18672TIP3    H177431   5.411   6.789  14.323 -0.0735 -0.3192 -0.5139
18672TIP3    H277432   5.320   6.696  14.246 -1.3466 -0.0823  0.6687
18673TIP3   OH277433   1.600   4.791  10.929 -0.3012  0.4917  0.3314
18673TIP3    H177434   1.525   4.841  10.962 -1.7046 -1.6459  0.6580
18673TIP3    H277435   1.588   4.790  10.834 -1.9975 -1.5942  0.4926
18674TIP3   OH277436   3.519   3.234   5.363  0.1413  0.1945  0.2734
18674TIP3    H177437   3.594   3.243   5.305  0.6220 -0.4189  0.7889
18674TIP3    H277438   3.461   3.306   5.338  1.0990  0.9597  0.1760
18675TIP3   OH277439   3.247   1.622   4.700  0.1383  0.5613 -0.1966
18675TIP3    H177440   3.335   1.592   4.676  0.3913  0.4459  0.8037
18675TIP3    H277441   3.228   1.693   4.639  0.7491  0.3105 -0.6904
18676TIP3   OH277442   3.156   3.189   1.771 -0.2028  0.0201  0.1724
18676TIP3    H177443   3.091   3.212   1.838  1.4604  0.4689  1.7077
18676TIP3    H277444   3.117   3.116   1.724 -1.7125  0.1123  1.1998
18677TIP3   OH277445   3.556   0.575  15.241  0.2931 -0.4958  0.3082
18677TIP3    H177446   3.462   0.566  15.232  0.2820  0.4415 -0.8747
18677TIP3    H277447   3.586   0.491  15.274 -0.6878 -1.6849 -1.6378
18678TIP3   OH277448   2.734   2.448  12.461  0.3845 -0.1002 -0.1909
18678TIP3    H177449   2.814   2.433  12.512  1.1453  0.4131 -1.1928
18678TIP3    H277450   2.664   2.446  12.526  1.0925 -1.5146  0.6030
18679TIP3   OH277451   3.918   2.395   1.684 -0.5648 -0.4403 -0.3466
18679TIP3    H177452   3.883   2.377   1.597  0.9182 -0.4855 -0.9647
18679TIP3    H277453   3.956   2.312   1.712  1.1747  0.1843 -0.7497
18680TIP3   OH277454   2.723   4.695   4.113  0.2919  0.0773  0.2178
18680TIP3    H177455   2.668   4.724   4.040  0.4723 -0.4504 -0.1318
18680TIP3    H277456   2.682   4.613   4.142 -0.1698  0.6209  1.1461
18681TIP3   OH277457   5.264   4.902   2.488  0.0796  0.9934  0.1917
18681TIP3    H177458   5.234   4.976   2.435 -0.7965  0.5428  0.0377
18681TIP3    H277459   5.189   4.880   2.544 -0.2374 -0.6840 -0.7882
18682TIP3   OH277460   6.284   3.008   1.852 -0.2085  0.2316  0.4215
18682TIP3    H177461   6.189   3.018   1.852 -0.0255  2.4395  1.2594
18682TIP3    H277462   6.308   3.010   1.945  0.7288  0.6026  0.1790
18683TIP3   OH277463   0.546   1.698  13.482 -0.5863  0.2711  0.2230
18683TIP3    H177464   0.553   1.628  13.417 -1.7890 -2.1999  2.5779
18683TIP3    H277465   0.492   1.765  13.439  0.1144 -0.4259 -1.8971
18684TIP3   OH277466   2.121   6.654  11.415  0.1429  0.4186 -0.5384
18684TIP3    H177467   2.152   6.590  11.351 -0.4557  1.6729 -2.1507
18684TIP3    H277468   2.201   6.693  11.451  0.5116 -1.1274  0.4194
18685TIP3   OH277469   2.474   3.197   5.676  0.5862  0.6250  0.5042
18685TIP3    H177470   2.507   3.135   5.741  1.2927  0.9264  0.4343
18685TIP3    H277471   2.552   3.227   5.629  0.0588  0.1376 -0.7368
18686TIP3   OH277472   3.459   1.123   2.711 -0.2429  0.5786 -0.5366
18686TIP3    H177473   3.455   1.144   2.618 -2.3106 -0.9839 -0.8865
18686TIP3    H277474   3.426   1.202   2.754  3.6622  2.5487 -0.7618
18687TIP3   OH277475   0.342   2.304  12.345  0.3601  0.2358 -0.5057
18687TIP3    H177476   0.299   2.229  12.387 -0.9903  0.3719 -1.5659
18687TIP3    H277477   0.276   2.339  12.286  1.1348  1.9868 -0.3917
18688TIP3   OH277478   6.727   1.234   5.430 -0.4336  0.6602  0.2646
18688TIP3    H177479   6.732   1.313   5.483 -2.7678  2.1942 -1.5481
18688TIP3    H277480   6.750   1.162   5.489  1.2604  2.6277  2.1084
18689TIP3   OH277481   5.140   3.688   1.599  0.6353  0.2510 -0.7218
18689TIP3    H177482   5.069   3.724   1.652 -0.9048 -1.3931 -1.5240
18689TIP3    H277483   5.110   3.599   1.577  3.8924 -1.3505  0.6236
18690TIP3   OH277484   5.273   2.332   4.525  0.4171 -0.0933  0.4632
18690TIP3    H177485   5.184   2.299   4.512 -0.9000  3.4200 -0.6608
18690TIP3    H277486   5.316   2.322   4.440 -0.1165  1.2617  0.0049
18691TIP3   OH277487   3.176   4.057  13.480 -0.1593  0.1661  0.4199
18691TIP3    H177488   3.160   4.014  13.564  1.1575 -0.4119  0.3911
18691TIP3    H277489   3.248   4.117  13.497  0.2408 -0.0858 -0.3255
18692TIP3   OH277490   5.351   3.766  13.834 -0.1851  0.2743  0.7124
18692TIP3    H177491   5.260   3.761  13.804 -0.8002  3.8226  1.5825
18692TIP3    H277492   5.348   3.732  13.923  0.0177 -2.3968 -0.2161
18693TIP3   OH277493   1.079   4.883   4.678  0.4955  0.0804  0.2198
18693TIP3    H177494   1.032   4.902   4.760  1.0298  0.5457  0.4311
18693TIP3    H277495   1.122   4.800   4.694  0.7916  0.2849  0.5070
18694TIP3   OH277496   0.837   1.459   3.351  0.1053  0.0318 -0.0242
18694TIP3    H177497   0.752   1.433   3.317  0.7563 -1.5355 -0.5442
18694TIP3    H277498   0.836   1.555   3.349 -2.1670  0.1196  1.3361
18695TIP3   OH277499   1.572   4.289  17.196 -0.1357  0.2939  0.2302
18695TIP3    H177500   1.621   4.208  17.189 -2.5009 -1.1889 -0.3422
18695TIP3    H277501   1.624   4.353  17.147  2.5654 -0.3875  1.9721
18696TIP3   OH277502   1.162   2.240   2.598 -0.4083 -0.5699 -0.1684
18696TIP3    H177503   1.144   2.295   2.522  1.5259  0.3850 -0.0103
18696TIP3    H277504   1.076   2.211   2.628 -1.4615  1.7124 -0.7669
18697TIP3   OH277505   3.867   1.301   5.107  0.0780 -0.2539 -0.9448
18697TIP3    H177506   3.920   1.252   5.044 -1.9414 -2.4045 -1.1172
18697TIP3    H277507   3.806   1.352   5.053 -0.0552 -0.2039 -0.7494
18698TIP3   OH277508   0.192   3.734   0.890  0.2116 -0.0660 -0.0047
18698TIP3    H177509   0.185   3.762   0.981 -0.4309  0.9550 -0.3545
18698TIP3    H277510   0.260   3.667   0.891 -0.2322 -0.5312  1.3306
18699TIP3   OH277511   1.335   1.499  11.253 -0.0885  0.0991 -0.0011
18699TIP3    H177512   1.351   1.558  11.326  0.4964 -0.8517  0.6521
18699TIP3    H277513   1.420   1.462  11.232 -0.1174  0.8624 -1.6345
18700TIP3   OH277514   0.544   2.546  14.829  0.4482 -1.0152 -0.1591
18700TIP3    H177515   0.621   2.591  14.796 -0.2635  0.1048 -0.3599
18700TIP3    H277516   0.553   2.456  14.799  2.0288 -1.0847  0.4566
18701TIP3   OH277517   5.390   6.571  16.821  0.1100  0.0449 -0.4149
18701TIP3    H177518   5.333   6.555  16.897 -0.4970 -0.0209 -0.8764
18701TIP3    H277519   5.478   6.552  16.853 -0.1534 -0.1160  0.2351
18702TIP3   OH277520   6.719   5.951   3.198  0.0436 -0.4093  0.2072
18702TIP3    H177521   6.814   5.965   3.192 -0.0291 -0.3257 -1.1569
18702TIP3    H277522   6.710   5.864   3.237  0.7436 -1.1378 -1.1622
18703TIP3   OH277523   5.382   2.435  15.530  0.0740  0.2802  1.0065
18703TIP3    H177524   5.451   2.501  15.541 -1.0811  1.7141 -0.0304
18703TIP3    H277525   5.377   2.392  15.616  2.1050  0.2523  1.1647
18704TIP3   OH277526   4.797   5.346   2.249 -0.1028 -0.4585  0.3981
18704TIP3    H177527   4.869   5.283   2.247  1.0901  0.8627  0.3180
18704TIP3    H277528   4.722   5.297   2.216  1.1276 -1.4141 -1.1336
18705TIP3   OH277529   3.357   3.528  12.210 -0.1458  0.1024 -0.2446
18705TIP3    H177530   3.377   3.438  12.235 -0.6829 -0.5262 -1.8933
18705TIP3    H277531   3.419   3.582  12.259  1.1656 -1.2829 -0.3252
18706TIP3   OH277532   5.813   1.776   3.611  0.8527 -0.0186 -0.3640
18706TIP3    H177533   5.888   1.823   3.647  0.5114  0.1054  0.1904
18706TIP3    H277534   5.845   1.739   3.529  1.6112 -0.2431  0.0304
18707TIP3   OH277535   1.672   4.129  15.449 -0.2338 -0.1838 -0.3695
18707TIP3    H177536   1.688   4.117  15.355  2.5179 -1.0604  0.1436
18707TIP3    H277537   1.597   4.188  15.452  1.0907  1.9125 -3.1843
18708TIP3   OH277538   0.508   1.788   1.923 -0.1192  0.0603  0.3997
18708TIP3    H177539   0.597   1.773   1.890 -0.4409 -1.2605  0.0619
18708TIP3    H277540   0.495   1.882   1.917  1.9781  0.5562  2.3552
18709TIP3   OH277541   2.380   6.265  13.037  1.1512 -0.2762 -0.2835
18709TIP3    H177542   2.464   6.248  12.994  0.4869 -2.3262 -0.8944
18709TIP3    H277543   2.314   6.237  12.973 -0.0295  1.1375  0.2386
18710TIP3   OH277544   4.468   0.374  14.463  0.8671  0.7140  0.5025
18710TIP3    H177545   4.544   0.316  14.454  1.2111  1.2111  0.1864
18710TIP3    H277546   4.428   0.348  14.546  0.7524 -0.2948  0.1499
18711TIP3   OH277547   2.230   2.063  12.636 -0.0408 -0.2815  0.2090
18711TIP3    H177548   2.274   2.041  12.554  0.6620 -0.3300  0.5975
18711TIP3    H277549   2.139   2.035  12.622 -0.0742  0.2657 -0.7718
18712TIP3   OH277550   2.821   4.173   5.447  0.1790 -0.0581 -0.0092
18712TIP3    H177551   2.837   4.239   5.381  0.7196 -2.0548 -2.0109
18712TIP3    H277552   2.880   4.101   5.424 -0.3090 -1.2250  2.0961
18713TIP3   OH277553   0.388   3.115   2.821  0.7959  0.5643  0.0158
18713TIP3    H177554   0.453   3.169   2.865  0.3649 -0.0452  1.4790
18713TIP3    H277555   0.437   3.040   2.788  0.8624  0.1000  1.1250
18714TIP3   OH277556   4.019   3.536  13.198 -0.2836 -0.4830  0.4667
18714TIP3    H177557   4.087   3.560  13.135  0.7588  0.6127  1.9178
18714TIP3    H277558   4.046   3.450  13.231  0.7432  0.1839  1.4296
18715TIP3   OH277559   5.655   3.637  12.248 -0.2096 -0.2270 -0.3602
18715TIP3    H177560   5.569   3.597  12.244 -1.5364  1.8680  2.7436
18715TIP3    H277561   5.715   3.564  12.264 -1.7454 -1.4910 -0.1135
18716TIP3   OH277562   4.566   6.025   0.259 -0.1038  0.7055 -0.2104
18716TIP3    H177563   4.540   6.074   0.181  0.2766 -1.2334 -1.6346
18716TIP3    H277564   4.653   5.991   0.238  0.3355  0.7603  1.3823
18717TIP3   OH277565   2.541   3.275   4.374 -0.0651  0.7335  0.2520
18717TIP3    H177566   2.579   3.224   4.446  1.4774 -1.5186 -1.9919
18717TIP3    H277567   2.461   3.228   4.351  0.2051  0.6028 -0.4255
18718TIP3   OH277568   5.417   3.478  11.348 -0.5775  0.2564 -0.2731
18718TIP3    H177569   5.359   3.415  11.390 -0.7415  0.7727  0.2925
18718TIP3    H277570   5.438   3.541  11.417 -0.7583  1.0560 -0.9303
18719TIP3   OH277571   3.940   4.687  13.410 -0.1732 -0.3110  0.1595
18719TIP3    H177572   4.021   4.676  13.461  0.1060  0.7517 -0.0328
18719TIP3    H277573   3.873   4.646  13.464  0.3450 -0.3932  0.7607
18720TIP3   OH277574   2.506   5.168   4.357 -0.7473  0.7098  0.0402
18720TIP3    H177575   2.465   5.090   4.394  1.2846 -1.2845 -1.6687
18720TIP3    H277576   2.577   5.190   4.417  0.2921 -0.3591 -0.7611
18721TIP3   OH277577   0.886   1.733  12.510  0.5246  0.1918  0.0964
18721TIP3    H177578   0.853   1.776  12.431 -0.7570 -0.1796  0.3914
18721TIP3    H277579   0.859   1.791  12.581  0.7233 -0.0073  0.3342
18722TIP3   OH277580   4.200   1.074   0.858 -0.1678  0.2352  0.6323
18722TIP3    H177581   4.255   1.102   0.931 -0.7900  0.7823  0.8992
18722TIP3    H277582   4.236   1.120   0.782  1.0926 -1.0841  0.3882
18723TIP3   OH277583   2.088   4.088   4.148  0.0075 -0.5949 -0.1078
18723TIP3    H177584   2.131   4.042   4.075 -2.8433 -0.4788 -2.0398
18723TIP3    H277585   2.001   4.048   4.154 -0.2569  0.1812  2.5624
18724TIP3   OH277586   5.094   6.149  14.360  0.6926  0.0582 -0.5632
18724TIP3    H177587   5.067   6.225  14.308 -2.0071 -0.2791  0.1977
18724TIP3    H277588   5.026   6.084  14.344  1.1481 -0.9747  1.4263
18725TIP3   OH277589   5.666   5.496  10.463 -0.8461 -0.2233 -0.2937
18725TIP3    H177590   5.696   5.503  10.372  0.0639  0.6979  0.0585
18725TIP3    H277591   5.696   5.410  10.492 -2.3722 -1.1370 -1.2727
18726TIP3   OH277592   0.785   3.986  15.454 -0.0803  0.0328  0.0330
18726TIP3    H177593   0.694   3.977  15.426  0.0164 -1.0432  0.0100
18726TIP3    H277594   0.786   3.952  15.543  0.2903  0.0797  0.0463
18727TIP3   OH277595   2.679   0.701   6.005  0.6285  0.7322  0.3306
18727TIP3    H177596   2.622   0.669   6.075 -0.2147 -0.0230 -0.6775
18727TIP3    H277597   2.676   0.796   6.014 -1.6944  0.7785 -0.3668
18728TIP3   OH277598   3.100   0.829   0.591  0.0502 -0.1398  0.4134
18728TIP3    H177599   3.147   0.785   0.520  0.6680 -1.2987  1.4954
18728TIP3    H277600   3.044   0.894   0.547  1.3121  0.0135 -1.0220
18729TIP3   OH277601   3.880   5.195  12.245 -0.0726  0.1984 -0.1026
18729TIP3    H177602   3.864   5.101  12.260  5.5691 -0.9142  1.0794
18729TIP3    H277603   3.890   5.232  12.333  1.2675  1.0850 -0.6057
18730TIP3   OH277604   0.433   0.447  11.978 -0.0588 -0.0946  0.4846
18730TIP3    H177605   0.527   0.428  11.987  0.0433  0.8612  2.0248
18730TIP3    H277606   0.389   0.375  12.023  0.0389  0.2905  1.2168
18731TIP3   OH277607   3.061   6.494  11.179 -0.2487  0.2607 -0.2180
18731TIP3    H177608   3.090   6.422  11.123  0.6794 -1.0521  1.8107
18731TIP3    H277609   3.035   6.452  11.261 -0.5809  2.1548  0.7202
18732TIP3   OH277610   6.663   4.943   0.850 -0.1339  0.6401  0.1782
18732TIP3    H177611   6.612   4.999   0.791 -0.4983 -0.2176 -0.3333
18732TIP3    H277612   6.609   4.865   0.863  1.9806 -1.4314 -2.2959
18733TIP3   OH277613   4.173   0.964   4.475 -0.6458  0.0385 -0.2727
18733TIP3    H177614   4.234   1.038   4.477  0.2637 -0.7074 -0.0296
18733TIP3    H277615   4.160   0.940   4.566  0.7249 -1.4197 -0.4173
18734TIP3   OH277616   4.366   6.691  10.861 -0.0667  0.0893 -0.4445
18734TIP3    H177617   4.275   6.663  10.851 -0.9149  2.7279 -1.0106
18734TIP3    H277618   4.412   6.649  10.789 -0.6076 -1.9223  0.3083
18735TIP3   OH277619   3.991   3.547  15.612  0.3977 -0.5221 -0.2419
18735TIP3    H177620   4.083   3.548  15.639  1.0373 -2.5961 -2.0415
18735TIP3    H277621   3.944   3.511  15.687  1.3685 -1.3128  0.0110
18736TIP3   OH277622   1.349   0.128   2.959 -0.1580  0.5001  0.2867
18736TIP3    H177623   1.288   0.153   2.890 -0.7126 -0.2159  0.4970
18736TIP3    H277624   1.433   0.115   2.913 -0.2476  1.1113 -0.0643
18737TIP3   OH277625   3.466   3.350   0.855 -0.8559  0.1299  0.3580
18737TIP3    H177626   3.487   3.383   0.943 -0.1873  0.6466  0.0154
18737TIP3    H277627   3.450   3.429   0.803  1.0772 -0.0217 -0.5595
18738TIP3   OH277628   0.578   3.789   5.314  0.2823 -0.3727  0.0366
18738TIP3    H177629   0.494   3.786   5.360  1.0189  2.9219  2.0079
18738TIP3    H277630   0.643   3.775   5.383  1.4036 -1.4474 -1.1941
18739TIP3   OH277631   5.902   5.790  13.432 -0.1905  0.2402  0.0942
18739TIP3    H177632   5.852   5.709  13.419 -0.4919  0.3742  0.3912
18739TIP3    H277633   5.921   5.822  13.344 -1.4473  0.6911 -0.0226
18740TIP3   OH277634   0.966   6.083  17.105  0.3934  0.0200  0.2538
18740TIP3    H177635   0.934   6.038  17.027  2.4700  1.5742 -1.6207
18740TIP3    H277636   1.060   6.070  17.103  0.8540  2.7324  0.6734
18741TIP3   OH277637   6.160   3.017   3.878  0.2174 -0.2979  0.2571
18741TIP3    H177638   6.148   3.086   3.814 -1.2438  0.9282  1.7775
18741TIP3    H277639   6.243   3.038   3.921 -0.0806  0.3915  0.5164
18742TIP3   OH277640   4.432   4.613   3.610  0.7135 -0.2200  0.0460
18742TIP3    H177641   4.463   4.538   3.661  0.8314 -1.7332 -2.1106
18742TIP3    H277642   4.338   4.596   3.598  0.9126 -0.5393 -1.2019
18743TIP3   OH277643   2.569   3.683   4.415  0.1687 -0.1486  0.3128
18743TIP3    H177644   2.572   3.601   4.465  0.1813 -0.6846 -0.5469
18743TIP3    H277645   2.485   3.722   4.439  0.6651  0.1710  1.6169
18744TIP3   OH277646   3.235   4.067  12.207  0.1250  0.1414  0.3493
18744TIP3    H177647   3.330   4.075  12.221  0.4052 -0.6174 -0.9471
18744TIP3    H277648   3.208   4.154  12.175  0.0003  0.9623  2.5377
18745TIP3   OH277649   2.042   0.277  14.650  0.2663  0.4855 -0.5351
18745TIP3    H177650   1.993   0.195  14.644 -0.7085  1.1217 -1.6071
18745TIP3    H277651   2.134   0.249  14.645 -0.0442 -0.5466 -0.8715
18746TIP3   OH277652   6.741   5.373   4.801 -0.0076 -0.7874 -0.0241
18746TIP3    H177653   6.832   5.402   4.790 -0.2882 -0.1179 -0.6243
18746TIP3    H277654   6.690   5.432   4.746 -0.8332 -1.0525  0.4407
18747TIP3   OH277655   5.873   2.889  12.779  0.3072  0.7927 -0.2360
18747TIP3    H177656   5.864   2.905  12.873  0.2503  0.6464 -0.2174
18747TIP3    H277657   5.783   2.882  12.747  0.3427 -0.8084 -0.0240
18748TIP3   OH277658   5.484   5.616   4.715 -1.0571 -0.3265 -0.3168
18748TIP3    H177659   5.402   5.648   4.678 -0.9787 -0.1676 -0.3513
18748TIP3    H277660   5.510   5.544   4.657 -1.6024 -0.9314  0.1700
18749TIP3   OH277661   2.928   3.717  11.235 -0.0455  0.4243  0.6090
18749TIP3    H177662   2.935   3.624  11.213 -2.7352  0.1529  0.5555
18749TIP3    H277663   3.017   3.751  11.225  0.6083 -1.6618 -1.5343
18750TIP3   OH277664   5.876   4.877   1.340 -0.2804  0.3431 -0.3283
18750TIP3    H177665   5.957   4.846   1.299 -1.1300  0.3854 -2.0929
18750TIP3    H277666   5.862   4.964   1.303 -1.0176  0.4349  0.1573
18751TIP3   OH277667   2.974   0.416  16.089 -0.0380 -1.0146  0.1004
18751TIP3    H177668   3.012   0.417  16.001 -0.7785 -2.9688 -0.2939
18751TIP3    H277669   3.047   0.432  16.148  0.4088  0.6907 -0.8660
18752TIP3   OH277670   3.739   5.996   2.524 -0.1235  0.3194 -0.7450
18752TIP3    H177671   3.733   5.994   2.428  1.0261 -1.4248 -0.8284
18752TIP3    H277672   3.715   5.907   2.551  0.6657  0.4627  0.5028
18753TIP3   OH277673   0.269   2.976  11.630 -0.1157 -0.6263  0.3167
18753TIP3    H177674   0.332   2.904  11.626 -1.0112 -1.3868 -1.0408
18753TIP3    H277675   0.184   2.934  11.613 -0.5295  0.8788 -1.7399
18754TIP3   OH277676   3.686   0.731   4.128 -0.0030 -0.3158 -0.0491
18754TIP3    H177677   3.736   0.675   4.187  1.4504  1.2700  0.3136
18754TIP3    H277678   3.748   0.755   4.059 -0.8847  0.0210 -0.7481
18755TIP3   OH277679   5.998   3.012  16.411 -0.1602 -0.2589  0.3923
18755TIP3    H177680   5.960   2.943  16.358 -0.2699  0.7871 -0.9514
18755TIP3    H277681   5.934   3.027  16.481 -0.5724 -0.8470  0.1503
18756TIP3   OH277682   5.330   0.954  11.926 -0.1944  0.0668  0.1029
18756TIP3    H177683   5.293   0.933  12.012 -0.8440  1.9679  0.3326
18756TIP3    H277684   5.409   1.005  11.946  0.0105 -0.0449 -0.4153
18757TIP3   OH277685   5.906   2.231  14.533 -0.0175  0.1787 -0.2017
18757TIP3    H177686   5.959   2.268  14.604  0.2306  1.9279 -1.2587
18757TIP3    H277687   5.968   2.221  14.460 -0.2060 -1.8486 -0.1471
18758TIP3   OH277688   3.376   0.993  12.683  0.0262 -0.1002  0.0031
18758TIP3    H177689   3.296   1.043  12.699  0.5511  0.8179 -0.1515
18758TIP3    H277690   3.446   1.047  12.719  0.5873 -0.8833  0.1198
18759TIP3   OH277691   3.604   1.885  10.933 -0.1431  0.5349 -0.5890
18759TIP3    H177692   3.535   1.901  10.867  0.8646  1.0867 -1.5489
18759TIP3    H277693   3.682   1.866  10.881  0.3374 -0.5762  0.4888
18760TIP3   OH277694   4.625   5.134   2.183  0.6323  0.2966  0.5506
18760TIP3    H177695   4.594   5.082   2.257 -0.7898 -0.1792 -0.3484
18760TIP3    H277696   4.679   5.074   2.132 -0.3361 -0.0904 -0.0466
18761TIP3   OH277697   2.442   4.843   0.259  0.0423 -0.0761  0.1433
18761TIP3    H177698   2.403   4.772   0.208  0.8195 -1.2544  1.1159
18761TIP3    H277699   2.536   4.833   0.246  0.2438 -0.2301  1.5306
18762TIP3   OH277700   6.375   4.024   1.902  0.0701 -0.0180 -0.1236
18762TIP3    H177701   6.318   3.981   1.965  0.2402 -0.4086 -0.2348
18762TIP3    H277702   6.365   3.973   1.822 -1.1794  1.2576 -0.8191
18763TIP3   OH277703   5.721   0.620  13.836 -0.1167  0.2842 -0.0920
18763TIP3    H177704   5.675   0.537  13.821 -1.2556  1.0521 -1.0409
18763TIP3    H277705   5.814   0.597  13.836 -0.3899 -0.8968 -1.0309
18764TIP3   OH277706   4.190   1.891   1.845  0.5072  0.1886 -0.3117
18764TIP3    H177707   4.274   1.869   1.885 -0.5304 -1.3963  1.1625
18764TIP3    H277708   4.161   1.809   1.806 -0.8752  0.3832  0.2572
18765TIP3   OH277709   3.051   3.643   2.263  0.6589 -0.2832  0.3600
18765TIP3    H177710   3.051   3.738   2.273 -0.2519 -0.1137 -0.9466
18765TIP3    H277711   3.026   3.610   2.350  0.7878  0.6669  0.7726
18766TIP3   OH277712   3.398   0.900  15.196  0.6042 -0.0019 -0.0209
18766TIP3    H177713   3.347   0.923  15.274  1.1453 -0.4386  0.4634
18766TIP3    H277714   3.338   0.918  15.123 -0.3998 -0.8758  0.5551
18767TIP3   OH277715   4.050   0.165   0.897 -0.2284 -0.0384 -0.2407
18767TIP3    H177716   4.024   0.249   0.860 -1.3083 -0.7389 -1.1277
18767TIP3    H277717   4.109   0.128   0.831  1.5882  0.7049  0.8927
18768TIP3   OH277718   4.059   1.268   1.607  0.6890  0.9072 -0.2288
18768TIP3    H177719   4.113   1.200   1.647 -1.8720 -0.7785  0.5717
18768TIP3    H277720   4.028   1.229   1.525 -1.6370  0.5886  0.7238
18769TIP3   OH277721   0.369   1.767  13.674  0.3227 -0.0119 -0.3200
18769TIP3    H177722   0.362   1.810  13.589  0.1441 -0.8702 -0.7525
18769TIP3    H277723   0.440   1.703  13.664 -1.3999 -1.9877 -0.7046
18770TIP3   OH277724   2.428   3.993  15.131  0.4830  0.5999  0.3984
18770TIP3    H177725   2.509   4.027  15.093  1.2219 -0.5214  0.8810
18770TIP3    H277726   2.433   4.017  15.224 -2.0192  4.6617 -0.3006
18771TIP3   OH277727   0.840   4.929  12.114 -0.0879 -0.4073 -0.2216
18771TIP3    H177728   0.922   4.943  12.066 -0.3819  0.1401 -0.5740
18771TIP3    H277729   0.772   4.962  12.055 -0.3748  1.3180  0.9930
18772TIP3   OH277730   3.940   3.935  16.003 -0.1697 -0.0227  0.0277
18772TIP3    H177731   4.012   3.883  15.967  0.2798  0.5982  0.0052
18772TIP3    H277732   3.896   3.971  15.926  0.9956  1.5784  0.0579
18773TIP3   OH277733   1.128   5.563   1.035  0.1353 -0.7996 -0.1036
18773TIP3    H177734   1.032   5.561   1.037  0.1292 -0.6897 -0.2688
18773TIP3    H277735   1.154   5.475   1.012  0.0857 -0.9433  0.3668
18774TIP3   OH277736   5.338   0.426  13.826 -0.2656 -0.7727  0.2787
18774TIP3    H177737   5.278   0.379  13.768 -0.1475  1.1064 -1.5148
18774TIP3    H277738   5.283   0.453  13.900 -1.3283 -0.2516 -0.6697
18775TIP3   OH277739   5.899   5.785   2.210  0.2925  0.1522  0.5729
18775TIP3    H177740   5.922   5.871   2.176  0.8015 -0.6981 -1.3543
18775TIP3    H277741   5.899   5.728   2.133 -2.3327 -1.1254  1.4032
18776TIP3   OH277742   3.703   3.571   3.990  0.0433 -0.0803 -0.3127
18776TIP3    H177743   3.685   3.479   4.010 -1.7192 -0.1021 -1.6835
18776TIP3    H277744   3.622   3.616   4.013 -0.1407  0.6625 -2.2366
18777TIP3   OH277745   2.910   4.977  11.828  0.0727  0.2625  0.1142
18777TIP3    H177746   2.969   5.018  11.766  0.2272  0.8110  0.6129
18777TIP3    H277747   2.959   4.903  11.863  0.2128  0.3167  0.0313
18778TIP3   OH277748   1.727   0.513  13.074 -0.0898  0.2072 -0.0899
18778TIP3    H177749   1.778   0.433  13.066  0.2302  0.1495  1.9057
18778TIP3    H277750   1.673   0.516  12.995  0.3831 -1.6180 -0.5192
18779TIP3   OH277751   4.896   1.927   2.973 -0.3522 -0.0443  0.1239
18779TIP3    H177752   4.819   1.928   2.916 -1.5568 -3.2289  1.4471
18779TIP3    H277753   4.968   1.898   2.918 -0.8962 -0.4343 -0.3905
18780TIP3   OH277754   2.525   4.276   6.059 -0.1644 -0.6783  0.0586
18780TIP3    H177755   2.461   4.345   6.079 -0.5470 -0.6317 -1.2288
18780TIP3    H277756   2.518   4.215   6.132 -0.6454  0.0680  0.6472
18781TIP3   OH277757   3.495   0.239  16.759 -0.3906  0.3368  0.2188
18781TIP3    H177758   3.478   0.315  16.814 -0.0131  1.4340 -1.1131
18781TIP3    H277759   3.581   0.208  16.787 -0.9832 -0.2560  1.4598
18782TIP3   OH277760   0.600   1.321  14.071  0.2754 -0.4709 -0.2952
18782TIP3    H177761   0.520   1.271  14.058  0.0406 -0.1558 -0.0580
18782TIP3    H277762   0.618   1.361  13.986 -0.2737  0.1304 -0.1298
18783TIP3   OH277763   6.249   0.197   1.900  0.4169 -0.0807  0.3302
18783TIP3    H177764   6.283   0.237   1.980 -0.5095  0.7227  0.3436
18783TIP3    H277765   6.154   0.197   1.912  0.3638 -2.2140  0.2783
18784TIP3   OH277766   0.084   0.194  13.922 -0.3170 -0.0344  0.0523
18784TIP3    H177767   0.026   0.229  13.855 -0.4805 -0.0658  0.1778
18784TIP3    H277768   0.040   0.211  14.004  0.0925  0.4010  0.1841
18785TIP3   OH277769   1.548   5.097  15.974  0.4185 -0.2866  0.4267
18785TIP3    H177770   1.600   5.019  15.954 -0.6688 -0.8483 -0.3540
18785TIP3    H277771   1.612   5.164  15.998  1.6144 -0.6306 -1.5410
18786TIP3   OH277772   3.217   1.857  12.166  0.1309  0.2892  0.4312
18786TIP3    H177773   3.272   1.780  12.150  0.1936  0.3178  0.5180
18786TIP3    H277774   3.150   1.851  12.097 -0.2172 -0.1741  0.8038
18787TIP3   OH277775   5.783   4.864   4.080 -0.2251 -0.3541 -0.0073
18787TIP3    H177776   5.796   4.778   4.040 -0.4185 -0.0787 -0.6665
18787TIP3    H277777   5.847   4.866   4.152 -0.0364 -0.9411 -0.1507
18788TIP3   OH277778   6.426   6.136  12.922 -0.8440 -0.1664 -0.5672
18788TIP3    H177779   6.391   6.067  12.979  2.2859 -1.5759 -0.1204
18788TIP3    H277780   6.494   6.092  12.871  0.3938  2.3405 -1.2333
18789TIP3   OH277781   6.117   4.206   2.172  0.1144  0.2763  0.2524
18789TIP3    H177782   6.059   4.246   2.236  0.7128  3.3813 -0.9779
18789TIP3    H277783   6.130   4.274   2.106  2.2323 -1.5951 -1.3979
18790TIP3   OH277784   4.581   0.356  16.201  0.1085 -0.2033  0.1739
18790TIP3    H177785   4.580   0.297  16.125  1.8169  0.1335 -0.1503
18790TIP3    H277786   4.599   0.442  16.164 -1.8054  0.4798  0.7102
18791TIP3   OH277787   6.286   2.483  15.963 -0.0083 -0.1731 -0.2916
18791TIP3    H177788   6.276   2.578  15.964  1.1041 -0.0398 -0.4429
18791TIP3    H277789   6.353   2.465  16.029  1.5511 -0.5982 -1.9079
18792TIP3   OH277790   5.374   2.463   3.719 -1.2861 -0.3214 -0.2084
18792TIP3    H177791   5.308   2.482   3.785  0.4812  0.1503  1.5434
18792TIP3    H277792   5.433   2.400   3.761 -0.2867 -0.2884 -1.4688
18793TIP3   OH277793   2.342   0.259  10.684  0.3955  0.1688  0.0269
18793TIP3    H177794   2.325   0.169  10.655  1.5201 -0.3575  0.9104
18793TIP3    H277795   2.300   0.265  10.769  2.4040 -0.3713  1.1231
18794TIP3   OH277796   3.080   3.067   0.337  0.1945 -0.1075 -0.5386
18794TIP3    H177797   3.069   3.157   0.368  1.0527 -0.6091  1.3835
18794TIP3    H277798   2.993   3.040   0.309 -0.7390  0.3288  1.7506
18795TIP3   OH277799   2.485   6.033  12.618 -0.1659 -0.5111 -0.1901
18795TIP3    H177800   2.511   5.956  12.568 -1.0460 -0.9029 -0.0675
18795TIP3    H277801   2.451   5.998  12.701  0.2606  0.0640  0.2360
18796TIP3   OH277802   3.970   6.064  12.549  0.1146  0.3567  0.2541
18796TIP3    H177803   3.945   6.052  12.641 -0.3695 -0.6062  0.0014
18796TIP3    H277804   3.978   5.976  12.514 -1.2266  0.7071 -1.0416
18797TIP3   OH277805   1.889   4.289  15.472  0.1835  0.5701 -0.7825
18797TIP3    H177806   1.809   4.237  15.462 -0.3349  1.3502 -0.7649
18797TIP3    H277807   1.930   4.256  15.552  0.2145 -0.2621 -1.1300
18798TIP3   OH277808   5.615   3.625   4.422  0.1019  0.2125  0.2615
18798TIP3    H177809   5.595   3.653   4.333  0.2048 -3.0387 -0.9340
18798TIP3    H277810   5.532   3.592   4.456  0.3708  0.0671  0.7852
18799TIP3   OH277811   5.119   6.244  11.697 -0.3505 -0.1019 -0.4408
18799TIP3    H177812   5.157   6.157  11.707 -0.3168  0.0104  0.5599
18799TIP3    H277813   5.139   6.289  11.780 -2.8971 -0.1530  0.2909
18800TIP3   OH277814   0.298   4.730   4.691 -0.9651 -0.3333 -0.4783
18800TIP3    H177815   0.286   4.639   4.664  0.9988 -0.6663 -0.4179
18800TIP3    H277816   0.392   4.746   4.677 -1.0992  1.3910  0.3860
18801TIP3   OH277817   5.630   1.980  14.116 -0.4372 -0.7162  0.4021
18801TIP3    H177818   5.666   2.052  14.169  3.6742 -0.7171 -1.9437
18801TIP3    H277819   5.588   2.023  14.042  0.1757 -0.7035  0.0574
18802TIP3   OH277820   5.339   4.438   4.396 -0.2958  0.0630  0.1388
18802TIP3    H177821   5.381   4.492   4.329  0.6308 -0.6296  0.1507
18802TIP3    H277822   5.323   4.498   4.469 -0.5365  0.6269 -0.3617
18803TIP3   OH277823   1.122   5.508  12.984  1.0570 -0.2701  0.8543
18803TIP3    H177824   1.081   5.424  12.963 -0.0891  0.3227  0.6626
18803TIP3    H277825   1.121   5.556  12.902 -2.4252  1.6390  1.8383
18804TIP3   OH277826   0.835   2.280   4.671  0.5648 -0.3671 -0.1673
18804TIP3    H177827   0.819   2.191   4.702 -1.1919  0.0943  0.3416
18804TIP3    H277828   0.861   2.329   4.749 -0.7658  0.0767  0.0184
18805TIP3   OH277829   1.842   2.292   5.570 -0.0931 -0.0198 -0.0214
18805TIP3    H177830   1.844   2.297   5.475  0.6215 -0.7029 -0.0505
18805TIP3    H277831   1.841   2.383   5.599 -2.4732  0.2344 -0.6919
18806TIP3   OH277832   3.403   3.060  10.912 -0.4370 -0.3064  0.5956
18806TIP3    H177833   3.356   3.111  10.845  0.5378  0.0586  0.1685
18806TIP3    H277834   3.437   3.126  10.972 -1.1235 -0.6213  1.3538
18807TIP3   OH277835   5.095   5.807  10.668  0.1154  0.5641  0.0202
18807TIP3    H177836   5.155   5.761  10.609 -0.5373  1.2347 -1.2013
18807TIP3    H277837   5.141   5.889  10.689 -0.8681  1.7321 -2.0350
18808TIP3   OH277838   6.620   3.194  16.032 -0.3005  0.0956  0.2561
18808TIP3    H177839   6.604   3.101  16.013 -1.3129  0.5396 -1.3335
18808TIP3    H277840   6.571   3.212  16.112  0.6609 -0.9314  1.1015
18809TIP3   OH277841   0.652   4.554   4.109  0.2510  0.1963  0.2230
18809TIP3    H177842   0.631   4.623   4.172  0.5521 -0.5505  1.1744
18809TIP3    H277843   0.597   4.481   4.135  1.1117 -0.4574  0.2523
18810TIP3   OH277844   2.464   5.633  11.518 -0.5042  0.2856 -0.3084
18810TIP3    H177845   2.495   5.571  11.584 -1.9806 -0.6073 -0.3885
18810TIP3    H277846   2.515   5.712  11.532 -0.8427  0.1569  1.9842
18811TIP3   OH277847   3.370   0.203  14.884  0.6100 -0.1475 -0.1577
18811TIP3    H177848   3.368   0.295  14.912 -1.3844 -0.1021 -0.2836
18811TIP3    H277849   3.462   0.178  14.889  1.0382  1.4948  1.0785
18812TIP3   OH277850   2.723   4.068  16.048 -0.0245 -0.3104 -0.1043
18812TIP3    H177851   2.767   4.151  16.030  1.4939 -0.9828  0.3250
18812TIP3    H277852   2.765   4.006  15.988  1.7462 -1.5710  2.2549
18813TIP3   OH277853   2.061   0.829   0.198 -0.3199 -0.1029  0.2747
18813TIP3    H177854   2.051   0.734   0.192  0.5461 -0.2287  0.7307
18813TIP3    H277855   2.034   0.851   0.287  1.4225 -0.1988  0.8605
18814TIP3   OH277856   1.812   0.197   2.386 -0.4431  0.0904  0.0908
18814TIP3    H177857   1.866   0.209   2.308  0.6381 -2.5927  0.3003
18814TIP3    H277858   1.742   0.261   2.377  0.6045  1.0385 -2.1914
18815TIP3   OH277859   5.764   0.066  12.827  0.4999  0.0621 -0.3382
18815TIP3    H177860   5.848   0.100  12.795 -0.1417  1.4723 -0.5750
18815TIP3    H277861   5.783   0.034  12.915  1.0367  1.5242  0.1058
18816TIP3   OH277862   5.804   5.173  15.838 -0.2960 -0.2010  0.0391
18816TIP3    H177863   5.815   5.244  15.902 -0.8237  0.4657 -0.5861
18816TIP3    H277864   5.871   5.109  15.861 -1.3040 -0.6046  2.1069
18817TIP3   OH277865   2.783   1.945   5.907  0.1713 -0.6373  0.0656
18817TIP3    H177866   2.747   1.898   5.982  1.1841 -0.1270  0.8888
18817TIP3    H277867   2.852   1.887   5.873  0.7076 -0.2222  0.4372
18818TIP3   OH277868   3.515   3.995   3.454  0.4513 -0.7384 -0.2365
18818TIP3    H177869   3.564   3.927   3.499  0.4124 -1.0076 -0.6024
18818TIP3    H277870   3.568   4.074   3.465 -0.8383 -0.1453  2.6677
18819TIP3   OH277871   0.510   1.655   5.216 -0.0243 -0.0589 -0.3712
18819TIP3    H177872   0.596   1.644   5.177  0.5596 -2.0379  1.3267
18819TIP3    H277873   0.519   1.731   5.274  1.7920 -2.3380  2.6192
18820TIP3   OH277874   0.864   1.305  14.160  0.5360  0.7681 -0.3357
18820TIP3    H177875   0.785   1.349  14.130 -0.0865  0.4555  0.7876
18820TIP3    H277876   0.874   1.230  14.100  0.7703  1.5732 -1.3260
18821TIP3   OH277877   3.886   0.265   3.694 -0.0893  0.2920  0.0337
18821TIP3    H177878   3.824   0.308   3.752  0.9024  0.9222  0.6357
18821TIP3    H277879   3.840   0.260   3.610 -1.2946 -0.0758  0.6890
18822TIP3   OH277880   2.206   4.746  14.644  0.1974  0.2267  0.4241
18822TIP3    H177881   2.120   4.778  14.614  0.7156 -0.1065 -1.5512
18822TIP3    H277882   2.235   4.813  14.706 -0.9852  0.9425  0.2509
18823TIP3   OH277883   5.340   3.820  14.374  0.3806 -0.2137  0.6938
18823TIP3    H177884   5.359   3.782  14.460  1.1112  0.6036  0.9107
18823TIP3    H277885   5.287   3.898  14.394 -0.2416 -0.5281  0.3250
18824TIP3   OH277886   3.691   1.347   0.175 -0.2601 -0.7475  0.3261
18824TIP3    H177887   3.719   1.438   0.167 -0.5993 -0.6832 -0.2385
18824TIP3    H277888   3.762   1.296   0.138 -0.6501 -0.6175 -0.6340
18825TIP3   OH277889   2.361   1.629  11.807  0.4782 -0.0666 -0.2359
18825TIP3    H177890   2.306   1.570  11.859  0.5835 -1.0240 -1.1641
18825TIP3    H277891   2.443   1.580  11.795  0.9079  0.6530 -0.2682
18826TIP3   OH277892   5.210   0.290  14.199 -0.3166  0.0758 -0.2482
18826TIP3    H177893   5.221   0.198  14.176  1.2940 -0.3577  1.9076
18826TIP3    H277894   5.298   0.327  14.192 -1.1362  1.8662 -2.3850
18827TIP3   OH277895   1.743   6.534   2.490 -0.0207  0.4056 -0.0506
18827TIP3    H177896   1.801   6.516   2.564 -0.9777 -1.1326  0.3824
18827TIP3    H277897   1.722   6.448   2.455 -0.3298  1.0675 -1.5497
18828TIP3   OH277898   4.737   0.893   5.317  0.2708 -0.0928 -0.1781
18828TIP3    H177899   4.665   0.867   5.259  0.5898 -3.9934  0.8552
18828TIP3    H277900   4.814   0.895   5.261 -0.2114  1.6645 -0.8304
18829TIP3   OH277901   5.966   4.728  14.624  0.2711  0.4515  0.4220
18829TIP3    H177902   5.932   4.683  14.701 -0.4949  2.8745  1.5955
18829TIP3    H277903   5.973   4.660  14.557 -0.4000 -1.4464  2.1933
18830TIP3   OH277904   6.561   1.638  16.940 -0.1229  0.5523  0.3201
18830TIP3    H177905   6.554   1.620  17.034  1.7448 -0.1207  0.3722
18830TIP3    H277906   6.542   1.731  16.932  0.9236  0.9114  1.5707
18831TIP3   OH277907   0.891   6.378   5.480  0.2027 -0.1123  0.0914
18831TIP3    H177908   0.973   6.397   5.434 -0.2214 -0.2356 -0.7250
18831TIP3    H277909   0.868   6.289   5.453  0.7190 -0.8003  1.7290
18832TIP3   OH277910   0.290   5.848   1.877  0.3489 -0.1683 -0.3648
18832TIP3    H177911   0.272   5.911   1.808  1.6518  0.5103 -0.1101
18832TIP3    H277912   0.307   5.766   1.831  0.1226  0.0107 -0.7748
18833TIP3   OH277913   5.778   6.314   3.047  0.4446  0.1943  0.0803
18833TIP3    H177914   5.725   6.391   3.029 -0.7303 -0.8086 -0.8898
18833TIP3    H277915   5.857   6.326   2.994 -0.8208 -0.3980 -2.0452
18834TIP3   OH277916   2.608   5.127   1.266  0.4296 -0.2117 -0.6462
18834TIP3    H177917   2.542   5.196   1.258 -0.0100 -0.1259  2.6222
18834TIP3    H277918   2.561   5.047   1.243  0.1457  0.2006 -1.5708
18835TIP3   OH277919   4.568   6.452  15.319  0.2301 -0.0892  0.3392
18835TIP3    H177920   4.590   6.376  15.265 -3.4786 -0.6353 -0.6927
18835TIP3    H277921   4.560   6.525  15.257  0.7369  0.4458  0.8864
18836TIP3   OH277922   2.311   1.138  11.427 -0.4527  0.4203  0.4516
18836TIP3    H177923   2.243   1.188  11.473 -0.9789  1.8067 -1.6626
18836TIP3    H277924   2.352   1.202  11.370  1.1372 -0.9099  0.0348
18837TIP3   OH277925   3.802   4.103   0.907  0.4109  0.3959  0.5296
18837TIP3    H177926   3.847   4.045   0.844 -1.8933 -1.3332  0.3276
18837TIP3    H277927   3.723   4.131   0.861 -0.9047 -0.2143  2.2825
18838TIP3   OH277928   1.531   5.272   4.754  0.0669  0.2231  0.1979
18838TIP3    H177929   1.474   5.203   4.788  1.2652 -1.4007 -0.9411
18838TIP3    H277930   1.616   5.230   4.742  1.5433  2.5355  1.7524
18839TIP3   OH277931   4.356   6.155   0.426  0.1340  0.2464  0.1756
18839TIP3    H177932   4.422   6.139   0.359 -1.4510 -0.7994 -1.2254
18839TIP3    H277933   4.376   6.243   0.459  0.2494  1.3768 -2.5909
18840TIP3   OH277934   5.528   1.810  17.072  0.0994 -0.3175  0.2216
18840TIP3    H177935   5.463   1.866  17.115 -0.6802  0.7665 -2.1970
18840TIP3    H277936   5.479   1.764  17.005  1.6780  0.0005 -1.2000
18841TIP3   OH277937   0.641   4.991   3.484  0.0095 -0.5084 -0.2596
18841TIP3    H177938   0.639   4.918   3.422  0.8376 -1.4923  0.8297
18841TIP3    H277939   0.653   4.950   3.570 -1.4558  0.7973  0.6236
18842TIP3   OH277940   4.925   4.186  13.894  0.1686 -0.2038  0.2558
18842TIP3    H177941   5.011   4.223  13.876  0.4702 -1.2361 -0.4793
18842TIP3    H277942   4.942   4.105  13.941 -0.3702 -0.6609 -0.3142
18843TIP3   OH277943   2.732   3.676  11.848  0.0423 -0.1296 -0.6372
18843TIP3    H177944   2.791   3.628  11.790  0.8205  0.0958 -0.0463
18843TIP3    H277945   2.704   3.611  11.913  0.6178  0.0482 -0.1974
18844TIP3   OH277946   6.596   4.295   3.786  0.1259 -0.4854  0.3141
18844TIP3    H177947   6.634   4.350   3.855 -0.5635 -0.0884  0.3802
18844TIP3    H277948   6.507   4.276   3.817  0.3596 -1.6718  0.3125
18845TIP3   OH277949   5.221   2.997   4.615 -0.2056  1.0225 -0.3239
18845TIP3    H177950   5.294   3.008   4.676  1.0184  2.1241 -1.8850
18845TIP3    H277951   5.263   2.974   4.532 -1.8477 -1.0899 -0.6514
18846TIP3   OH277952   5.207   4.490   2.056 -0.0052  0.2422 -0.2476
18846TIP3    H177953   5.273   4.503   2.124  0.3245  2.4691 -0.9134
18846TIP3    H277954   5.257   4.484   1.975 -0.5525  0.3149 -0.5929
18847TIP3   OH277955   1.871   6.625  16.027 -0.3703  0.1258 -0.0839
18847TIP3    H177956   1.906   6.623  15.938  0.1864 -0.4490  0.1408
18847TIP3    H277957   1.811   6.550  16.030 -1.4189  0.9318 -0.3748
18848TIP3   OH277958   3.674   5.306  10.614 -0.0448  0.3552 -0.2640
18848TIP3    H177959   3.751   5.258  10.583 -1.3785 -1.8536 -0.3744
18848TIP3    H277960   3.697   5.336  10.702  0.9150 -0.3324 -0.2757
18849TIP3   OH277961   0.033   6.104   3.495 -0.3529 -0.5105 -0.6239
18849TIP3    H177962   0.107   6.160   3.472 -0.0970 -1.3267 -1.9046
18849TIP3    H277963  -0.034   6.125   3.429 -2.3940  2.1510  2.0031
18850TIP3   OH277964   6.336   2.039   3.577  0.7596 -0.0439  0.1661
18850TIP3    H177965   6.415   2.090   3.563  1.3372 -0.6478  1.0500
18850TIP3    H277966   6.361   1.950   3.551  1.1027 -0.6848  2.4386
18851TIP3   OH277967   1.602   1.319   2.233 -0.5234  0.4488 -0.6152
18851TIP3    H177968   1.562   1.260   2.297  2.5284 -1.0544  0.0934
18851TIP3    H277969   1.536   1.387   2.219 -2.7346 -1.1091  1.3772
18852TIP3   OH277970   5.711   1.227  13.091  0.3613  0.5213 -0.0442
18852TIP3    H177971   5.708   1.315  13.054 -0.8933  1.0735  1.2452
18852TIP3    H277972   5.636   1.182  13.053  1.0013 -0.0037 -0.7017
18853TIP3   OH277973   0.019   5.342   1.122 -0.3238  0.1199  0.3991
18853TIP3    H177974   0.104   5.384   1.111  0.8292 -1.9824  0.7423
18853TIP3    H277975  -0.024   5.353   1.038 -0.4696  2.6824  0.7331
18854TIP3   OH277976   4.491   0.060  15.695  0.9255  0.5061 -0.2068
18854TIP3    H177977   4.580   0.093  15.680  0.6967  0.6939 -1.2892
18854TIP3    H277978   4.502  -0.033  15.712  1.2506  0.2423 -1.6946
18855TIP3   OH277979   2.180   5.086  13.162 -0.1714  0.0457  0.0177
18855TIP3    H177980   2.197   5.032  13.239  0.1417 -0.9583 -0.7375
18855TIP3    H277981   2.234   5.164  13.176 -1.1463  0.5109  1.4400
18856TIP3   OH277982   5.760   1.945  16.489  0.2942 -0.0053  0.1068
18856TIP3    H177983   5.842   1.989  16.465  0.3905 -0.5560 -0.5970
18856TIP3    H277984   5.780   1.852  16.481 -0.1477 -0.1648  0.7940
18857TIP3   OH277985   3.808   4.089  16.815  0.0285  0.1955  0.0468
18857TIP3    H177986   3.832   4.050  16.731 -0.3349  1.5760 -0.7336
18857TIP3    H277987   3.735   4.036  16.846 -0.7692  0.5274 -1.2134
18858TIP3   OH277988   0.756   1.977   4.719 -0.0490 -0.5105 -0.1518
18858TIP3    H177989   0.810   1.899   4.719 -1.1018 -1.3251 -2.0454
18858TIP3    H277990   0.681   1.954   4.663 -0.3314  1.8643 -0.8670
18859TIP3   OH277991   5.620   3.549  14.936 -0.1957 -0.1685  0.3941
18859TIP3    H177992   5.668   3.469  14.913 -2.2804 -1.2419 -0.5320
18859TIP3    H277993   5.670   3.620  14.895  1.8999 -0.8978  1.5364
18860TIP3   OH277994   4.355   1.236   1.103  0.3742 -0.1452 -0.6164
18860TIP3    H177995   4.302   1.314   1.118 -1.6025 -0.8078 -3.3939
18860TIP3    H277996   4.374   1.203   1.191 -2.5775  1.0033  0.5890
18861TIP3   OH277997   6.642   2.911  14.979 -0.4880  0.1291 -0.2711
18861TIP3    H177998   6.613   2.820  14.977 -0.8101  0.2402 -0.7601
18861TIP3    H277999   6.596   2.949  15.054  1.3606 -0.6654  1.3347
18862TIP3   OH278000   6.420   2.800  15.309 -0.9955 -0.1201 -0.0772
18862TIP3    H178001   6.447   2.881  15.267  0.1590  0.5848  1.8871
18862TIP3    H278002   6.353   2.826  15.371 -0.6689 -0.6715  0.5254
18863TIP3   OH278003   2.959   3.875  17.137 -0.2936  0.4393  0.0497
18863TIP3    H178004   2.924   3.901  17.052 -1.7889 -1.8067 -0.0787
18863TIP3    H278005   3.031   3.816  17.116 -0.4738  0.1164  0.3353
18864TIP3   OH278006   2.471   5.841  11.217  0.8563  0.3219  0.4009
18864TIP3    H178007   2.430   5.758  11.243 -0.0073  0.5993 -0.0702
18864TIP3    H278008   2.515   5.820  11.135  0.5195  0.3722  0.2102
18865TIP3   OH278009   0.144   2.912  16.984  0.2490  0.0056 -0.2893
18865TIP3    H178010   0.191   2.860  16.920  0.1957 -1.2062  0.6221
18865TIP3    H278011   0.161   2.869  17.068  0.0112  1.3244  0.4706
18866TIP3   OH278012   2.388   5.617  10.330  0.1847 -0.0585 -0.0098
18866TIP3    H178013   2.449   5.669  10.277  0.8934 -0.6631  0.1930
18866TIP3    H278014   2.443   5.552  10.373 -0.9076 -2.5869 -2.1248
18867TIP3   OH278015   4.648   5.610   5.053  0.6660  0.2364  0.4771
18867TIP3    H178016   4.599   5.662   5.116 -0.9319 -1.5244  0.7617
18867TIP3    H278017   4.708   5.558   5.106  0.4162 -0.1178  0.4118
18868TIP3   OH278018   3.536   2.100  16.965  0.3800  0.7224 -0.3563
18868TIP3    H178019   3.494   2.021  16.998  1.5975 -0.7836 -2.1721
18868TIP3    H278020   3.480   2.172  16.994 -1.0387 -0.8366  0.9331
18869TIP3   OH278021   0.569   2.894  16.520 -0.0827 -0.2006 -0.5256
18869TIP3    H178022   0.583   2.900  16.426  0.8611  0.3449 -0.3669
18869TIP3    H278023   0.657   2.883  16.556 -0.4777 -0.8778  0.2621
18870TIP3   OH278024   5.864   2.337   0.225 -0.5466 -0.4608 -0.5327
18870TIP3    H178025   5.926   2.276   0.185 -0.6256 -0.2820 -0.9322
18870TIP3    H278026   5.919   2.398   0.274 -0.4524 -0.7131 -0.3257
18871TIP3   OH278027   5.117   0.144   1.620 -0.1471  0.0475  0.2341
18871TIP3    H178028   5.192   0.091   1.594 -0.3557 -0.3233  0.3911
18871TIP3    H278029   5.044   0.083   1.625 -0.6528  0.5366 -0.7151
18872TIP3   OH278030   1.619   0.768  11.311  0.0613 -0.2471  0.2529
18872TIP3    H178031   1.669   0.766  11.392 -0.4551  0.8887  0.6145
18872TIP3    H278032   1.540   0.817  11.332 -0.0977  0.0466 -0.9293
18873TIP3   OH278033   6.018   3.428   0.773 -0.2530  0.6026  0.2120
18873TIP3    H178034   5.926   3.452   0.776 -0.0912  1.1322  1.2269
18873TIP3    H278035   6.046   3.425   0.864  0.8204  0.7791 -0.0906
18874TIP3   OH278036   2.867   3.958   3.334 -0.1299  0.2484  0.3747
18874TIP3    H178037   2.926   4.028   3.363  1.1852 -0.1972 -1.0419
18874TIP3    H278038   2.782   4.000   3.325  0.3197  1.3225  0.9378
18875TIP3   OH278039   3.395   1.820   5.223 -0.3897  0.0849 -0.0691
18875TIP3    H178040   3.412   1.751   5.287 -1.9039  0.2850  0.5856
18875TIP3    H278041   3.348   1.776   5.152 -0.8097  0.3136  0.0644
18876TIP3   OH278042   2.836   0.687   0.737  0.9935  0.1509  0.0103
18876TIP3    H178043   2.869   0.661   0.823  2.5407 -0.6637 -0.8066
18876TIP3    H278044   2.899   0.751   0.705  2.1801 -1.7868 -1.7863
18877TIP3   OH278045   6.337   2.313   4.222  0.0349  0.0884  0.1508
18877TIP3    H178046   6.411   2.310   4.161 -1.0832  0.7942 -1.3005
18877TIP3    H278047   6.281   2.241   4.196 -1.5002  1.6557 -1.1260
18878TIP3   OH278048   4.018   4.141  11.285  0.0239 -0.3611 -0.4700
18878TIP3    H178049   3.956   4.213  11.301 -1.9926 -1.8988 -1.0521
18878TIP3    H278050   4.080   4.177  11.222 -0.8425  0.9191 -0.6440
18879TIP3   OH278051   4.307   0.115   2.526  0.5561  0.7441  0.4103
18879TIP3    H178052   4.305   0.025   2.556 -0.5683  0.8819  0.7964
18879TIP3    H278053   4.355   0.112   2.444 -0.4559 -0.4029 -0.1734
18880TIP3   OH278054   0.523   5.736   3.804  0.5391 -0.3053 -0.1979
18880TIP3    H178055   0.502   5.677   3.732 -0.9595 -0.2823  0.1761
18880TIP3    H278056   0.442   5.785   3.820  1.8675  2.2698 -0.8309
18881TIP3   OH278057   3.381   0.836  12.399  0.6893  0.0201  0.2048
18881TIP3    H178058   3.372   0.931  12.409 -0.9663 -0.2230  1.4031
18881TIP3    H278059   3.308   0.811  12.343  1.6491 -0.4676 -0.8741
18882TIP3   OH278060   0.053   6.147  11.287 -0.9111  0.1569  0.5385
18882TIP3    H178061   0.103   6.065  11.292 -0.0457  0.5711 -0.8598
18882TIP3    H278062   0.035   6.158  11.194 -2.6144  0.6423  0.8994
18883TIP3   OH278063   0.895   0.757   5.062  0.6142  0.0687  0.1379
18883TIP3    H178064   0.839   0.828   5.030  0.9564  0.8356  1.1899
18883TIP3    H278065   0.890   0.690   4.993  2.3461  2.1343 -2.1859
18884TIP3   OH278066   4.675   4.892  12.710  0.2411 -0.1783 -0.0188
18884TIP3    H178067   4.686   4.824  12.644 -0.3479 -1.2107  0.9055
18884TIP3    H278068   4.580   4.905  12.715  0.1076 -1.5220  1.9584
18885TIP3   OH278069   1.202   0.370  14.974  0.6954  0.7135 -0.1243
18885TIP3    H178070   1.148   0.415  15.039  3.9585  1.5753  2.2164
18885TIP3    H278071   1.189   0.277  14.993  0.1440  0.8975  0.4578
18886TIP3   OH278072   0.056   4.700   4.344  0.1884  0.3284  0.8918
18886TIP3    H178073  -0.037   4.706   4.320  0.0055 -0.2715  1.4055
18886TIP3    H278074   0.055   4.693   4.439  0.7448  0.0652  0.8800
18887TIP3   OH278075   3.084   5.204  12.080 -0.6438  0.5469 -0.4771
18887TIP3    H178076   3.012   5.144  12.101 -0.7306 -0.1548 -2.5969
18887TIP3    H278077   3.041   5.279  12.040 -0.2512  0.1590 -1.6792
18888TIP3   OH278078   1.028   4.879  15.282  0.7831 -0.2360  0.5073
18888TIP3    H178079   1.021   4.961  15.330  1.1569  0.4717 -0.5982
18888TIP3    H278080   0.961   4.885  15.213  2.3255  0.1828 -1.0168
18889TIP3   OH278081   5.283   3.514   6.189  0.2469  0.1443  0.0768
18889TIP3    H178082   5.329   3.474   6.116 -0.6039 -0.5802 -0.0757
18889TIP3    H278083   5.245   3.441   6.238  0.1518  0.6583  0.8027
18890TIP3   OH278084   1.053   1.398   2.718  0.5527 -0.8563 -0.0305
18890TIP3    H178085   1.123   1.407   2.654  0.8542  2.4434  0.6071
18890TIP3    H278086   0.984   1.350   2.672  1.3135  0.1721 -2.3608
18891TIP3   OH278087   0.789   6.346  15.601 -0.1754 -0.0903  0.1146
18891TIP3    H178088   0.816   6.413  15.663  0.2700 -0.7059  0.5978
18891TIP3    H278089   0.863   6.338  15.540 -0.9157  1.0564 -0.9811
18892TIP3   OH278090   6.161   3.166   3.651  0.3659 -0.6509 -0.2523
18892TIP3    H178091   6.092   3.220   3.689  1.1274  0.6296 -0.6348
18892TIP3    H278092   6.115   3.091   3.613 -0.7882  0.0895 -0.3452
18893TIP3   OH278093   6.694   3.826  13.585  0.4913  0.5106  0.4536
18893TIP3    H178094   6.627   3.766  13.618 -0.4862 -0.8457 -3.4957
18893TIP3    H278095   6.776   3.790  13.617 -0.3294 -0.7723  1.2113
18894TIP3   OH278096   0.368   4.127   4.182 -0.7044  0.1592  0.0920
18894TIP3    H178097   0.350   4.034   4.194 -0.8824 -0.0051 -1.3054
18894TIP3    H278098   0.342   4.145   4.091  1.3172  1.0877 -0.3550
18895TIP3   OH278099   3.989   5.941   4.019 -0.0726 -0.4996  0.2927
18895TIP3    H178100   4.045   5.868   3.995  0.4185 -0.9204  2.4885
18895TIP3    H278101   4.000   5.950   4.114  0.2773  2.7423  0.0770
18896TIP3   OH278102   6.198   3.066   0.755 -0.1202 -0.3199 -0.2827
18896TIP3    H178103   6.123   3.021   0.794 -1.9443  0.9913 -2.1013
18896TIP3    H278104   6.214   3.141   0.812  0.4588 -1.1199  0.6341
18897TIP3   OH278105   0.874   4.778  11.372  0.1496 -0.2084  0.2583
18897TIP3    H178106   0.809   4.750  11.308  0.5736 -0.4294 -0.0777
18897TIP3    H278107   0.901   4.865  11.343 -1.0603  0.5275  1.2213
18898TIP3   OH278108   3.369   2.613  10.661  0.1526  0.4116 -0.6849
18898TIP3    H178109   3.458   2.620  10.696  0.2899 -0.4927 -0.8278
18898TIP3    H278110   3.350   2.519  10.662 -0.8885  0.6077 -0.4541
18899TIP3   OH278111   2.431   0.152  16.893 -0.1222  0.5021 -0.3663
18899TIP3    H178112   2.517   0.111  16.897 -0.4779 -0.2606 -0.4469
18899TIP3    H278113   2.447   0.244  16.913  1.3630  1.3657 -4.5478
18900TIP3   OH278114   4.473   1.171  16.167 -0.2626  0.1852  0.3321
18900TIP3    H178115   4.462   1.246  16.109 -1.2167 -0.1518  0.0487
18900TIP3    H278116   4.527   1.110  16.117  1.7592  1.2343  1.1225
18901TIP3   OH278117   1.365   5.329   3.278  0.1215  0.1831 -0.3767
18901TIP3    H178118   1.282   5.324   3.326  0.5002 -1.2197  0.1917
18901TIP3    H278119   1.432   5.332   3.346  0.5442  2.2625 -0.8225
18902TIP3   OH278120   5.114   0.018   3.310  0.0724 -0.2862  0.0376
18902TIP3    H178121   5.176  -0.048   3.278 -0.3974 -0.0395 -1.4824
18902TIP3    H278122   5.028  -0.018   3.289 -0.2012  0.6280 -0.4825
18903TIP3   OH278123   2.108   5.822   1.733 -0.2145 -0.0696  0.2399
18903TIP3    H178124   2.181   5.867   1.690  0.2606  1.1764  2.2253
18903TIP3    H278125   2.127   5.828   1.826 -1.0911 -2.8833  0.7003
18904TIP3   OH278126   0.152   3.309  12.152 -0.5920  0.5833 -0.3525
18904TIP3    H178127   0.228   3.276  12.103  0.0927 -0.2215  1.1677
18904TIP3    H278128   0.178   3.397  12.179  0.1392  0.0359  0.7956
18905TIP3   OH278129   0.909   5.792   0.908  0.2310 -0.6895 -0.2570
18905TIP3    H178130   0.956   5.873   0.893 -1.5324  0.8530  1.9079
18905TIP3    H278131   0.870   5.770   0.824  1.1377  0.4250 -0.9869
18906TIP3   OH278132   2.985   1.461  17.179  0.3601 -0.6426  0.2129
18906TIP3    H178133   3.069   1.501  17.201  0.7468 -1.6938  0.7296
18906TIP3    H278134   2.960   1.412  17.257  0.1563 -1.8056 -0.5481
18907TIP3   OH278135   4.645   1.622   2.744  0.1416  0.1105 -0.5144
18907TIP3    H178136   4.619   1.644   2.834 -1.4327  2.5626 -1.4585
18907TIP3    H278137   4.607   1.536   2.729  1.8507 -1.1173  1.6524
18908TIP3   OH278138   6.206   2.007  15.726 -0.3729 -0.3079  0.2221
18908TIP3    H178139   6.222   1.921  15.764 -0.3369 -1.0639 -1.4599
18908TIP3    H278140   6.161   1.990  15.643  0.7084  1.2091 -0.7261
18909TIP3   OH278141   6.144   2.677  11.411 -0.3800 -0.5774 -0.6854
18909TIP3    H178142   6.087   2.743  11.371 -0.0065 -0.2460 -0.6781
18909TIP3    H278143   6.147   2.606  11.346 -1.2168 -0.8316 -0.4577
18910TIP3   OH278144   2.627   6.139  14.909  0.8595 -0.4784 -0.6551
18910TIP3    H178145   2.703   6.136  14.851  2.4917 -1.1417  1.4046
18910TIP3    H278146   2.662   6.165  14.994 -0.8366 -2.6730  0.8503
18911TIP3   OH278147   1.855   2.978  12.041  0.3554  0.1920  0.3549
18911TIP3    H178148   1.889   2.988  11.952 -2.1910  0.7419 -0.6405
18911TIP3    H278149   1.832   2.885  12.048 -1.3591  0.5377 -0.3515
18912TIP3   OH278150   1.399   5.853  14.903  0.0646  0.3433 -0.0968
18912TIP3    H178151   1.330   5.837  14.967 -0.8654 -1.8522 -1.5131
18912TIP3    H278152   1.353   5.891  14.828  0.6227  0.1206 -0.5571
18913TIP3   OH278153   1.950   0.069  12.737 -0.1992  0.5988 -0.5998
18913TIP3    H178154   1.880   0.088  12.799  1.6462 -0.7664  2.1250
18913TIP3    H278155   2.030   0.101  12.780  1.5600 -3.0213 -0.8087
18914TIP3   OH278156   6.599   5.898   0.767  0.0943 -0.2416 -0.3344
18914TIP3    H178157   6.582   5.833   0.835 -0.5461  0.3327  0.0684
18914TIP3    H278158   6.694   5.907   0.765  0.2767 -1.9455 -1.1228
18915TIP3   OH278159   2.263   1.646  13.046 -0.9829  0.0563 -0.7386
18915TIP3    H178160   2.199   1.710  13.014  1.0954  1.4686 -2.3012
18915TIP3    H278161   2.321   1.630  12.971 -0.3549 -2.3451  0.1574
18916TIP3   OH278162   3.369   6.427  17.106  0.2324 -0.2646  0.3594
18916TIP3    H178163   3.406   6.430  17.018 -1.0607 -1.8105 -0.2846
18916TIP3    H278164   3.440   6.393  17.161  0.4731 -1.0838 -0.4360
18917TIP3   OH278165   4.282   2.377   3.072 -0.9325  0.0972  0.4467
18917TIP3    H178166   4.307   2.467   3.092  0.1280 -0.1633  0.3498
18917TIP3    H278167   4.241   2.345   3.152 -1.5845  0.7546  0.3811
18918TIP3   OH278168   5.457   1.053  13.869  0.0794  0.4417  0.0071
18918TIP3    H178169   5.442   0.959  13.878  0.4303  0.5434  2.0658
18918TIP3    H278170   5.546   1.067  13.899  0.0862  1.4297 -0.4184
18919TIP3   OH278171   5.132   0.681  16.311 -0.0884 -0.2869  0.0270
18919TIP3    H178172   5.184   0.604  16.333 -1.9193 -1.3255  1.0126
18919TIP3    H278173   5.082   0.699  16.391  1.5577  3.0528  0.4620
18920TIP3   OH278174   2.964   1.693  14.484 -0.4931  0.1710  0.2183
18920TIP3    H178175   2.996   1.775  14.447 -0.3525 -0.0763 -0.2235
18920TIP3    H278176   2.893   1.718  14.543 -0.8897  0.5561 -0.4128
18921TIP3   OH278177   5.306   1.595  14.320 -0.0194 -0.5406 -0.7423
18921TIP3    H178178   5.225   1.546  14.336  0.3561 -1.0321 -0.3159
18921TIP3    H278179   5.290   1.682  14.358 -0.1609 -0.8011 -0.1972
18922TIP3   OH278180   6.254   3.600  11.188 -0.7118 -0.1513 -0.7671
18922TIP3    H178181   6.160   3.583  11.182 -1.1143  0.9305  1.4990
18922TIP3    H278182   6.263   3.664  11.259  1.7042  0.1422 -1.2431
18923TIP3   OH278183   1.614   1.307  14.162  0.1339 -0.3749 -0.0014
18923TIP3    H178184   1.675   1.299  14.236 -1.5322  0.2672  1.5348
18923TIP3    H278185   1.592   1.216  14.140  1.0910 -0.5914 -0.0970
18924TIP3   OH278186   4.763   0.718   4.961 -0.5033  0.2778 -1.0580
18924TIP3    H178187   4.794   0.647   5.017  0.5573  1.5077 -0.0025
18924TIP3    H278188   4.724   0.781   5.022 -0.3512  1.1388 -1.8188
18925TIP3   OH278189   4.459   6.212   1.052 -0.0080 -0.0197 -0.6120
18925TIP3    H178190   4.390   6.159   1.093  1.4353 -2.3430 -0.9796
18925TIP3    H278191   4.429   6.225   0.962 -0.4069 -0.1628 -0.5017
18926TIP3   OH278192   6.064   3.139   0.118  0.5763  0.5093  0.1618
18926TIP3    H178193   6.023   3.053   0.110  1.2969  0.1369  0.4186
18926TIP3    H278194   6.013   3.183   0.186  0.0855  0.3639 -0.1047
18927TIP3   OH278195   1.254   1.349  16.400 -0.1134  0.2193  0.3308
18927TIP3    H178196   1.288   1.294  16.328 -0.5388  2.4107 -1.6756
18927TIP3    H278197   1.165   1.317  16.415  0.1793 -0.6337  0.2914
18928TIP3   OH278198   4.825   3.866   1.215 -0.1636  0.1266  0.0891
18928TIP3    H178199   4.758   3.813   1.258 -1.0256  1.1273  0.0207
18928TIP3    H278200   4.879   3.899   1.286 -0.2600 -0.0051  0.2246
18929TIP3   OH278201   5.156   2.499  13.969 -0.4973 -0.0733  0.7625
18929TIP3    H178202   5.074   2.460  13.938 -0.8512  1.4124 -0.2646
18929TIP3    H278203   5.128   2.565  14.033 -0.4643  2.8375 -2.0096
18930TIP3   OH278204   6.476   5.142  10.663 -0.7360 -0.4206  0.0343
18930TIP3    H178205   6.448   5.229  10.691  0.2473 -0.0414 -0.1236
18930TIP3    H278206   6.548   5.158  10.602 -1.8062 -1.2892 -1.5223
18931TIP3   OH278207   1.245   5.224  14.091 -0.7582  0.7551  0.0689
18931TIP3    H178208   1.181   5.285  14.130 -1.8653  0.2658 -0.9120
18931TIP3    H278209   1.291   5.277  14.026 -1.7348  0.5607 -0.8000
18932TIP3   OH278210   6.044   1.424  12.155 -0.0960  0.4047 -0.1022
18932TIP3    H178211   6.099   1.357  12.195 -0.2588  0.3698  0.0629
18932TIP3    H278212   6.093   1.452  12.078  0.3609  0.6832  0.2823
18933TIP3   OH278213   0.359   1.853  12.555 -0.0242  0.7639 -0.2843
18933TIP3    H178214   0.320   1.925  12.506 -0.8220  0.6634  0.1836
18933TIP3    H278215   0.293   1.829  12.620 -0.0941 -0.9177 -0.9298
18934TIP3   OH278216   0.762   5.969   1.937 -0.0759  0.1186  0.3522
18934TIP3    H178217   0.701   6.001   1.870  0.9693  0.3014 -0.5484
18934TIP3    H278218   0.736   6.015   2.016  0.2269  1.8501 -0.5045
18935TIP3   OH278219   2.065   6.313  15.777 -0.1484 -0.5292  0.0594
18935TIP3    H178220   2.108   6.370  15.841 -0.6138 -0.5391  0.3760
18935TIP3    H278221   2.136   6.258  15.743  0.5415  0.9913 -1.0768
18936TIP3   OH278222   2.193   4.603  16.829  0.0353 -0.2735  0.0370
18936TIP3    H178223   2.190   4.572  16.738  1.2670  0.9089 -0.4416
18936TIP3    H278224   2.119   4.664  16.835  0.6858  0.5903 -0.5581
18937TIP3   OH278225   0.958   0.798   3.279 -0.2598 -0.2646 -0.1390
18937TIP3    H178226   1.016   0.824   3.351 -0.5490  1.1379 -0.4027
18937TIP3    H278227   1.014   0.744   3.223  0.7864  0.9533 -0.3182
18938TIP3   OH278228   0.148   6.018  15.838  0.2022 -0.1740 -0.4712
18938TIP3    H178229   0.232   6.063  15.839  1.4238 -2.2229 -2.3666
18938TIP3    H278230   0.164   5.937  15.791 -3.0905 -0.1695 -1.9145
18939TIP3   OH278231   6.350   4.817  15.602 -0.2015  0.2109  0.5940
18939TIP3    H178232   6.405   4.891  15.577 -0.0794  0.3653  1.3110
18939TIP3    H278233   6.261   4.852  15.604 -0.2300  0.1641  0.2602
18940TIP3   OH278234   4.610   3.889   4.390 -0.5487  0.6901 -0.2769
18940TIP3    H178235   4.524   3.846   4.395 -0.5940  0.8158  0.0767
18940TIP3    H278236   4.669   3.827   4.434 -0.6735  1.1317  0.5347
18941TIP3   OH278237   1.641   2.562  12.284 -0.7740  0.1708 -0.2802
18941TIP3    H178238   1.551   2.530  12.271 -1.5704  2.0251  0.3158
18941TIP3    H278239   1.630   2.653  12.310  1.2659  0.1574  0.8116
18942TIP3   OH278240   6.036   6.649   0.952  0.2650  0.0215 -0.0360
18942TIP3    H178241   6.103   6.602   1.002  0.0108 -0.5586 -0.2340
18942TIP3    H278242   6.067   6.739   0.949  1.9936 -0.5597 -1.7146
18943TIP3   OH278243   0.657   5.208  15.765 -0.5483  0.5460  0.6540
18943TIP3    H178244   0.683   5.272  15.832  0.3170 -0.1759  1.0309
18943TIP3    H278245   0.622   5.261  15.694  0.4791  1.4762  0.8067
18944TIP3   OH278246   0.769   4.196   4.105  0.0485 -0.7074  0.2118
18944TIP3    H178247   0.716   4.259   4.155 -0.1872 -0.5505 -0.2291
18944TIP3    H278248   0.769   4.231   4.016  1.4301 -0.3610  0.3339
18945TIP3   OH278249   0.362   1.720   6.226  0.4673  0.5866 -0.0761
18945TIP3    H178250   0.455   1.699   6.227  1.5356  4.3242 -1.5898
18945TIP3    H278251   0.346   1.761   6.311 -0.1053 -0.8223  0.5326
18946TIP3   OH278252   3.847   1.150  12.666  0.9507 -0.2986  0.0930
18946TIP3    H178253   3.939   1.153  12.691  1.2945 -1.2014 -0.9564
18946TIP3    H278254   3.847   1.110  12.579 -0.4598 -0.6993  0.2435
18947TIP3   OH278255   2.042   2.214   6.596  0.3425 -0.2446  0.2124
18947TIP3    H178256   2.005   2.147   6.539 -2.0988  0.7852  0.4675
18947TIP3    H278257   1.996   2.202   6.680  1.0962  0.6717  0.7742
18948TIP3   OH278258   0.989   6.281  12.890  0.0139 -0.0602 -0.0934
18948TIP3    H178259   0.904   6.326  12.894 -0.1869 -0.3743 -0.6984
18948TIP3    H278260   0.968   6.191  12.914  0.4061  0.1475  1.0678
18949TIP3   OH278261   6.517   2.444  13.124 -0.3536 -0.5500 -0.2044
18949TIP3    H178262   6.540   2.445  13.217  1.5824 -0.9846 -0.6482
18949TIP3    H278263   6.558   2.522  13.087  0.0369 -1.0896 -0.9426
18950TIP3   OH278264   3.654   1.481  13.349 -0.9438  0.0664 -0.5462
18950TIP3    H178265   3.647   1.399  13.399 -0.7345 -0.1472 -0.8637
18950TIP3    H278266   3.747   1.504  13.354 -1.1537  0.7754  0.3112
18951TIP3   OH278267   3.234   6.178  14.697 -0.5099  0.3903  0.4807
18951TIP3    H178268   3.204   6.257  14.743  0.1136  1.6185 -1.1440
18951TIP3    H278269   3.225   6.199  14.604 -0.5637 -1.5673 -0.0013
18952TIP3   OH278270   3.901   3.237   3.056 -0.4828 -0.4739 -0.3535
18952TIP3    H178271   3.885   3.187   3.136  0.4083  0.7971  0.6609
18952TIP3    H278272   3.988   3.211   3.028 -1.9110 -3.2422 -2.7499
18953TIP3   OH278273   6.385   1.087   1.592 -0.5859  0.1989 -0.5115
18953TIP3    H178274   6.416   1.169   1.554  0.2904  0.3915  0.5755
18953TIP3    H278275   6.295   1.105   1.617 -0.5279  0.6903 -0.6560
18954TIP3   OH278276   3.750   3.527   3.076 -0.2908  0.0822 -0.0970
18954TIP3    H178277   3.796   3.485   3.149  1.1901  0.2875 -0.8696
18954TIP3    H278278   3.697   3.595   3.117  0.9566  0.5701  0.7649
18955TIP3   OH278279   4.783   1.876   3.207 -0.1047 -0.0228 -0.4736
18955TIP3    H178280   4.869   1.870   3.250 -0.3078 -1.2202 -0.1926
18955TIP3    H278281   4.803   1.885   3.114  0.3361 -0.6988 -0.4523
18956TIP3   OH278282   6.424   6.658  13.117  0.0995  0.4709 -0.5335
18956TIP3    H178283   6.480   6.643  13.193 -1.3698  0.1220  0.5185
18956TIP3    H278284   6.475   6.625  13.043  0.9815 -0.5271  0.4823
18957TIP3   OH278285   0.218   1.240  12.232  0.0017 -0.0294  0.2776
18957TIP3    H178286   0.209   1.279  12.145  0.6671  0.0711  0.2433
18957TIP3    H278287   0.282   1.170  12.220 -1.0051 -0.9879  0.3912
18958TIP3   OH278288   0.857   0.297  11.313 -0.5761 -0.0274 -0.1677
18958TIP3    H178289   0.780   0.247  11.343 -1.9436  2.1275  0.1162
18958TIP3    H278290   0.931   0.255  11.357 -1.6149 -1.9053 -0.1044
18959TIP3   OH278291   5.970   4.515  15.593  0.5183 -0.5094  0.1170
18959TIP3    H178292   5.881   4.496  15.564 -0.2007  1.0982  1.1199
18959TIP3    H278293   6.013   4.550  15.514  0.3412 -1.4877 -0.4260
18960TIP3   OH278294   0.866   5.620  14.986  0.1277 -0.5574  0.0425
18960TIP3    H178295   0.852   5.693  15.046 -0.5849 -1.8599  1.5305
18960TIP3    H278296   0.961   5.607  14.986  0.1165 -0.7355  1.1620
18961TIP3   OH278297   1.547   1.285  15.698 -0.6739  0.1318 -0.4235
18961TIP3    H178298   1.537   1.200  15.740  1.5697 -1.5533 -2.9657
18961TIP3    H278299   1.457   1.312  15.678 -1.4602 -1.4826  0.6532
18962TIP3   OH278300   2.262   0.577  12.669 -0.1222 -0.7262  0.5079
18962TIP3    H178301   2.329   0.536  12.723  1.9658  0.5126 -1.0199
18962TIP3    H278302   2.232   0.652  12.721  3.7153  2.0236 -0.8420
18963TIP3   OH278303   1.541   5.815   1.999  0.3670 -0.2992 -0.0650
18963TIP3    H178304   1.635   5.820   2.018  0.9657 -2.8800 -1.8575
18963TIP3    H278305   1.506   5.898   2.032  3.0366  0.2375  1.7847
18964TIP3   OH278306   5.118   3.110  16.129  0.3839 -0.2000 -0.3648
18964TIP3    H178307   5.146   3.182  16.073 -1.5132  0.8516 -0.0287
18964TIP3    H278308   5.106   3.036  16.069  1.7476 -0.0988 -0.7971
18965TIP3   OH278309   1.281   3.558  16.290 -0.1777  0.0810  0.3592
18965TIP3    H178310   1.235   3.474  16.282 -1.5121  0.7895  0.2498
18965TIP3    H278311   1.295   3.569  16.384  0.3748 -0.4498  0.3426
18966TIP3   OH278312   1.973   5.578  15.152  0.6150 -0.3434  0.5439
18966TIP3    H178313   1.920   5.557  15.229  0.1711 -1.5517 -0.0757
18966TIP3    H278314   2.008   5.494  15.123  3.2862  0.4548  1.1857
18967TIP3   OH278315   2.520   0.398   5.293 -0.1532 -0.1246  0.3129
18967TIP3    H178316   2.531   0.425   5.202 -1.4402  1.0471  0.4704
18967TIP3    H278317   2.464   0.320   5.288 -2.0247  1.1579  0.1535
18968TIP3   OH278318   4.383   1.861  15.891 -0.2697 -0.0024  0.1221
18968TIP3    H178319   4.384   1.766  15.875  3.0815  0.1576 -1.7425
18968TIP3    H278320   4.450   1.874  15.958 -0.1220  1.0958 -0.2248
18969TIP3   OH278321   6.443   0.299  13.305 -0.1247 -0.5198  0.2442
18969TIP3    H178322   6.367   0.319  13.250 -1.1380 -0.5862  1.5684
18969TIP3    H278323   6.407   0.289  13.393  1.5587  0.4231  1.0998
18970TIP3   OH278324   3.125   1.158  16.480 -0.2933  0.0863 -0.0148
18970TIP3    H178325   3.062   1.110  16.425  0.6181  0.0985 -1.0925
18970TIP3    H278326   3.182   1.203  16.418  0.3177  0.6845  0.9613
18971TIP3   OH278327   3.659   0.999   5.206 -0.4270  0.0949 -0.7349
18971TIP3    H178328   3.586   0.937   5.198 -0.8510  0.6976 -1.6912
18971TIP3    H278329   3.622   1.083   5.178  0.2982  0.6704 -0.0113
18972TIP3   OH278330   3.422   4.213  16.482  0.3436  0.2733 -0.1969
18972TIP3    H178331   3.457   4.269  16.551 -0.7759  2.0172 -0.9801
18972TIP3    H278332   3.328   4.210  16.499  0.4640 -2.2169  0.3807
18973TIP3   OH278333   2.964   2.072   2.923  0.4856 -0.2846  0.8516
18973TIP3    H178334   2.875   2.049   2.896 -0.1761  1.0593  1.7805
18973TIP3    H278335   3.004   2.107   2.844 -0.2889  0.4081  0.7475
18974TIP3   OH278336   5.632   6.546   1.210  0.4269 -0.8064 -0.7568
18974TIP3    H178337   5.537   6.543   1.203  0.4438 -1.2029 -0.8889
18974TIP3    H278338   5.660   6.606   1.141  0.2427 -0.3298 -0.4138
18975TIP3   OH278339   4.483   2.326  17.013  0.0677 -0.0605 -0.0442
18975TIP3    H178340   4.394   2.294  17.022  0.0387 -0.6769 -1.9996
18975TIP3    H278341   4.528   2.297  17.092 -1.7279  1.3294  1.5714
18976TIP3   OH278342   4.033   5.281  15.113  0.2399  0.0692 -0.5563
18976TIP3    H178343   3.984   5.335  15.052  0.1592  1.1326  0.4237
18976TIP3    H278344   3.969   5.220  15.148  0.1223 -0.0465 -0.9682
18977TIP3   OH278345   5.443   0.007   3.276 -0.0468 -0.4417  0.3303
18977TIP3    H178346   5.537   0.020   3.261 -0.0663  0.1789  0.7222
18977TIP3    H278347   5.408   0.096   3.287 -1.1191 -0.4426 -2.2648
18978TIP3   OH278348   5.731   1.359  11.339  0.6771  0.3112  0.0874
18978TIP3    H178349   5.744   1.450  11.312 -2.2473  1.5854  2.2818
18978TIP3    H278350   5.646   1.335  11.301 -0.2401 -0.1909  2.2784
18979TIP3   OH278351   6.619   1.385   2.249  0.0348 -0.0310  0.0431
18979TIP3    H178352   6.539   1.382   2.196  0.4311  0.6493 -0.6043
18979TIP3    H278353   6.588   1.406   2.337 -0.5527 -0.3343 -0.0882
18980TIP3   OH278354   1.954   4.797   4.664 -0.0533 -0.1241  0.0019
18980TIP3    H178355   1.999   4.746   4.596 -1.7314  0.1628 -1.3845
18980TIP3    H278356   2.026   4.835   4.715  1.3031 -0.0956 -1.7971
18981TIP3   OH278357   1.364   4.282   2.935  0.4079 -0.3568  0.0202
18981TIP3    H178358   1.292   4.226   2.965 -0.3901 -0.0153 -1.1914
18981TIP3    H278359   1.443   4.232   2.954 -0.0242 -0.2039  2.5696
18982TIP3   OH278360   5.632   5.798  10.838  0.3704  0.2961  0.2637
18982TIP3    H178361   5.589   5.753  10.766 -0.8296 -0.3093  1.3162
18982TIP3    H278362   5.623   5.891  10.818  1.9093  0.1396 -1.3815
18983TIP3   OH278363   0.825   3.111   4.680  0.1433 -0.0738 -0.0739
18983TIP3    H178364   0.828   3.066   4.596  0.6242 -1.0170  0.4419
18983TIP3    H278365   0.756   3.177   4.668 -0.2182 -0.5941 -1.0043
18984TIP3   OH278366   6.150   1.768  10.650 -0.2106 -0.3852  0.8158
18984TIP3    H178367   6.130   1.860  10.633 -1.8823 -0.6469  1.2608
18984TIP3    H278368   6.246   1.765  10.658 -0.1474  1.3237  0.8992
18985TIP3   OH278369   4.064   5.123  13.064 -0.0272  0.2767 -0.4713
18985TIP3    H178370   4.048   5.065  13.139 -0.3856  0.6528 -0.2510
18985TIP3    H278371   4.056   5.211  13.100 -1.1816  0.4738 -1.1411
18986TIP3   OH278372   6.773   5.909  13.162 -0.1230  0.5995  0.0057
18986TIP3    H178373   6.841   5.842  13.159 -0.5767 -0.0069  2.0431
18986TIP3    H278374   6.702   5.874  13.108  0.8811  0.9600 -1.6266
18987TIP3   OH278375   4.766   5.971   6.077 -0.3630  0.5123  0.1814
18987TIP3    H178376   4.857   5.952   6.053 -1.2497 -0.6086 -2.7957
18987TIP3    H278377   4.748   6.055   6.034 -1.2624 -0.2523 -0.9900
18988TIP3   OH278378   5.477   3.185   5.761 -0.1688 -0.0079 -0.1095
18988TIP3    H178379   5.526   3.254   5.717 -0.5121  0.0448 -0.4111
18988TIP3    H278380   5.541   3.145   5.821  0.3033 -0.0804 -0.6490
18989TIP3   OH278381   5.969   1.241  15.053 -0.5415 -0.2650  0.0366
18989TIP3    H178382   5.933   1.159  15.017  0.8659 -1.0452  0.3474
18989TIP3    H278383   5.965   1.302  14.980 -1.1517 -0.7468 -0.3523
18990TIP3   OH278384   6.528   1.784  11.763 -0.4068  0.0940  0.3110
18990TIP3    H178385   6.547   1.869  11.802 -0.5536 -0.3312  1.3334
18990TIP3    H278386   6.610   1.735  11.770  0.3724  0.8585 -2.2826
18991TIP3   OH278387   1.707   1.094   1.642 -0.0303 -0.1914  0.1480
18991TIP3    H178388   1.684   1.147   1.566  0.4199 -1.2433 -0.7622
18991TIP3    H278389   1.663   1.010   1.627  1.4407 -1.0128  0.1516
18992TIP3   OH278390   5.066   1.304  13.150 -0.5361  0.2929  0.4518
18992TIP3    H178391   5.014   1.360  13.207  2.2867  1.3232  2.2469
18992TIP3    H278392   5.112   1.365  13.092 -0.1562 -0.4344 -0.0209
18993TIP3   OH278393   5.378   4.261   0.107 -0.0545 -0.1085  0.0734
18993TIP3    H178394   5.342   4.272   0.019  3.0078  2.1476 -1.1125
18993TIP3    H278395   5.333   4.327   0.160  2.6783  3.6161 -1.6907
18994TIP3   OH278396   5.116   5.033  12.001  0.4367 -0.1367 -0.1942
18994TIP3    H178397   5.175   4.968  11.962 -1.5248 -2.2132  0.1315
18994TIP3    H278398   5.140   5.034  12.093  2.0875  1.4812 -0.5837
18995TIP3   OH278399   3.564   5.759   0.831  0.3492  0.3771  0.6940
18995TIP3    H178400   3.571   5.683   0.774 -1.0064  1.2785 -0.7582
18995TIP3    H278401   3.655   5.786   0.847  0.8022  0.6713 -1.9014
18996TIP3   OH278402   3.456   5.911   5.184 -0.4443 -0.0921 -0.4117
18996TIP3    H178403   3.546   5.941   5.196 -0.0492 -0.1922 -2.6414
18996TIP3    H278404   3.464   5.816   5.177 -0.9736 -0.2680  0.9857
18997TIP3   OH278405   4.221   3.218   4.291  0.0867  0.8201  0.7555
18997TIP3    H178406   4.250   3.286   4.230 -1.0023  0.7066  0.0913
18997TIP3    H278407   4.269   3.139   4.265 -1.5845  0.3335 -1.0922
18998TIP3   OH278408   3.154   2.287  13.483 -0.4230  0.0699  0.4068
18998TIP3    H178409   3.166   2.374  13.520  0.2168 -0.1035  0.6313
18998TIP3    H278410   3.243   2.251  13.477 -0.3576  0.5157 -2.3936
18999TIP3   OH278411   6.569   5.355  11.273 -0.6357 -0.5468 -0.7529
18999TIP3    H178412   6.620   5.375  11.195 -1.6246 -0.4233 -1.3897
18999TIP3    H278413   6.598   5.268  11.300 -0.1898 -0.5316 -1.1766
19000TIP3   OH278414   6.702   3.139  14.240  0.0634  0.0477  0.6353
19000TIP3    H178415   6.680   3.087  14.317 -0.0214 -1.0936 -0.1417
19000TIP3    H278416   6.617   3.164  14.203  0.1068  0.1996  0.6360
19001TIP3   OH278417   4.682   1.939   1.333 -0.1929 -0.7721 -0.0932
19001TIP3    H178418   4.655   2.031   1.330  4.6208  0.9202 -1.4411
19001TIP3    H278419   4.719   1.928   1.421 -1.3803 -1.7252  0.3141
19002TIP3   OH278420   0.184   5.398   4.669  0.0696 -0.1836  0.0332
19002TIP3    H178421   0.195   5.487   4.701 -0.2724 -0.6786  1.5828
19002TIP3    H278422   0.222   5.400   4.581 -0.4035  1.6043 -0.1701
19003TIP3   OH278423   5.943   0.834   4.565 -0.0011 -0.4181  0.2858
19003TIP3    H178424   5.914   0.815   4.476  0.6808 -0.2100  0.0163
19003TIP3    H278425   5.965   0.748   4.602 -2.7817 -0.8488  1.1775
19004TIP3   OH278426   4.430   5.068  14.343 -0.2792  0.4545 -0.3920
19004TIP3    H178427   4.336   5.054  14.356 -0.3645  2.5982  2.3095
19004TIP3    H278428   4.471   4.992  14.385 -0.7586 -0.2596 -1.1749
19005TIP3   OH278429   6.605   5.586  14.731 -0.0330 -0.2863  0.3654
19005TIP3    H178430   6.663   5.633  14.671  0.0299  0.0837  0.7144
19005TIP3    H278431   6.616   5.494  14.708 -0.1970 -0.1281 -0.3557
19006TIP3   OH278432   4.367   1.588  15.850 -0.2981  0.0555  0.7334
19006TIP3    H178433   4.435   1.621  15.791 -0.3219  3.0939  2.2146
19006TIP3    H278434   4.311   1.534  15.795  1.0971  0.6766 -1.4165
19007TIP3   OH278435   5.887   2.213  14.964  0.0040  0.1100 -0.4298
19007TIP3    H178436   5.881   2.118  14.951  0.1807  0.4106 -3.4720
19007TIP3    H278437   5.797   2.243  14.970 -0.1736 -0.0663 -1.7999
19008TIP3   OH278438   1.952   4.791   5.089  0.2998  0.4908 -0.1870
19008TIP3    H178439   1.877   4.791   5.029 -0.2084  0.9058  0.4401
19008TIP3    H278440   1.981   4.882   5.090 -0.1147  0.6172  0.7157
19009TIP3   OH278441   2.774   2.386  16.559  0.0613  0.3252  0.4737
19009TIP3    H178442   2.840   2.366  16.626 -0.8306 -3.7766  0.3481
19009TIP3    H278443   2.691   2.386  16.606 -0.2536  1.4091 -0.0445
19010TIP3   OH278444   4.729   1.422  13.218  0.1235  0.3712 -0.1844
19010TIP3    H178445   4.798   1.435  13.152  1.3115  0.4067  1.0244
19010TIP3    H278446   4.726   1.504  13.266 -1.3791  0.6705 -0.7635
19011TIP3   OH278447   5.023   0.280  17.104 -0.1245  0.0671 -0.3113
19011TIP3    H178448   5.079   0.203  17.095  1.6822  1.0996  1.2605
19011TIP3    H278449   5.014   0.292  17.199 -0.0826  1.9627 -0.5041
19012TIP3   OH278450   2.606   0.651   2.431 -0.6383 -0.1866 -0.0650
19012TIP3    H178451   2.573   0.577   2.379 -1.1087  0.0782 -0.1443
19012TIP3    H278452   2.605   0.619   2.521  0.7100 -0.8455 -0.2553
19013TIP3   OH278453   2.535   4.281  12.864  0.5783 -0.4857 -0.6632
19013TIP3    H178454   2.572   4.339  12.798 -0.3296  0.5216 -0.3209
19013TIP3    H278455   2.564   4.193  12.839  1.3541  0.0293 -1.6205
19014TIP3   OH278456   0.855   4.385   2.150  0.1972  0.6210 -0.2837
19014TIP3    H178457   0.764   4.356   2.148  0.2476  0.4739 -1.9674
19014TIP3    H278458   0.853   4.474   2.114  0.5568  1.1818  1.0286
19015TIP3   OH278459   1.899   3.259   5.932  0.2572  0.0538 -0.1036
19015TIP3    H178460   1.991   3.277   5.914  0.5350  0.0559  1.2232
19015TIP3    H278461   1.878   3.313   6.009 -0.2468 -1.5291  0.9204
19016TIP3   OH278462   1.554   1.259  15.285 -0.2386  0.5144  0.2045
19016TIP3    H178463   1.511   1.200  15.347  1.5937 -0.0170  1.0218
19016TIP3    H278464   1.496   1.260  15.209 -1.3970 -0.6134  1.0302
19017TIP3   OH278465   2.899   1.088   4.789  0.0483 -0.6930  0.1735
19017TIP3    H178466   2.953   1.077   4.867  1.0201  1.1133 -0.1840
19017TIP3    H278467   2.837   1.157   4.812  2.5540  2.4685 -1.5858
19018TIP3   OH278468   3.202   5.071   5.511  0.4012 -0.3140  0.6751
19018TIP3    H178469   3.266   5.139   5.491 -1.1326  0.6137 -1.5015
19018TIP3    H278470   3.139   5.114   5.569 -0.1818 -0.0679 -0.1241
19019TIP3   OH278471   0.157   4.033  10.866 -0.4885 -0.1622  0.0710
19019TIP3    H178472   0.101   4.109  10.883 -1.4916 -0.6228 -1.0036
19019TIP3    H278473   0.131   3.968  10.931 -0.7420 -0.1382 -0.0062
19020TIP3   OH278474   1.730   5.584  14.493  0.3324 -0.4926 -0.4349
19020TIP3    H178475   1.722   5.495  14.457  2.0631 -0.4880 -0.9114
19020TIP3    H278476   1.658   5.590  14.555 -1.1151 -1.4769 -1.9034
19021TIP3   OH278477   6.244   1.945  11.913  0.7720  0.1994  0.2764
19021TIP3    H178478   6.285   2.021  11.871 -1.6105  0.5416 -1.6831
19021TIP3    H278479   6.194   1.982  11.986  0.8273  0.3126  0.2576
19022TIP3   OH278480   4.561   0.275  10.526  0.6739  0.3261 -0.9713
19022TIP3    H178481   4.641   0.318  10.556  1.2519 -1.4369  0.2015
19022TIP3    H278482   4.491   0.315  10.577  0.9854  0.9348 -1.0172
19023TIP3   OH278483   3.553   6.678  15.785 -0.5570 -0.1465 -0.5099
19023TIP3    H178484   3.627   6.617  15.789  1.0135  1.7246  0.8316
19023TIP3    H278485   3.515   6.676  15.873 -0.8398  0.3832 -0.6116
19024TIP3   OH278486   6.341   0.529   2.455 -0.4904  0.4664 -0.1209
19024TIP3    H178487   6.355   0.525   2.361  0.8495 -1.6364  0.1038
19024TIP3    H278488   6.377   0.614   2.481 -0.0089  0.6624 -1.3659
19025TIP3   OH278489   5.649   0.913   5.562 -0.3018  0.4913  0.7849
19025TIP3    H178490   5.672   0.821   5.567  1.2006  0.8511  1.0640
19025TIP3    H278491   5.638   0.930   5.468  1.5310  0.4779  0.5346
19026TIP3   OH278492   0.839   0.260   4.880 -0.2005 -0.3151 -0.2461
19026TIP3    H178493   0.912   0.203   4.855 -1.7796 -2.5996  0.0383
19026TIP3    H278494   0.811   0.227   4.966  0.1834  2.3783  1.0313
19027TIP3   OH278495   3.806   3.185   2.235  0.5199  0.7687  0.5393
19027TIP3    H178496   3.893   3.210   2.266  1.2384 -0.5444 -0.2977
19027TIP3    H278497   3.808   3.089   2.234 -0.0833  0.7112 -1.7428
19028TIP3   OH278498   5.849   0.284  15.477  0.0508 -0.2811  0.3780
19028TIP3    H178499   5.903   0.325  15.410 -2.1347  0.6918 -0.8886
19028TIP3    H278500   5.855   0.344  15.552 -0.4634  0.6294 -0.2937
19029TIP3   OH278501   2.447   4.046  15.719 -0.1679  0.7260 -0.0722
19029TIP3    H178502   2.448   3.987  15.643 -1.3384 -0.1537  0.5630
19029TIP3    H278503   2.429   3.989  15.793  2.3682  1.3549  1.1222
19030TIP3   OH278504   0.885   6.004  14.477 -0.4278  0.2710  0.4953
19030TIP3    H178505   0.939   6.082  14.490 -0.0190  0.0493  0.1655
19030TIP3    H278506   0.831   6.024  14.401 -0.6147  0.3907  0.6605
19031TIP3   OH278507   2.689   2.028   2.812  0.1592 -0.1199 -0.3682
19031TIP3    H178508   2.645   1.986   2.886  2.1809 -0.5319  0.6609
19031TIP3    H278509   2.705   1.957   2.750  1.8336 -0.5446  0.5085
19032TIP3   OH278510   2.809   4.401   2.097  0.2501  0.0966 -0.3320
19032TIP3    H178511   2.750   4.469   2.067 -0.5996  0.0094  1.0289
19032TIP3    H278512   2.753   4.324   2.109  0.2575  0.3925  2.3703
19033TIP3   OH278513   2.314   1.263   2.371  0.0763  0.6079  0.6311
19033TIP3    H178514   2.336   1.170   2.373 -1.4374  0.0666 -2.4446
19033TIP3    H278515   2.383   1.305   2.422  0.7184 -2.1752  2.2509
19034TIP3   OH278516   3.779   1.482  10.744 -0.7478  0.5215  0.8502
19034TIP3    H178517   3.711   1.537  10.704  0.4639  0.7575 -0.9810
19034TIP3    H278518   3.740   1.454  10.827 -2.9979  0.8358 -0.0071
19035TIP3   OH278519   3.186   3.831  12.035  0.0247  0.0366 -0.2104
19035TIP3    H178520   3.100   3.804  12.069  0.6562 -0.8881  0.7360
19035TIP3    H278521   3.212   3.903  12.092  0.4589 -0.5842  0.4000
19036TIP3   OH278522   6.769   1.384   5.117 -0.1826 -0.2700 -0.2992
19036TIP3    H178523   6.698   1.408   5.175  0.6331  0.1056  0.5582
19036TIP3    H278524   6.740   1.301   5.078 -0.5581 -0.7576  0.9584
19037TIP3   OH278525   4.295   5.868  12.660  0.3064 -0.3842 -0.3230
19037TIP3    H178526   4.325   5.786  12.621  0.3644 -0.2639 -0.5331
19037TIP3    H278527   4.322   5.862  12.751  0.1505 -0.6778 -0.2937
19038TIP3   OH278528   6.422   2.117   0.282 -0.5699 -0.1299  0.5420
19038TIP3    H178529   6.433   2.204   0.243  0.2562 -0.0984  0.8115
19038TIP3    H278530   6.368   2.069   0.220 -0.0632  0.2155 -0.1823
19039TIP3   OH278531   2.299   0.450  15.469 -0.2703 -0.1227 -0.1613
19039TIP3    H178532   2.290   0.479  15.560 -1.1148  1.1766 -0.6201
19039TIP3    H278533   2.211   0.421  15.444 -0.4506  1.0554 -1.0130
19040TIP3   OH278534   5.873   4.786  11.637  0.5367 -0.4425  0.2025
19040TIP3    H178535   5.849   4.747  11.553 -1.4091 -1.1587  1.0294
19040TIP3    H278536   5.955   4.742  11.662  1.4428  0.1816 -1.5276
19041TIP3   OH278537   3.524   2.906   4.527 -0.0668  0.0921 -0.3487
19041TIP3    H178538   3.453   2.965   4.553 -1.3142 -2.3758  2.3987
19041TIP3    H278539   3.603   2.948   4.561 -0.5681  1.3218 -0.6149
19042TIP3   OH278540   6.008   4.063   5.099 -0.2861 -0.0140  0.4369
19042TIP3    H178541   6.084   4.058   5.157 -0.2186 -0.4777  0.3134
19042TIP3    H278542   5.933   4.063   5.159 -0.2090 -0.2660  0.5379
19043TIP3   OH278543   4.827   6.688   0.218 -0.2358  0.1383  0.1321
19043TIP3    H178544   4.813   6.610   0.165  0.5514  1.4536 -2.1337
19043TIP3    H278545   4.773   6.755   0.177  1.9631  1.7258 -0.3199
19044TIP3   OH278546   4.653   1.135  11.663 -0.2568 -0.1601 -0.1900
19044TIP3    H178547   4.591   1.066  11.639  0.0293 -0.7690  0.7537
19044TIP3    H278548   4.701   1.100  11.738  1.4204  0.1946 -1.0356
19045TIP3   OH278549   4.744   6.724  14.580  0.8808 -0.2220  0.2573
19045TIP3    H178550   4.814   6.764  14.528  1.9630 -1.4754  0.6889
19045TIP3    H278551   4.789   6.694  14.659 -0.1601 -1.0809  0.5331
19046TIP3   OH278552   3.204   2.062  14.708 -0.1714 -0.5553 -0.1371
19046TIP3    H178553   3.143   2.045  14.781  1.0486 -1.8148  0.6442
19046TIP3    H278554   3.231   2.153  14.720 -3.0567  0.5925 -1.4477
19047TIP3   OH278555   0.445   6.062  17.134 -0.1260  0.3480 -0.2178
19047TIP3    H178556   0.366   6.011  17.151 -0.9798  2.0542  1.2628
19047TIP3    H278557   0.511   6.024  17.193 -0.1582 -0.2966 -0.5817
19048TIP3   OH278558   4.245   6.238  16.037  0.3480 -0.1423 -0.3197
19048TIP3    H178559   4.176   6.237  15.970  1.3869  1.2011 -1.4574
19048TIP3    H278560   4.277   6.148  16.039 -1.7899 -0.9517  0.6676
19049TIP3   OH278561   6.644   3.612  10.882  0.0014 -0.0709  0.2812
19049TIP3    H178562   6.727   3.614  10.834 -0.0816  2.1350  0.0977
19049TIP3    H278563   6.666   3.575  10.967  1.2484  0.7442  0.3355
19050TIP3   OH278564   0.156   0.193  16.964 -0.3304 -0.4192  0.0771
19050TIP3    H178565   0.239   0.158  16.994 -0.5796 -0.4055  0.7937
19050TIP3    H278566   0.090   0.143  17.012 -0.7483 -0.7231 -0.7970
19051TIP3   OH278567   5.491   6.630   2.280 -0.2720  0.5217 -0.1860
19051TIP3    H178568   5.562   6.579   2.320 -1.4935 -1.5368 -0.4628
19051TIP3    H278569   5.442   6.565   2.229 -1.8835  2.0408 -0.6456
19052TIP3   OH278570   6.636   4.118  13.850  0.3345  0.5040 -0.7215
19052TIP3    H178571   6.598   4.042  13.894  0.4236  0.2392 -1.0965
19052TIP3    H278572   6.611   4.108  13.758  0.1893  1.0292 -0.7431
19053TIP3   OH278573   4.848   5.856  11.716 -0.8374 -0.0169 -0.3421
19053TIP3    H178574   4.758   5.884  11.733 -0.5021  0.1890  1.2776
19053TIP3    H278575   4.856   5.855  11.621 -2.8423 -1.0122 -0.5470
19054TIP3   OH278576   4.363   6.301   5.534  0.2000  0.2064  0.0667
19054TIP3    H178577   4.361   6.278   5.441 -0.4643  0.3943  0.0312
19054TIP3    H278578   4.293   6.249   5.573  0.4411  0.1704  0.4592
19055TIP3   OH278579   0.780   4.047   3.000  0.2438 -0.0137  0.0758
19055TIP3    H178580   0.807   4.139   2.990 -0.6383  0.3304  0.7619
19055TIP3    H278581   0.685   4.052   3.013 -0.3697 -1.2183 -2.9880
19056TIP3   OH278582   6.647   4.757   0.002  0.0601 -0.3690  0.4123
19056TIP3    H178583   6.568   4.807  -0.016  0.5556  0.0776 -0.5866
19056TIP3    H278584   6.616   4.674   0.037 -0.8403 -0.1523  0.1442
19057TIP3   OH278585   1.620   6.102  13.234 -0.1506  0.5370  0.3272
19057TIP3    H178586   1.716   6.103  13.233 -0.1286  1.2370 -2.2394
19057TIP3    H278587   1.595   6.186  13.274  0.4041  2.2942 -2.7567
19058TIP3   OH278588   1.931   5.181  15.808  0.3403 -0.3656 -0.0269
19058TIP3    H178589   1.948   5.275  15.801  2.3370 -0.8157 -2.5770
19058TIP3    H278590   1.965   5.157  15.894 -0.4339  1.2181  0.7812
19059TIP3   OH278591   0.237   2.954   4.666  0.2766 -0.3969  0.1792
19059TIP3    H178592   0.272   2.940   4.754  1.4429 -0.3608 -0.2602
19059TIP3    H278593   0.238   2.867   4.626 -0.3637 -0.4336  0.2302
19060TIP3   OH278594   2.636   2.361   3.734  0.2182  0.2533 -0.0940
19060TIP3    H178595   2.633   2.368   3.639 -0.7101 -3.7737 -0.5430
19060TIP3    H278596   2.724   2.328   3.753 -0.2473 -0.8786  0.1818
19061TIP3   OH278597   2.529   1.573   3.779 -0.1945  0.6909 -0.2789
19061TIP3    H178598   2.511   1.489   3.821  0.8389  0.4457 -0.3112
19061TIP3    H278599   2.536   1.552   3.685  0.1252  0.7955 -0.2797
19062TIP3   OH278600   0.801   5.087  16.743  0.3689  0.0537  0.1336
19062TIP3    H178601   0.762   5.114  16.826 -1.0984  1.8345 -1.0360
19062TIP3    H278602   0.750   5.011  16.716  1.0611 -0.7293  0.9827
19063TIP3   OH278603   0.422   2.977  12.230 -0.2850 -0.3790 -0.2882
19063TIP3    H178604   0.455   3.056  12.187 -0.0513 -0.0746  0.4415
19063TIP3    H278605   0.403   3.005  12.319  0.5039 -1.3312  0.1918
19064TIP3   OH278606   5.087   0.548  15.675  0.5086 -0.2985  0.6501
19064TIP3    H178607   5.042   0.632  15.662  1.1713 -0.0179  0.1275
19064TIP3    H278608   5.087   0.507  15.588 -0.7982 -1.3639  1.1038
19065TIP3   OH278609   4.098   4.220   1.734 -0.1875  0.1701  0.3028
19065TIP3    H178610   4.112   4.296   1.678 -1.0332  0.3336  0.2902
19065TIP3    H278611   4.149   4.239   1.813  1.6909 -0.4417 -0.6982
19066TIP3   OH278612   2.862   3.205  12.692 -0.1112 -0.0860 -0.5820
19066TIP3    H178613   2.948   3.190  12.652  0.4287  1.4581 -0.0610
19066TIP3    H278614   2.833   3.117  12.719  1.4493 -0.6055 -0.4715
19067TIP3   OH278615   1.012   6.160  16.663  0.2994 -0.4424 -0.1917
19067TIP3    H178616   1.054   6.074  16.659  0.8659 -0.1898  0.0889
19067TIP3    H278617   1.074   6.214  16.712 -0.1915  0.0455 -0.0978
19068TIP3   OH278618   3.585   4.962   1.828  0.4105  0.0602 -0.2442
19068TIP3    H178619   3.618   4.872   1.826  2.1898  0.6866 -0.9651
19068TIP3    H278620   3.637   5.008   1.762 -2.8186  0.8561 -2.4943
19069TIP3   OH278621   0.213   1.157  13.169 -0.2885 -0.3421 -0.0963
19069TIP3    H178622   0.235   1.167  13.262  1.7716 -0.2084 -0.5490
19069TIP3    H278623   0.134   1.209  13.158 -0.4362 -0.1509  1.5399
19070TIP3   OH278624   0.343   0.424   5.787 -0.3550 -0.7127 -0.0887
19070TIP3    H178625   0.333   0.510   5.828  1.7422 -1.2276  1.6641
19070TIP3    H278626   0.285   0.367   5.838  0.9215 -0.9940  1.1155
19071TIP3   OH278627   5.110   2.483   3.148 -0.5221 -0.0875 -0.0587
19071TIP3    H178628   5.033   2.446   3.192 -0.5592  0.3642  0.2565
19071TIP3    H278629   5.074   2.524   3.069 -0.7308  0.8935  0.5297
19072TIP3   OH278630   0.103   3.160   2.917  0.3265 -0.9258 -0.1091
19072TIP3    H178631   0.107   3.112   2.999 -0.2197  1.2717  1.2803
19072TIP3    H278632   0.192   3.155   2.882  2.0232  2.0754  3.1158
19073TIP3   OH278633   1.097   3.688  15.078  0.0491 -0.5775 -0.3578
19073TIP3    H178634   1.114   3.770  15.124  1.0733 -0.0887 -1.5616
19073TIP3    H278635   1.017   3.705  15.028  1.1059  0.2615 -1.8322
19074TIP3   OH278636   6.250   4.208   5.708  0.0327  0.3591 -0.1482
19074TIP3    H178637   6.251   4.138   5.773 -0.1445 -0.1585 -0.6839
19074TIP3    H278638   6.305   4.276   5.744 -1.8385  1.0499  1.5845
19075TIP3   OH278639   4.442   4.130  11.416 -0.0993  0.1225 -0.1514
19075TIP3    H178640   4.389   4.092  11.347  0.0713  0.3713 -0.4221
19075TIP3    H278641   4.526   4.085  11.411  0.2265  0.7738 -0.7088
19076TIP3   OH278642   3.850   4.057   1.162  0.4161 -0.7057  0.1042
19076TIP3    H178643   3.846   4.071   1.067 -0.3009  2.5410  0.4988
19076TIP3    H278644   3.758   4.057   1.189  0.6564  1.2120  1.0633
19077TIP3   OH278645   0.729   3.999   3.665  0.1654  0.2526  0.5665
19077TIP3    H178646   0.688   3.914   3.681 -0.9024  0.1984 -1.9790
19077TIP3    H278647   0.699   4.023   3.577  1.4961  2.6628  0.7116
19078TIP3   OH278648   5.244   0.171  15.179 -0.7148  0.2100 -0.1378
19078TIP3    H178649   5.319   0.153  15.236 -0.3928 -1.1050 -0.9307
19078TIP3    H278650   5.261   0.258  15.142 -1.1155  1.2710  2.0141
19079TIP3   OH278651   4.273   0.431  15.154  0.0755 -0.2286 -0.1368
19079TIP3    H178652   4.289   0.516  15.194 -1.6997  0.3993 -0.6803
19079TIP3    H278653   4.217   0.385  15.216  2.4412 -1.7740  1.0108
19080TIP3   OH278654   4.243   4.515  13.914 -0.1638  0.1389  0.1973
19080TIP3    H178655   4.331   4.487  13.939 -0.4955 -0.3894  0.8132
19080TIP3    H278656   4.212   4.446  13.856 -0.0661  0.4739 -0.2576
19081TIP3   OH278657   1.729   5.464  11.204  0.5267 -0.4004 -0.1026
19081TIP3    H178658   1.767   5.551  11.219 -3.8659  2.1310 -1.6317
19081TIP3    H278659   1.736   5.450  11.110  0.3303 -1.2858  0.0069
19082TIP3   OH278660   5.281   3.607  15.719 -0.0898  0.2648  0.2600
19082TIP3    H178661   5.230   3.617  15.800  0.6376 -0.6666  0.8530
19082TIP3    H278662   5.217   3.581  15.653 -0.2817 -1.8847  1.2124
19083TIP3   OH278663   4.580   1.351  12.047 -0.1841 -0.5744 -0.0578
19083TIP3    H178664   4.540   1.417  12.103 -0.6737 -0.6522 -0.3089
19083TIP3    H278665   4.619   1.289  12.108  0.0004 -0.2282  0.1847
19084TIP3   OH278666   0.627   4.040  11.608  0.5961  0.3423 -0.1406
19084TIP3    H178667   0.656   3.994  11.529  0.5738 -0.3422  0.2375
19084TIP3    H278668   0.699   4.027  11.670 -0.0762 -0.5558  0.4909
19085TIP3   OH278669   5.819   4.295  17.005  0.1407  0.0687  0.9825
19085TIP3    H178670   5.873   4.297  16.926 -0.2348  0.6127  0.7244
19085TIP3    H278671   5.829   4.383  17.042  1.0430 -0.4700  2.0498
19086TIP3   OH278672   4.070   0.889  14.959  0.5946  0.2002 -0.3417
19086TIP3    H178673   4.044   0.803  14.990  0.9071 -0.2678 -1.3251
19086TIP3    H278674   4.159   0.901  14.991  0.2500  0.5225  0.5042
19087TIP3   OH278675   5.691   6.442  15.114 -0.6135 -0.7184 -0.3534
19087TIP3    H178676   5.605   6.429  15.074 -0.7429  0.7342 -0.6111
19087TIP3    H278677   5.735   6.504  15.056  0.5411 -1.2807 -0.1051
19088TIP3   OH278678   1.374   5.095  14.334  0.5614  0.1699  0.1957
19088TIP3    H178679   1.350   5.045  14.255 -0.9547 -0.0449  0.7568
19088TIP3    H278680   1.338   5.182  14.318  1.1092  0.4041  0.2372
19089TIP3   OH278681   5.804   2.341  12.264  0.6026  0.3017 -0.2685
19089TIP3    H178682   5.742   2.276  12.297 -0.0579  1.0497 -0.0082
19089TIP3    H278683   5.860   2.293  12.203  0.7955 -0.7395  0.6960
19090TIP3   OH278684   4.414   3.019   2.383  0.8552 -0.0043 -0.4552
19090TIP3    H178685   4.376   2.949   2.329  1.2918 -0.1315 -0.5985
19090TIP3    H278686   4.493   2.981   2.421  0.2636 -0.0997  0.7312
19091TIP3   OH278687   3.853   2.022  13.205  0.0470 -0.4076 -0.2144
19091TIP3    H178688   3.948   2.023  13.221  0.1588  0.1581 -0.8524
19091TIP3    H278689   3.844   1.985  13.118 -0.2278  0.5598 -0.6139
19092TIP3   OH278690   1.853   4.303   5.560  0.3935  0.0174 -0.1017
19092TIP3    H178691   1.894   4.241   5.499  2.6612  2.4971 -1.2906
19092TIP3    H278692   1.871   4.267   5.646 -0.9811 -2.4647 -0.7637
19093TIP3   OH278693   2.197   4.047  11.472  0.4269 -0.6902  0.2470
19093TIP3    H178694   2.273   4.003  11.511  0.2063 -1.6751 -0.3974
19093TIP3    H278695   2.121   4.001  11.508  0.1651 -0.4157  0.0595
19094TIP3   OH278696   4.014   1.459  14.077  0.1319  0.3186 -0.2371
19094TIP3    H178697   4.004   1.366  14.099  1.2192  0.2225 -0.0966
19094TIP3    H278698   4.083   1.460  14.011  0.7401  1.1052  0.3941
19095TIP3   OH278699   6.226   0.946   4.519  0.4638  0.0609 -0.0073
19095TIP3    H178700   6.241   0.871   4.575  2.3927  0.6620  0.3554
19095TIP3    H278701   6.273   0.926   4.438 -0.2929  0.2235 -0.4979
19096TIP3   OH278702   4.918   3.783   0.711  0.0215 -0.1174 -0.0837
19096TIP3    H178703   4.827   3.757   0.697  0.5157 -2.4985  0.7597
19096TIP3    H278704   4.918   3.827   0.796 -0.2815 -0.5005  0.1147
19097TIP3   OH278705   4.684   2.085  12.435  0.1806 -0.1524 -0.2090
19097TIP3    H178706   4.728   2.163  12.468 -0.0532 -1.1458  2.7599
19097TIP3    H278707   4.754   2.022  12.419  0.1395 -0.4243  0.6580
19098TIP3   OH278708   4.772   1.031  13.340  0.1272 -0.2994  0.4931
19098TIP3    H178709   4.715   1.098  13.377 -1.7126 -2.1284  1.2030
19098TIP3    H278710   4.774   1.049  13.246 -0.5538  0.5616  0.6319
19099TIP3   OH278711   0.095   5.205  14.549 -0.6796  0.2047 -0.0059
19099TIP3    H178712   0.123   5.291  14.520 -0.6235  0.3075  0.3582
19099TIP3    H278713   0.002   5.216  14.570 -0.8060  0.0507 -0.4514
19100TIP3   OH278714   1.147   6.764   5.851  0.3069  0.1035 -0.0011
19100TIP3    H178715   1.233   6.798   5.875 -0.4594  2.2296 -0.0536
19100TIP3    H278716   1.129   6.697   5.917  1.8118 -0.0985  0.2468
19101TIP3   OH278717   5.252   3.294   1.089  0.3480 -0.2447  0.2336
19101TIP3    H178718   5.175   3.255   1.131  0.0091  0.7930  0.5900
19101TIP3    H278719   5.218   3.365   1.036  1.0442  0.0867  0.2156
19102TIP3   OH278720   0.553   4.582  16.170 -0.0181 -0.3853 -0.4300
19102TIP3    H178721   0.565   4.674  16.196  0.0162 -1.2455  3.1043
19102TIP3    H278722   0.504   4.587  16.088 -0.7377  2.7718  0.0479
19103TIP3   OH278723   3.342   6.733   6.157  0.0261 -0.0734 -0.0538
19103TIP3    H178724   3.390   6.816   6.146  3.2285 -1.7737 -0.1081
19103TIP3    H278725   3.356   6.709   6.249  0.0795 -1.0724 -0.3114
19104TIP3   OH278726   2.138   6.583   1.626  0.0069 -0.1532  0.0476
19104TIP3    H178727   2.228   6.553   1.639 -0.2784 -1.1247 -0.1181
19104TIP3    H278728   2.097   6.572   1.712 -0.2501 -0.7904 -0.1513
19105TIP3   OH278729   2.596   5.726   3.639  0.5219 -0.5536  0.3638
19105TIP3    H178730   2.584   5.682   3.723 -0.3511  0.1502  0.6329
19105TIP3    H278731   2.601   5.819   3.661  0.7716 -0.3942 -0.3235
19106TIP3   OH278732   3.122   2.275   0.624  0.0109  0.1842  0.0206
19106TIP3    H178733   3.174   2.242   0.697 -0.2515 -0.7182 -0.1963
19106TIP3    H278734   3.034   2.284   0.659 -0.4012 -1.4818 -0.5127
19107TIP3   OH278735   3.300   3.400   0.321 -0.3215 -0.1855  0.2674
19107TIP3    H178736   3.226   3.341   0.304  1.4720 -2.2898 -0.5907
19107TIP3    H278737   3.310   3.450   0.240 -0.0612 -0.7513 -0.0516
19108TIP3   OH278738   2.603   0.360  11.212  0.0561  0.0779 -0.8120
19108TIP3    H178739   2.644   0.287  11.258 -0.6807 -0.0200 -0.2940
19108TIP3    H278740   2.513   0.362  11.245  0.3417  1.8794 -0.0189
19109TIP3   OH278741   4.198   2.851  13.824  0.1128 -0.2334  0.3386
19109TIP3    H178742   4.196   2.768  13.871  0.7717  0.3793  1.4997
19109TIP3    H278743   4.142   2.909  13.877  1.5889  0.7230  0.9196
19110TIP3   OH278744   2.808   2.089  12.783  0.6798  0.4872  0.0994
19110TIP3    H178745   2.878   2.152  12.797 -0.3066  1.4150  0.9796
19110TIP3    H278746   2.848   2.004  12.804  1.6004  0.9720  0.3599
19111TIP3   OH278747   2.109   2.756  12.811 -0.3381 -0.1928 -0.1342
19111TIP3    H178748   2.110   2.683  12.873  1.8755 -1.6739 -1.7944
19111TIP3    H278749   2.166   2.822  12.852 -0.4083 -0.3834  0.2751
19112TIP3   OH278750   1.691   2.224  11.377 -0.5672  0.7013  0.0212
19112TIP3    H178751   1.717   2.175  11.298 -0.8053 -0.1918  0.4850
19112TIP3    H278752   1.595   2.225  11.373 -0.5644  1.0839  0.0474
19113TIP3   OH278753   6.459   4.357  11.932 -0.1313  0.3113  0.2423
19113TIP3    H178754   6.465   4.448  11.963  1.1616  0.4544 -0.3591
19113TIP3    H278755   6.427   4.365  11.842 -0.5218  0.1249  0.3625
19114TIP3   OH278756   4.821   4.251  14.822 -0.2303  0.0616  0.4316
19114TIP3    H178757   4.749   4.202  14.781  0.1885  0.1935 -0.5045
19114TIP3    H278758   4.841   4.320  14.758 -0.2005  0.8915  1.3164
19115TIP3   OH278759   6.397   2.335   2.480 -0.1402  0.1988  0.3564
19115TIP3    H178760   6.434   2.248   2.495  1.2558  0.0208 -3.2527
19115TIP3    H278761   6.428   2.387   2.554  2.6519 -1.3579  0.4038
19116TIP3   OH278762   4.824   6.180  12.360 -0.0983 -0.5486  0.1654
19116TIP3    H178763   4.769   6.104  12.340  1.1765 -1.4813  0.0565
19116TIP3    H278764   4.776   6.227  12.428 -1.5006 -0.7649 -0.6499
19117TIP3   OH278765   6.781   0.531  11.893  0.4724 -0.0334 -0.0063
19117TIP3    H178766   6.706   0.558  11.945 -1.2353  1.0184 -2.7751
19117TIP3    H278767   6.760   0.443  11.864 -0.3138  0.6541 -1.6727
19118TIP3   OH278768   1.674   1.373   4.649  0.2099  0.1881  0.0793
19118TIP3    H178769   1.630   1.426   4.583 -0.0349  0.5847  0.5585
19118TIP3    H278770   1.757   1.418   4.664 -0.1179  0.5924  0.6890
19119TIP3   OH278771   2.123   2.837   5.534 -0.6479 -0.4480 -0.2027
19119TIP3    H178772   2.119   2.776   5.607  0.4891  0.8000  0.9599
19119TIP3    H278773   2.088   2.919   5.570 -0.8531 -0.0270 -1.3164
19120TIP3   OH278774   4.374   6.407  14.154 -0.6628 -0.3789 -0.4100
19120TIP3    H178775   4.426   6.487  14.158  0.3242 -0.9343 -1.4427
19120TIP3    H278776   4.313   6.421  14.082 -0.7322 -0.4103 -0.3566
19121TIP3   OH278777   5.737   6.266  13.506  0.2341  0.0576 -0.1110
19121TIP3    H178778   5.744   6.316  13.425  0.6599 -0.5959 -0.4910
19121TIP3    H278779   5.744   6.174  13.478  0.6735 -0.1668  0.6907
19122TIP3   OH278780   4.311   4.269  12.048  0.2508  0.8787 -0.3875
19122TIP3    H178781   4.352   4.225  11.973 -1.6304 -1.9783  0.1401
19122TIP3    H278782   4.364   4.243  12.123 -0.2660  0.3638 -0.2026
19123TIP3   OH278783   1.411   6.697  13.283  0.4208  0.6897  0.0166
19123TIP3    H178784   1.464   6.760  13.234  0.9481 -0.6750 -1.2486
19123TIP3    H278785   1.470   6.664  13.351  0.0099  1.8319  0.9588
19124TIP3   OH278786   6.700   5.993  14.551 -0.1567  0.3253  0.0295
19124TIP3    H178787   6.657   6.076  14.572  0.3192  0.7909 -0.7842
19124TIP3    H278788   6.783   5.997  14.598 -0.1506  0.2950  0.0216
19125TIP3   OH278789   6.679   3.840   2.200 -0.1090  0.1926 -0.4173
19125TIP3    H178790   6.712   3.866   2.114 -0.2392 -0.6814 -0.7433
19125TIP3    H278791   6.727   3.760   2.221  0.9959  1.1784  1.0016
19126TIP3   OH278792   5.304   5.973   1.397 -0.5018  0.1125 -0.1703
19126TIP3    H178793   5.382   5.918   1.401 -0.0419  0.7102 -0.5549
19126TIP3    H278794   5.336   6.061   1.420 -1.5073 -0.0331  1.9015
19127TIP3   OH278795   5.727   5.860   4.380  0.0777 -0.3468 -0.6684
19127TIP3    H178796   5.690   5.798   4.316 -1.9312 -0.3404  0.3918
19127TIP3    H278797   5.789   5.912   4.329 -0.4570 -1.2174 -2.3044
19128TIP3   OH278798   4.159   5.259   6.394 -0.2907  0.2103 -0.0271
19128TIP3    H178799   4.153   5.295   6.482 -0.2405 -3.2853  1.5924
19128TIP3    H278800   4.247   5.281   6.364  0.0784  0.5589  1.2574
19129TIP3   OH278801   4.523   2.707  11.848  0.3026  0.2929  0.1385
19129TIP3    H178802   4.563   2.720  11.934  0.9255  0.9483 -0.2499
19129TIP3    H278803   4.498   2.795  11.819 -0.0034  0.0633 -0.3074
19130TIP3   OH278804   1.007   4.087   5.417  0.3603 -0.3311 -0.3887
19130TIP3    H178805   1.030   4.154   5.352 -0.8716 -0.1038 -0.6219
19130TIP3    H278806   0.943   4.130   5.474 -0.0210 -1.1366 -0.1960
19131TIP3   OH278807   2.617   3.482   4.587  0.1500  0.2416  0.7132
19131TIP3    H178808   2.649   3.455   4.673  0.0088  0.0643  0.7107
19131TIP3    H278809   2.544   3.422   4.568  0.3701  0.0838  0.3397
19132TIP3   OH278810   6.588   6.224  16.219  0.3190 -0.3677 -0.0906
19132TIP3    H178811   6.676   6.207  16.251  0.7852  0.7752 -0.7019
19132TIP3    H278812   6.558   6.141  16.183  1.1469 -0.7631  0.1356
19133TIP3   OH278813   4.092   5.408   2.854 -0.9893 -0.2406  0.2768
19133TIP3    H178814   4.107   5.475   2.788 -1.8879  0.6446  0.9322
19133TIP3    H278815   4.176   5.363   2.863  0.4391  2.4729  1.6647
19134TIP3   OH278816   1.976   3.730  13.045  0.3171 -0.6007  0.2052
19134TIP3    H178817   2.014   3.646  13.018 -0.2605 -0.6393 -0.5110
19134TIP3    H278818   2.052   3.787  13.059  0.6413 -0.3607 -2.2475
19135TIP3   OH278819   0.214   1.794  16.714 -0.0678 -0.2827  0.6409
19135TIP3    H178820   0.203   1.880  16.755 -0.7117 -0.7246  1.4084
19135TIP3    H278821   0.134   1.781  16.663  0.2534 -0.2133  0.1098
19136TIP3   OH278822   3.945   0.841   0.289 -0.5405 -0.3092  0.3136
19136TIP3    H178823   3.997   0.909   0.248 -1.6836  0.7973  0.6376
19136TIP3    H278824   3.961   0.852   0.383 -1.8982  0.5483  0.4760
19137TIP3   OH278825   4.037   6.120   2.221  0.3334  0.3939 -0.0568
19137TIP3    H178826   4.072   6.123   2.310 -0.7064 -0.0973  0.3853
19137TIP3    H278827   4.098   6.063   2.173  0.9393  0.7198  0.3119
19138TIP3   OH278828   0.814   4.662   0.100 -0.2038 -0.0163 -0.5939
19138TIP3    H178829   0.890   4.698   0.054  0.9516 -2.1179 -0.4960
19138TIP3    H278830   0.739   4.709   0.064  1.1112  2.1581 -0.6767
19139TIP3   OH278831   3.961   0.124   0.304  0.0434 -0.3856 -0.2443
19139TIP3    H178832   4.012   0.192   0.348 -0.0014 -1.3571  1.4025
19139TIP3    H278833   3.895   0.172   0.255  1.3322  0.8221 -0.8967
19140TIP3   OH278834   3.190   0.246  15.141  0.5867  0.3188  0.1624
19140TIP3    H178835   3.236   0.196  15.074 -0.0138  0.4236 -0.3295
19140TIP3    H278836   3.252   0.249  15.214  1.3189  0.3597 -0.4445
19141TIP3   OH278837   3.429   1.033   0.475  0.0755 -0.4461 -0.0620
19141TIP3    H178838   3.481   1.096   0.425  1.6791 -0.6451  1.2940
19141TIP3    H278839   3.470   1.031   0.561 -3.1146  0.5545  1.6526
19142TIP3   OH278840   1.109   6.236  15.491  0.3157  0.2817 -0.2828
19142TIP3    H178841   1.046   6.294  15.449  0.5032  0.3664 -0.4496
19142TIP3    H278842   1.063   6.153  15.501  0.2648  0.2635 -0.6506
19143TIP3   OH278843   1.831   5.681  11.360 -0.5468  0.1045 -0.1120
19143TIP3    H178844   1.923   5.697  11.339 -0.4256 -1.5205 -0.9842
19143TIP3    H278845   1.784   5.756  11.323  0.2902  0.2559 -0.8933
19144TIP3   OH278846   2.323   2.335  13.402  0.1051 -0.0359 -0.7134
19144TIP3    H178847   2.273   2.406  13.442 -2.0750 -2.0038  0.2399
19144TIP3    H278848   2.331   2.268  13.470  2.6060 -0.5600 -1.3940
19145TIP3   OH278849   3.761   6.426  10.829 -0.3472  0.0939  0.4693
19145TIP3    H178850   3.728   6.337  10.822 -0.8803  0.3504 -0.2858
19145TIP3    H278851   3.848   6.416  10.869 -0.7087 -0.6932  1.0937
19146TIP3   OH278852   2.543   0.980  13.880 -0.3897  0.7451  0.9372
19146TIP3    H178853   2.559   0.921  13.806 -0.2215 -0.2628  1.7545
19146TIP3    H278854   2.572   1.066  13.849 -0.0238  0.2837 -0.0494
19147TIP3   OH278855   3.254   0.656  11.746  0.2864 -0.3671  0.3996
19147TIP3    H178856   3.252   0.735  11.800 -2.5547 -1.0957  1.5462
19147TIP3    H278857   3.303   0.592  11.799  0.4369 -0.1030  0.5791
19148TIP3   OH278858   6.602   2.411  11.708 -0.8499 -0.2825 -0.5943
19148TIP3    H178859   6.602   2.476  11.778  0.1595  1.3544 -2.0449
19148TIP3    H278860   6.510   2.388  11.695 -1.0602 -0.5615  1.1733
19149TIP3   OH278861   2.798   4.684   5.240  0.2016 -0.4103  0.1344
19149TIP3    H178862   2.733   4.630   5.195 -1.3737  0.7083  0.9619
19149TIP3    H278863   2.776   4.674   5.333  1.5236 -0.3646  0.4665
19150TIP3   OH278864   2.646   5.995  15.463  0.2301 -0.2774  0.2709
19150TIP3    H178865   2.628   5.904  15.441  0.6886  0.1832 -2.2604
19150TIP3    H278866   2.736   6.009  15.433 -0.2429  1.3221 -0.4784
19151TIP3   OH278867   3.672   4.039   5.037  0.7077  0.1122 -0.1794
19151TIP3    H178868   3.638   4.027   4.948  0.9744  1.2681 -0.4449
19151TIP3    H278869   3.750   4.094   5.027  0.6204  0.4442  0.7890
19152TIP3   OH278870   3.803   4.655  13.719  0.3926 -0.4323 -0.8258
19152TIP3    H178871   3.804   4.592  13.791 -0.4875  0.8332  0.3397
19152TIP3    H278872   3.721   4.635  13.672 -0.1153  0.1120 -0.1886
19153TIP3   OH278873   5.569   2.251  11.566 -0.0659  0.3217  1.0024
19153TIP3    H178874   5.623   2.315  11.611 -0.3422  0.1134  1.6390
19153TIP3    H278875   5.531   2.197  11.636  1.5597 -1.6867  0.4341
19154TIP3   OH278876   5.807   0.142  12.241 -0.2319 -0.1042 -0.3278
19154TIP3    H178877   5.796   0.224  12.194  0.1961  0.3295  0.3099
19154TIP3    H278878   5.822   0.076  12.173 -1.6094  0.1530 -0.9109
19155TIP3   OH278879   5.055   2.811  11.233 -0.3990 -0.1174  0.0936
19155TIP3    H178880   5.071   2.729  11.280  0.9948 -0.8152 -1.5087
19155TIP3    H278881   5.041   2.876  11.302 -1.3082 -1.6387  1.4077
19156TIP3   OH278882   0.633   1.753  13.949 -0.0698  0.3221 -0.3210
19156TIP3    H178883   0.679   1.834  13.926  0.3507 -0.0065 -0.6711
19156TIP3    H278884   0.645   1.696  13.872 -2.3764  0.7541 -1.0774
19157TIP3   OH278885   6.392   0.649  14.350 -0.1798  0.1064  0.1092
19157TIP3    H178886   6.301   0.673  14.369 -0.2958 -0.0648 -0.2264
19157TIP3    H278887   6.408   0.571  14.402 -0.2159  0.1483  0.1836
19158TIP3   OH278888   0.895   6.317   3.717 -0.3268  0.1778  0.0105
19158TIP3    H178889   0.865   6.277   3.799  0.6846 -1.6158 -0.4471
19158TIP3    H278890   0.815   6.333   3.667 -0.7393 -2.6121 -0.3528
19159TIP3   OH278891   5.028   2.075   5.279 -0.6145 -0.5569  0.2697
19159TIP3    H178892   5.090   2.080   5.206 -0.5311  2.5443  0.4380
19159TIP3    H278893   4.947   2.043   5.238  0.6517 -3.5849 -0.1516
19160TIP3   OH278894   5.818   6.233   5.176 -0.8335 -0.0879 -0.4508
19160TIP3    H178895   5.769   6.154   5.152 -0.7711 -0.3925  0.3953
19160TIP3    H278896   5.767   6.272   5.247  0.4819 -0.7758  0.9180
19161TIP3   OH278897   2.764   2.601   0.228 -0.5181  0.9410 -0.0300
19161TIP3    H178898   2.817   2.553   0.292 -0.5794  0.8719 -0.0306
19161TIP3    H278899   2.827   2.657   0.182 -0.3437  0.4173 -0.4443
19162TIP3   OH278900   3.436   6.614   5.629  0.1351 -0.7736 -0.0715
19162TIP3    H178901   3.412   6.594   5.719  0.3420  0.9154  0.3915
19162TIP3    H278902   3.501   6.683   5.636  0.7525 -1.1622 -1.5061
19163TIP3   OH278903   5.907   0.548  15.618 -0.0189  0.6865 -0.5597
19163TIP3    H178904   5.912   0.574  15.527 -0.8855  0.5751 -0.6483
19163TIP3    H278905   5.815   0.557  15.641  0.0759  0.0869  0.1153
19164TIP3   OH278906   6.293   5.564   6.944  0.1530 -0.4624  0.3884
19164TIP3    H178907   6.216   5.569   7.002  0.3450 -0.3026  0.6334
19164TIP3    H278908   6.265   5.507   6.872 -0.4333  0.1483  0.1123
19165TIP3   OH278909   6.304   4.170   4.453 -0.4142  0.7322  0.4391
19165TIP3    H178910   6.366   4.102   4.475 -1.6076 -0.6829 -0.3799
19165TIP3    H278911   6.219   4.126   4.451 -1.1591  2.1029 -0.6828
19166TIP3   OH278912   3.563   1.233  15.537  0.6827 -0.0986  0.4612
19166TIP3    H178913   3.610   1.149  15.538  0.7472 -0.0882 -0.5398
19166TIP3    H278914   3.608   1.286  15.472 -0.4225  0.0743 -0.2025
19167TIP3   OH278915   3.216   4.805   4.292 -0.5430  0.5274 -0.5813
19167TIP3    H178916   3.241   4.895   4.272 -1.3103  0.7967 -0.3790
19167TIP3    H278917   3.121   4.810   4.306 -0.4194 -0.1160  0.5547
19168TIP3   OH278918   1.717   3.379  16.102  0.1513  0.4308 -0.1822
19168TIP3    H178919   1.708   3.427  16.184 -1.0197 -0.4386  0.2394
19168TIP3    H278920   1.675   3.435  16.037 -0.0915  0.5381  0.0651
19169TIP3   OH278921   1.420   4.977  11.020  0.4788 -0.0079 -0.4440
19169TIP3    H178922   1.439   5.030  10.943  1.5506 -1.3056 -1.1229
19169TIP3    H278923   1.405   5.040  11.090  0.7000  1.1814 -1.4328
19170TIP3   OH278924   3.743   0.614  12.125  0.0073 -0.1710 -0.3220
19170TIP3    H178925   3.762   0.706  12.143  0.4666 -0.4367  0.5976
19170TIP3    H278926   3.651   0.604  12.148  0.6003 -0.5261  2.1472
19171TIP3   OH278927   2.122   6.677  14.410  0.5786  0.2968  0.1393
19171TIP3    H178928   2.044   6.630  14.381 -0.2707  0.5085  1.9533
19171TIP3    H278929   2.103   6.769  14.390 -0.0517  0.4555  1.3737
19172TIP3   OH278930   2.021   0.443  11.217 -0.1225 -0.6261  0.4086
19172TIP3    H178931   1.947   0.415  11.162  0.4179 -1.5098  0.0994
19172TIP3    H278932   2.060   0.361  11.247  0.1726 -0.1533  1.3350
19173TIP3   OH278933   5.004   0.335   4.509 -0.0453  0.5632 -0.1378
19173TIP3    H178934   4.923   0.292   4.535  0.6978 -1.4262 -0.9122
19173TIP3    H278935   5.017   0.310   4.418  1.5811  0.5598  0.0579
19174TIP3   OH278936   0.834   3.250   2.067 -0.5626  0.3821  0.1676
19174TIP3    H178937   0.841   3.291   2.153  1.3685  0.8055 -0.1530
19174TIP3    H278938   0.832   3.323   2.005 -0.2183  0.0499 -0.2420
19175TIP3   OH278939   0.826   0.344   3.443 -0.6759 -0.5603  0.2566
19175TIP3    H178940   0.912   0.370   3.410 -0.6812 -1.3414 -0.4223
19175TIP3    H278941   0.795   0.420   3.492 -0.1178  0.1799 -0.5029
19176TIP3   OH278942   3.113   1.110  14.460 -0.0012  0.2302 -0.0950
19176TIP3    H178943   3.056   1.112  14.383 -1.9510 -4.6259  0.8530
19176TIP3    H278944   3.196   1.075  14.428 -0.3171 -0.3918 -0.2392
19177TIP3   OH278945   0.373   5.696   5.804  0.1306 -0.4164 -0.4453
19177TIP3    H178946   0.452   5.718   5.755  1.1027  0.9041  1.5970
19177TIP3    H278947   0.382   5.603   5.824  0.4172 -0.6268 -1.4545
19178TIP3   OH278948   0.984   1.249  11.581 -0.2422  0.0274 -0.0726
19178TIP3    H178949   1.058   1.201  11.618 -1.0051  0.3433  1.9903
19178TIP3    H278950   1.011   1.268  11.490  0.7339 -2.8063 -0.4636
19179TIP3   OH278951   4.059   4.841   4.597  0.1891 -0.0100 -0.0142
19179TIP3    H178952   4.091   4.751   4.605  2.1254  0.6955  0.6109
19179TIP3    H278953   4.029   4.847   4.506 -3.2064 -2.2321  0.7885
19180TIP3   OH278954   3.706   4.074  13.172 -0.0671 -0.2429 -0.3009
19180TIP3    H178955   3.620   4.073  13.129 -0.7610 -0.9213  1.0633
19180TIP3    H278956   3.687   4.063  13.265  1.3510  1.8882  0.3208
19181TIP3   OH278957   2.376   2.152   1.428 -0.3425  0.1039  0.5591
19181TIP3    H178958   2.389   2.074   1.374  0.8052 -0.0456  1.0348
19181TIP3    H278959   2.285   2.146   1.457 -1.2210  0.5133 -1.8384
19182TIP3   OH278960   3.135   3.340  17.103  0.4353 -0.5960 -0.1355
19182TIP3    H178961   3.066   3.405  17.116  1.9766  1.0938  0.0152
19182TIP3    H278962   3.104   3.285  17.031 -0.9279  0.2732 -0.2399
19183TIP3   OH278963   4.421   4.334  11.600 -0.0887 -0.1185  0.4468
19183TIP3    H178964   4.421   4.268  11.531  0.3636  1.6120 -1.2979
19183TIP3    H278965   4.513   4.339  11.628  0.0224  0.3086  0.0175
19184TIP3   OH278966   5.480   1.381  14.377  0.0281  0.3515 -1.0276
19184TIP3    H178967   5.569   1.404  14.354  0.1563  0.7509 -0.1726
19184TIP3    H278968   5.426   1.445  14.331  0.2436  0.7254 -0.7687
19185TIP3   OH278969   1.635   5.905   5.306 -0.1547  0.0609  0.8060
19185TIP3    H178970   1.657   5.996   5.287 -0.1270  0.0711  0.8839
19185TIP3    H278971   1.596   5.908   5.394  1.3740 -0.2192  1.5237
19186TIP3   OH278972   6.760   0.828  14.387 -0.0648 -0.4692  0.0846
19186TIP3    H178973   6.797   0.915  14.405 -1.1019 -0.2069  1.1599
19186TIP3    H278974   6.832   0.767  14.400  0.3679  0.1388  0.5857
19187TIP3   OH278975   2.097   5.765  16.239  0.4789  0.0777 -0.1275
19187TIP3    H178976   2.161   5.709  16.194 -0.9883 -2.3781  0.6755
19187TIP3    H278977   2.120   5.758  16.331  1.1883  2.1170 -0.0877
19188TIP3   OH278978   4.285   5.768  13.147  0.1450  0.1206  0.5644
19188TIP3    H178979   4.208   5.823  13.137  1.2963  1.7158  0.1448
19188TIP3    H278980   4.268   5.717  13.227 -1.2313  0.5753  0.5857
19189TIP3   OH278981   4.774   1.560  12.089  0.3758 -0.3757 -0.3789
19189TIP3    H178982   4.849   1.503  12.074 -1.0751 -2.1947 -1.1372
19189TIP3    H278983   4.759   1.558  12.183  0.2215 -1.4546 -0.4167
19190TIP3   OH278984   1.200   5.028  13.080 -0.1130  0.2033  0.9545
19190TIP3    H178985   1.200   5.116  13.117 -0.0669 -0.3565  2.3715
19190TIP3    H278986   1.292   5.006  13.070 -0.1243  0.3013  0.6177
19191TIP3   OH278987   4.193   3.655  14.647 -0.1027 -0.0273  0.0657
19191TIP3    H178988   4.251   3.583  14.673  0.2516  0.4718  0.6757
19191TIP3    H278989   4.231   3.689  14.566 -0.7342 -1.0388 -0.6904
19192TIP3   OH278990   3.807   5.888   6.736  0.1928  0.0615  0.6329
19192TIP3    H178991   3.800   5.852   6.824 -0.3853 -1.8908 -0.1591
19192TIP3    H278992   3.894   5.930   6.734  0.5347 -0.5456  1.8772
19193TIP3   OH278993   6.737   5.646   2.989  0.2077 -0.6348  0.4686
19193TIP3    H178994   6.701   5.659   2.902 -1.1861 -0.4633  1.0480
19193TIP3    H278995   6.830   5.666   2.980  0.1374 -0.9325 -1.0337
19194TIP3   OH278996   6.571   1.930  13.902  0.4955 -0.1581  0.1110
19194TIP3    H178997   6.555   1.940  13.996  1.0520 -1.7890  0.4157
19194TIP3    H278998   6.631   1.855  13.896  0.2037 -0.2909 -1.5699
19195TIP3   OH278999   1.516   6.191  14.807  0.4078  0.0849  0.0451
19195TIP3    H179000   1.565   6.131  14.865 -0.2053  1.3308  1.9517
19195TIP3    H279001   1.575   6.266  14.797  0.3828  0.0015 -0.7265
19196TIP3   OH279002   3.931   6.239  16.631  0.2386  0.4989  0.0116
19196TIP3    H179003   3.943   6.312  16.570 -1.1257  0.6549 -0.1027
19196TIP3    H279004   3.992   6.172  16.601 -0.0442  0.7759 -1.2130
19197TIP3   OH279005   5.750   2.854   2.726  0.3160 -0.1376 -0.3290
19197TIP3    H179006   5.835   2.831   2.689 -0.0834  0.4585 -1.6470
19197TIP3    H279007   5.708   2.769   2.745 -0.6579 -0.6354 -4.0134
19198TIP3   OH279008   1.622   1.700  12.823  0.2409 -0.0173  0.1345
19198TIP3    H179009   1.533   1.680  12.852 -0.4911  2.1364 -0.4454
19198TIP3    H279010   1.613   1.720  12.730  1.6012 -1.1089 -0.2714
19199TIP3   OH279011   3.455   1.052   1.482 -0.3949  0.1251  0.8524
19199TIP3    H179012   3.537   1.080   1.441 -0.4951  1.0194  1.2384
19199TIP3    H279013   3.393   1.121   1.459 -0.9716 -0.4101  0.7903
19200TIP3   OH279014   5.567   0.601   4.632 -0.2170  0.5462 -0.1379
19200TIP3    H179015   5.487   0.593   4.580 -0.8529  1.1202  0.7371
19200TIP3    H279016   5.638   0.588   4.568 -0.9986 -0.4202 -0.8399
19201TIP3   OH279017   3.018   3.249  16.856 -0.0672  0.3261 -0.1849
19201TIP3    H179018   3.091   3.273  16.799 -0.5844 -0.0890 -1.0421
19201TIP3    H279019   3.008   3.155  16.842  0.8011 -0.1105  1.7888
19202TIP3   OH279020   5.287   3.637  16.936 -0.2786  0.2054 -0.4346
19202TIP3    H179021   5.269   3.681  16.854  0.4406 -1.4591 -1.5431
19202TIP3    H279022   5.352   3.692  16.980 -0.5422  1.0179 -1.0408
19203TIP3   OH279023   3.510   2.787   0.288  0.5176 -0.3063  0.4025
19203TIP3    H179024   3.455   2.713   0.263  0.0755  0.2571 -0.3499
19203TIP3    H279025   3.476   2.860   0.236  1.4418  0.2471  0.5563
19204TIP3   OH279026   2.498   4.366   3.062  0.5543  0.2762  0.1011
19204TIP3    H179027   2.583   4.355   3.020  0.3100 -1.3369 -0.0392
19204TIP3    H279028   2.510   4.439   3.122  1.9240  0.3239 -0.2004
19205TIP3   OH279029   6.482   3.900  15.811  0.6158  0.3632 -0.4496
19205TIP3    H179030   6.519   3.826  15.763  0.5442  0.4769 -0.6825
19205TIP3    H279031   6.530   3.901  15.894 -0.3746 -0.8263  0.1652
19206TIP3   OH279032   1.322   0.282  14.738  0.2074 -0.6632 -0.1541
19206TIP3    H179033   1.386   0.348  14.713 -0.8638  0.0230 -1.1732
19206TIP3    H279034   1.312   0.293  14.832 -0.2779  0.9567 -0.3625
19207TIP3   OH279035   1.946   1.301   3.008 -0.5269 -0.0589  0.2541
19207TIP3    H179036   1.943   1.228   3.070 -0.3275  0.2986  0.6941
19207TIP3    H279037   1.918   1.263   2.925  2.4042 -1.3822 -0.2532
19208TIP3   OH279038   5.992   2.374  11.486  0.2120  0.0698 -0.3825
19208TIP3    H179039   5.933   2.317  11.436 -0.2137 -0.5432  0.7606
19208TIP3    H279040   6.045   2.418  11.421 -1.9845  1.1714 -1.5255
19209TIP3   OH279041   0.554   5.603  16.471 -0.6280  0.3152 -0.1289
19209TIP3    H179042   0.518   5.516  16.455 -0.6441  0.1761  0.6264
19209TIP3    H279043   0.611   5.620  16.396  2.4207 -1.9390  1.5015
19210TIP3   OH279044   4.674   1.986   0.750  0.3425  0.4383  0.2092
19210TIP3    H179045   4.597   2.036   0.722 -0.2643 -0.2254  0.6462
19210TIP3    H279046   4.733   2.051   0.788  0.1618  1.0057 -0.4745
19211TIP3   OH279047   0.018   0.803   2.200  0.0981  0.3611  0.5217
19211TIP3    H179048   0.023   0.784   2.293 -0.2042  1.1652  0.7163
19211TIP3    H279049  -0.011   0.895   2.196 -1.3685 -0.0935 -0.3598
19212TIP3   OH279050   4.499   3.494  11.877 -0.7043  0.3768  0.6030
19212TIP3    H179051   4.490   3.483  11.783  0.8457  0.4468  0.4199
19212TIP3    H279052   4.438   3.564  11.899 -2.5492 -0.9745  0.0037
19213TIP3   OH279053   4.583   6.646   4.535 -0.6124  0.3411 -0.1254
19213TIP3    H179054   4.644   6.689   4.474 -1.1129  0.9001 -0.2379
19213TIP3    H279055   4.609   6.679   4.621  1.0941 -1.6102  0.1894
19214TIP3   OH279056   1.202   4.414  11.756 -0.0533 -0.0127  0.1849
19214TIP3    H179057   1.109   4.433  11.745  0.0773  1.3611  1.1797
19214TIP3    H279058   1.208   4.373  11.843  0.3797  0.9046  0.5986
19215TIP3   OH279059   1.048   5.637   2.058  0.7860  0.4073 -0.0176
19215TIP3    H179060   1.028   5.675   2.143 -0.1346 -0.8193  0.3524
19215TIP3    H279061   0.990   5.683   1.997  1.1760  1.0289  0.0763
19216TIP3   OH279062   2.327   2.975   4.056  0.4569  0.0382  0.1674
19216TIP3    H179063   2.304   3.018   3.973  2.4513 -0.6768 -0.8165
19216TIP3    H279064   2.336   3.047   4.118 -0.1619  0.6762 -0.4595
19217TIP3   OH279065   3.183   4.520  16.792  0.4646 -0.4259  0.6887
19217TIP3    H179066   3.102   4.488  16.753 -0.6728  0.1160  2.4822
19217TIP3    H279067   3.237   4.547  16.717 -1.6035  0.6044 -0.5100
19218TIP3   OH279068   1.942   5.349   4.020 -0.1301  0.0444  0.4021
19218TIP3    H179069   1.858   5.393   4.022 -1.4908 -2.3498  0.0537
19218TIP3    H279070   1.995   5.400   3.959 -1.5406  1.2615  0.1459
19219TIP3   OH279071   0.128   3.700  13.649 -0.6440 -0.3550  0.5333
19219TIP3    H179072   0.132   3.654  13.733 -0.0729  1.9542  1.8478
19219TIP3    H279073   0.220   3.716  13.626 -0.7430 -1.6909 -1.0375
19220TIP3   OH279074   6.285   2.169   3.349 -0.5460  0.4633 -0.0010
19220TIP3    H179075   6.236   2.240   3.391 -0.9890 -0.6174  1.3678
19220TIP3    H279076   6.299   2.105   3.419  0.2306 -0.6020 -1.1029
19221TIP3   OH279077   3.290   3.791   6.300 -0.3321 -0.3020 -0.5906
19221TIP3    H179078   3.237   3.727   6.348 -1.2945  0.1859 -0.9746
19221TIP3    H279079   3.304   3.862   6.362  0.8970 -0.9423 -0.1017
19222TIP3   OH279080   6.170   6.319  13.082  0.2606  0.4956  0.3427
19222TIP3    H179081   6.140   6.307  12.992 -0.8942  0.0596  0.7664
19222TIP3    H279082   6.248   6.263  13.089 -0.4680 -0.5896  0.0135
19223TIP3   OH279083   4.773   0.769  13.496  0.3145  0.1293 -0.3847
19223TIP3    H179084   4.845   0.712  13.468  0.2527 -0.2582  0.2268
19223TIP3    H279085   4.780   0.846  13.439  1.7223  0.4667  0.1890
19224TIP3   OH279086   5.083   4.359  11.265  0.0437  0.5461  0.2049
19224TIP3    H179087   5.143   4.291  11.298  0.6910  0.4338 -1.1261
19224TIP3    H279088   5.018   4.310  11.214  0.2127  0.8693 -0.3279
19225TIP3   OH279089   5.649   1.420  16.620 -0.3175 -0.2138 -0.3683
19225TIP3    H179090   5.663   1.424  16.714  1.1732 -1.5113 -0.4824
19225TIP3    H279091   5.556   1.398  16.610 -0.8674  1.4632  0.7203
19226TIP3   OH279092   4.646   0.597   1.772  0.1313 -0.1024  0.1843
19226TIP3    H179093   4.655   0.586   1.867 -2.2119 -0.0730  0.4765
19226TIP3    H279094   4.638   0.692   1.760 -0.3744 -0.1559  0.0675
19227TIP3   OH279095   6.686   0.832   2.798 -0.4432 -0.2796 -0.1405
19227TIP3    H179096   6.595   0.862   2.790 -1.0939 -2.4466 -2.4584
19227TIP3    H279097   6.686   0.774   2.874 -0.2329  1.8767  1.6018
19228TIP3   OH279098   6.760   1.721   2.043  0.1042 -0.0795  0.0552
19228TIP3    H179099   6.721   1.784   1.983 -0.8735 -1.2901 -0.6521
19228TIP3    H279100   6.716   1.737   2.127 -0.6061 -0.2064 -0.2794
19229TIP3   OH279101   0.160   0.126  16.713  0.1679 -0.5386  0.1446
19229TIP3    H179102   0.159   0.152  16.805  0.4838 -0.5513  0.1530
19229TIP3    H279103   0.229   0.060  16.707  0.0364 -0.6595 -0.0703
19230TIP3   OH279104   4.481   2.268   4.496 -0.1629 -0.6740  0.1576
19230TIP3    H179105   4.489   2.234   4.586 -2.3117  0.7891  0.9976
19230TIP3    H279106   4.386   2.269   4.480  0.1857 -1.0821 -2.2415
19231TIP3   OH279107   2.618   4.833   2.152  0.3509 -0.1495 -0.3270
19231TIP3    H179108   2.549   4.789   2.202 -1.3680  0.7427 -1.8066
19231TIP3    H279109   2.608   4.925   2.174  0.8809  0.0202 -0.7954
19232TIP3   OH279110   0.942   6.050  15.541 -0.0317  0.1547  0.0089
19232TIP3    H179111   0.859   6.029  15.497 -0.4637  0.1250  0.8285
19232TIP3    H279112   0.923   6.043  15.634  1.4080 -1.8835  0.2201
19233TIP3   OH279113   5.251   6.137   0.946  0.6001  0.0118 -0.3628
19233TIP3    H179114   5.275   6.161   1.036  0.3329  0.8346 -0.5002
19233TIP3    H279115   5.322   6.172   0.892  1.1531 -1.1556 -0.4199
19234TIP3   OH279116   1.593   3.426  13.475 -0.7858 -0.6427 -0.1181
19234TIP3    H179117   1.564   3.495  13.415 -1.3491  0.4934  1.3889
19234TIP3    H279118   1.513   3.399  13.520  0.1142  1.4844  3.0525
19235TIP3   OH279119   4.973   6.220  12.754 -0.5885 -0.0637 -0.3212
19235TIP3    H179120   4.881   6.191  12.758 -0.5278 -0.5282 -1.8276
19235TIP3    H279121   5.017   6.151  12.705  0.7967 -0.3461  1.2323
19236TIP3   OH279122   0.006   3.886  16.809  0.0027 -0.0043  0.2021
19236TIP3    H179123   0.054   3.803  16.808 -2.1620 -1.3720  0.4089
19236TIP3    H279124  -0.064   3.871  16.874 -2.0177  0.9824 -1.6118
19237TIP3   OH279125   0.079   5.268  11.333 -0.1064 -0.2802  0.0466
19237TIP3    H179126   0.053   5.319  11.410  1.3384 -0.5579  0.7606
19237TIP3    H279127   0.091   5.333  11.264 -1.4720 -0.0288  0.0180
19238TIP3   OH279128   3.525   3.494   1.377 -0.3502  0.0997  0.2701
19238TIP3    H179129   3.473   3.530   1.305  0.7325 -1.1979 -1.2572
19238TIP3    H279130   3.474   3.419   1.407 -0.2340 -0.0934 -0.0048
19239TIP3   OH279131   6.621   5.528  14.088 -0.2481  0.1876 -0.0231
19239TIP3    H179132   6.599   5.615  14.120  2.0066  0.9300 -0.3528
19239TIP3    H279133   6.538   5.493  14.055 -1.3173  1.9391  0.6924
19240TIP3   OH279134   0.898   0.272   0.220  0.2661 -0.1570  0.1383
19240TIP3    H179135   0.818   0.323   0.224  0.0522 -0.5056  0.3728
19240TIP3    H279136   0.968   0.336   0.237 -0.0915 -0.1702  1.8975
19241TIP3   OH279137   1.408   1.321  16.118  0.3933  0.0073  0.4904
19241TIP3    H179138   1.361   1.349  16.039  1.0904  0.2540  0.1630
19241TIP3    H279139   1.361   1.242  16.146  1.5996 -1.5604 -1.5824
19242TIP3   OH279140   1.321   6.594  11.384 -0.4885  0.9469  0.3480
19242TIP3    H179141   1.246   6.578  11.327  2.7932 -2.4300 -3.7326
19242TIP3    H279142   1.351   6.681  11.361 -1.0296  0.8537 -0.7872
19243TIP3   OH279143   2.489   0.431  12.716 -0.0826  0.3776 -0.0903
19243TIP3    H179144   2.494   0.336  12.706 -2.0815  0.3178 -0.9502
19243TIP3    H279145   2.528   0.466  12.636 -0.1996  0.2662 -0.1960
19244TIP3   OH279146   3.888   4.479   2.990  0.0421 -0.4599 -0.2160
19244TIP3    H179147   3.869   4.413   3.057  1.5132 -1.3128 -0.5970
19244TIP3    H279148   3.888   4.431   2.908  4.3461 -0.8157 -0.2400
19245TIP3   OH279149   1.677   5.923  16.196  0.1020  0.0774  0.4402
19245TIP3    H179150   1.604   5.902  16.254  0.5067 -1.1155  0.5375
19245TIP3    H279151   1.744   5.859  16.217  0.2672 -0.3721 -1.3244
19246TIP3   OH279152   0.562   6.314  16.478  0.4017 -0.2460  0.2183
19246TIP3    H179153   0.590   6.354  16.395 -0.3989 -0.8837 -0.3753
19246TIP3    H279154   0.622   6.240  16.490  0.0144 -0.6327 -0.2103
19247TIP3   OH279155   5.143   2.624   3.369 -0.0685  0.2558 -0.2634
19247TIP3    H179156   5.176   2.582   3.290  0.4579  1.1346 -0.5340
19247TIP3    H279157   5.128   2.552   3.430 -1.0157 -0.4933 -1.3344
19248TIP3   OH279158   0.090   3.158   4.499  0.6431 -0.2969  0.2559
19248TIP3    H179159   0.075   3.189   4.588  2.4993  0.4610  0.3516
19248TIP3    H279160   0.028   3.207   4.445 -1.6322 -1.9000  1.2355
19249TIP3   OH279161   4.129   4.392   1.526 -0.5072 -0.2085  0.0223
19249TIP3    H179162   4.150   4.483   1.546  0.8540  0.1122 -2.4502
19249TIP3    H279163   4.096   4.395   1.436  1.6764 -2.3532 -0.9637
19250TIP3   OH279164   5.987   0.591  13.763  1.3548  0.3742 -0.3506
19250TIP3    H179165   6.010   0.681  13.740  1.5703  0.6137  0.7679
19250TIP3    H279166   6.059   0.561  13.818  0.7448 -0.1059  0.2061
19251TIP3   OH279167   0.145   0.693  13.789  0.0374  0.2720  0.4091
19251TIP3    H179168   0.096   0.675  13.708 -0.6535 -2.1509  1.2880
19251TIP3    H279169   0.078   0.694  13.857  0.9691 -1.0825  1.3806
19252TIP3   OH279170   5.713   1.179   3.643  0.5070 -0.3495  0.1324
19252TIP3    H179171   5.802   1.154   3.666  0.9641 -0.1313 -1.2918
19252TIP3    H279172   5.722   1.267   3.605 -0.2678 -0.4575 -0.3246
19253TIP3   OH279173   1.982   5.872  14.751 -0.3740 -0.0481  0.1033
19253TIP3    H179174   1.955   5.834  14.835 -0.4710 -0.0491  0.0711
19253TIP3    H279175   1.948   5.812  14.685 -0.1040 -0.1660  0.0726
19254TIP3   OH279176   0.861   3.133  12.018 -0.5035  0.5171  0.9192
19254TIP3    H179177   0.812   3.081  12.082  1.6540 -0.7367  1.6588
19254TIP3    H279178   0.875   3.217  12.062 -1.3827  0.6455  0.9705
19255TIP3   OH279179   5.072   4.756  14.429  0.8941 -0.4342 -0.3822
19255TIP3    H179180   5.161   4.763  14.396  0.4880 -0.1838 -1.4591
19255TIP3    H279181   5.020   4.727  14.354 -0.1296  0.6211 -0.1182
19256TIP3   OH279182   1.068   4.165   2.369  0.1098  0.4797  0.0539
19256TIP3    H179183   1.163   4.165   2.379  0.3243  0.9813 -1.5889
19256TIP3    H279184   1.053   4.213   2.287 -1.6341  1.4723  0.8983
19257TIP3   OH279185   4.032   1.440  11.546 -0.3448  0.0762 -0.0144
19257TIP3    H179186   3.986   1.450  11.630  0.2855  0.5033  0.2872
19257TIP3    H279187   4.052   1.347  11.540  1.4041  0.3252  1.2852
19258TIP3   OH279188   4.103   0.572  14.972 -0.2684 -0.2718  0.4245
19258TIP3    H179189   4.146   0.571  14.887 -0.0516 -1.3802  0.5216
19258TIP3    H279190   4.156   0.513  15.026  0.2955  1.3485  1.6932
19259TIP3   OH279191   0.924   1.985  13.217 -0.1121  0.4590 -0.2230
19259TIP3    H179192   0.844   1.950  13.255 -0.6864  3.2619  1.4476
19259TIP3    H279193   0.895   2.061  13.167  1.4699  1.6353  0.5490
19260TIP3   OH279194   0.725   4.409   3.899 -0.2622 -0.7765 -0.2097
19260TIP3    H179195   0.683   4.464   3.965  1.3428 -0.6850  0.7927
19260TIP3    H279196   0.807   4.455   3.878  0.3662 -1.9910 -0.5163
19261TIP3   OH279197   1.457   4.487  12.651 -0.3709  0.0275  0.0120
19261TIP3    H179198   1.411   4.542  12.714 -0.2741  1.4705 -1.1304
19261TIP3    H279199   1.531   4.541  12.622  0.0422 -0.9175 -0.7369
19262TIP3   OH279200   6.273   1.132   2.968 -0.0880 -0.1682  0.5676
19262TIP3    H179201   6.321   1.191   3.026  0.0266 -0.4467  0.7618
19262TIP3    H279202   6.188   1.121   3.011 -0.4802  0.6393  0.0201
19263TIP3   OH279203   4.510   4.939   2.826 -0.3725  0.0873 -0.3968
19263TIP3    H179204   4.430   4.991   2.836 -0.4862  0.0053 -0.8812
19263TIP3    H279205   4.515   4.887   2.906 -1.6772 -1.1237 -1.0724
19264TIP3   OH279206   0.931   3.139  16.922  0.5292 -0.3117 -0.0962
19264TIP3    H179207   0.985   3.196  16.977 -0.4349 -0.5906  1.1889
19264TIP3    H279208   0.887   3.198  16.862  1.0325  0.0825 -0.0882
19265TIP3   OH279209   2.584   5.280   6.096  0.0356  0.3113 -0.3307
19265TIP3    H179210   2.605   5.188   6.109 -1.3539  0.0047 -0.1287
19265TIP3    H279211   2.560   5.312   6.182 -0.2466  0.6661 -0.5397
19266TIP3   OH279212   5.784   3.673  12.603 -0.0428 -0.4712  0.3979
19266TIP3    H179213   5.842   3.614  12.651  0.9571  0.3883  0.2921
19266TIP3    H279214   5.815   3.669  12.512  1.8201  2.1452  0.7924
19267TIP3   OH279215   2.455   0.407   0.044 -1.1299 -0.1283 -0.1146
19267TIP3    H179216   2.496   0.321   0.034 -3.2680 -0.9982 -2.7300
19267TIP3    H279217   2.398   0.398   0.120  1.9157  0.5238  2.4183
19268TIP3   OH279218   3.691   4.000   5.510  0.5577 -0.1167 -0.1922
19268TIP3    H179219   3.634   4.061   5.557  1.2445  0.2626  0.1805
19268TIP3    H279220   3.780   4.029   5.533  0.9229  0.1027 -1.7486
19269TIP3   OH279221   4.687   6.175  12.646 -0.2718 -0.6618  0.4830
19269TIP3    H179222   4.596   6.189  12.620  0.2808 -1.4627 -2.1894
19269TIP3    H279223   4.697   6.079  12.645  0.1040 -0.7114  2.8602
19270TIP3   OH279224   5.784   5.641   2.462  0.1537 -0.0790 -0.2055
19270TIP3    H179225   5.688   5.640   2.467  0.0643  0.8525 -1.3619
19270TIP3    H279226   5.803   5.665   2.372  1.4783  0.2784  0.1477
19271TIP3   OH279227   4.640   2.635  15.636 -0.1442  0.5656  0.0443
19271TIP3    H179228   4.574   2.567  15.653 -0.3283  0.7671  0.1434
19271TIP3    H279229   4.629   2.656  15.543 -2.7804  3.2283  0.8118
19272TIP3   OH279230   4.499   4.889  13.327  0.1758 -0.0279 -0.3576
19272TIP3    H179231   4.550   4.877  13.247  0.9484 -0.8460  0.2424
19272TIP3    H279232   4.408   4.874  13.299  0.4285 -0.2724 -1.0897
19273TIP3   OH279233   3.376   6.059  13.794 -0.5901 -0.2473  0.5007
19273TIP3    H179234   3.460   6.068  13.838 -1.3014 -1.8479  2.3346
19273TIP3    H279235   3.314   6.106  13.851 -0.8841  1.7173 -1.2934
19274TIP3   OH279236   0.945   5.811  16.587  0.0910 -0.3551  0.2900
19274TIP3    H179237   1.037   5.831  16.569  0.2972 -3.0177 -2.3180
19274TIP3    H279238   0.900   5.823  16.503 -1.4490 -1.5513  0.8799
19275TIP3   OH279239   0.154   3.643   5.165  0.3155 -0.1358  0.1040
19275TIP3    H179240   0.198   3.593   5.234 -0.0759  0.1922  0.6015
19275TIP3    H279241   0.161   3.588   5.087  2.3928  0.2946 -0.0696
19276TIP3   OH279242   2.757   0.846  14.551 -0.5398 -0.4718 -0.1829
19276TIP3    H179243   2.802   0.929  14.540 -0.0694 -0.6833  0.1393
19276TIP3    H279244   2.808   0.798  14.616 -1.6857 -0.3815  0.8360
19277TIP3   OH279245   2.279   1.236   3.846 -0.0498 -0.8854 -0.0532
19277TIP3    H179246   2.196   1.204   3.881  0.2868 -0.9694  0.6869
19277TIP3    H279247   2.259   1.260   3.756 -1.2558  0.5274  0.5459
19278TIP3   OH279248   3.829   3.558  14.794 -0.0763 -0.0459 -0.4309
19278TIP3    H179249   3.765   3.515  14.737  0.9686  0.5393 -2.1097
19278TIP3    H279250   3.789   3.642  14.816 -0.1489  0.0670 -0.9844
19279TIP3   OH279251   5.777   4.196  14.211  0.1204  0.0369  0.8984
19279TIP3    H179252   5.752   4.288  14.203  0.7145  0.0755 -0.8654
19279TIP3    H279253   5.825   4.191  14.294  1.1506  1.5960  0.4422
19280TIP3   OH279254   0.330   5.156   2.621 -0.3595 -0.7736 -0.2196
19280TIP3    H179255   0.351   5.152   2.715 -3.9594 -2.2681  0.6842
19280TIP3    H279256   0.273   5.233   2.613  1.0273  0.1593 -1.5060
19281TIP3   OH279257   4.654   3.975  12.352  0.8507  0.1109  0.1514
19281TIP3    H179258   4.722   3.960  12.418 -1.3988  0.6087  2.7521
19281TIP3    H279259   4.607   3.891  12.346 -0.1846  0.6233  0.7462
19282TIP3   OH279260   1.474   0.687  12.132 -0.3693 -0.0668 -0.6059
19282TIP3    H179261   1.484   0.768  12.082 -0.5270  0.6182  0.4453
19282TIP3    H279262   1.422   0.713  12.209  1.9791 -0.5047  1.2470
19283TIP3   OH279263   2.157   0.089  12.195  0.0162 -0.3566 -0.0663
19283TIP3    H179264   2.196   0.006  12.222  1.1115  0.0839 -0.2762
19283TIP3    H279265   2.147   0.081  12.100  1.1620  0.1753 -0.2399
19284TIP3   OH279266   4.280   5.101  16.980 -0.0661  0.1741 -0.0445
19284TIP3    H179267   4.282   5.013  16.941  0.0255  0.3755 -0.4944
19284TIP3    H279268   4.348   5.098  17.048  1.8850  0.7129 -1.8569
19285TIP3   OH279269   0.747   0.480   2.451  0.4472  0.0246  0.3695
19285TIP3    H179270   0.737   0.575   2.456 -2.6034 -0.1258 -1.0461
19285TIP3    H279271   0.717   0.456   2.364  1.0280 -2.2695  0.7209
19286TIP3   OH279272   2.978   4.389  12.771 -0.2041  0.8036  0.4298
19286TIP3    H179273   3.015   4.367  12.685 -1.2372 -0.6770  0.3176
19286TIP3    H279274   3.042   4.358  12.834 -0.2651  0.2187  0.2094
19287TIP3   OH279275   4.958   3.767   3.290  0.4732 -0.1240 -0.6034
19287TIP3    H179276   4.968   3.701   3.222 -0.0057  0.2204 -1.0119
19287TIP3    H279277   5.008   3.732   3.364  1.7444 -0.0787 -1.4132
19288TIP3   OH279278   0.574   1.828  16.729 -0.0188  0.0692 -0.2386
19288TIP3    H179279   0.564   1.761  16.661  0.1511  1.3694 -1.6163
19288TIP3    H279280   0.643   1.795  16.786 -0.6190 -1.3669 -0.3054
19289TIP3   OH279281   0.317   1.451  13.166  0.4442  0.2248 -0.3079
19289TIP3    H179282   0.352   1.410  13.086  0.9550 -1.7280  0.8461
19289TIP3    H279283   0.291   1.377  13.221 -1.2160  1.5538  0.7822
19290TIP3   OH279284   0.288   1.258   3.614  0.1288 -0.0487  0.1927
19290TIP3    H179285   0.199   1.222   3.621 -0.4835  1.4298  0.2020
19290TIP3    H279286   0.341   1.199   3.667 -0.9398 -0.6286  0.6498
19291TIP3   OH279287   4.478   2.672  15.057  0.6240 -0.1875  0.3825
19291TIP3    H179288   4.410   2.669  15.124  1.0636 -0.3882  0.8300
19291TIP3    H279289   4.498   2.765  15.045 -1.0406  0.0345 -1.1217
19292TIP3   OH279290   5.908   2.112   2.005 -0.1137 -0.3063  0.0274
19292TIP3    H179291   5.939   2.200   1.984  2.4730 -1.4026 -1.2035
19292TIP3    H279292   5.901   2.068   1.920 -2.5727 -0.9701  0.5170
19293TIP3   OH279293   4.787   2.680  13.767 -1.1748  0.0489 -0.1636
19293TIP3    H179294   4.772   2.711  13.856  0.2072  1.1528 -0.2799
19293TIP3    H279295   4.700   2.683  13.725 -1.6895  0.2882  0.8965
19294TIP3   OH279296   2.829   2.067  13.131 -0.2732  0.6591  0.1775
19294TIP3    H179297   2.904   2.054  13.189 -0.2885 -0.4356 -0.0213
19294TIP3    H279298   2.846   2.008  13.057 -0.4615  1.7231 -0.7321
19295TIP3   OH279299   0.925   1.867   2.341 -0.7792 -0.4398 -0.0126
19295TIP3    H179300   0.901   1.786   2.385 -0.1608 -0.3308  0.5395
19295TIP3    H279301   0.960   1.839   2.256  1.0315 -0.9084  0.8257
19296TIP3   OH279302   1.289   0.706  13.469 -0.5527  0.5245  0.0268
19296TIP3    H179303   1.269   0.615  13.491  3.1500 -0.1740  1.1894
19296TIP3    H279304   1.301   0.705  13.374 -2.2022  0.2497 -0.2140
19297TIP3   OH279305   1.678   2.129  15.119  0.4838 -0.2701 -0.3246
19297TIP3    H179306   1.754   2.116  15.175  2.0977 -0.4090 -2.3988
19297TIP3    H279307   1.649   2.218  15.138 -0.4421 -1.0412  2.2572
19298TIP3   OH279308   0.023   2.030  16.504 -0.1809  0.5047  0.3329
19298TIP3    H179309  -0.069   2.049  16.485  0.2780  1.1724 -1.4702
19298TIP3    H279310   0.070   2.105  16.467  1.1921 -0.7045 -0.4607
19299TIP3   OH279311   0.438   6.125  13.698 -0.5015  0.0729 -0.4178
19299TIP3    H179312   0.445   6.072  13.777  0.0364  0.8745  0.0858
19299TIP3    H279313   0.360   6.180  13.712  0.8135  1.7938  0.5704
19300TIP3   OH279314   0.555   5.741  14.110 -0.1659 -0.0136  0.1386
19300TIP3    H179315   0.576   5.727  14.018  1.3841  1.1779  0.2615
19300TIP3    H279316   0.477   5.796  14.109 -0.9820 -1.1435 -0.4190
19301TIP3   OH279317   4.574   1.111  16.435  0.5917  0.0104  0.1341
19301TIP3    H179318   4.553   1.121  16.342 -0.0433 -0.6583  0.2021
19301TIP3    H279319   4.638   1.180  16.452 -1.4843  2.0958 -0.0973
19302TIP3   OH279320   5.851   6.774  16.289  0.3999  0.5180  0.6302
19302TIP3    H179321   5.757   6.774  16.308  0.6974 -0.5578  2.3693
19302TIP3    H279322   5.859   6.822  16.207 -1.8339 -0.7087 -0.4044
19303TIP3   OH279323   6.571   3.010  12.409  0.2322 -0.5179  0.1236
19303TIP3    H179324   6.620   2.977  12.484  0.1036 -0.3887  0.2629
19303TIP3    H279325   6.635   3.057  12.356  0.1599  0.0591  0.5462
19304TIP3   OH279326   3.949   4.295   4.389 -0.2429  0.1951 -0.0007
19304TIP3    H179327   3.901   4.290   4.307 -1.1645 -0.4358  0.5552
19304TIP3    H279328   4.027   4.347   4.369  0.3824 -1.3059 -1.6578
19305TIP3   OH279329   1.281   1.999   4.047 -0.1265  0.1073  0.1824
19305TIP3    H179330   1.238   2.064   3.991  1.0468  0.0552 -0.8043
19305TIP3    H279331   1.213   1.972   4.109 -1.6239 -0.2261 -1.5463
19306TIP3   OH279332   2.469   4.603   0.089  0.1675  0.2374 -0.0839
19306TIP3    H179333   2.556   4.578   0.058  0.0618 -0.6391  0.2752
19306TIP3    H279334   2.434   4.522   0.127  0.4390  1.3027  2.6541
19307TIP3   OH279335   3.217   3.382  14.647 -0.5062  0.0966 -0.2626
19307TIP3    H179336   3.139   3.435  14.664  0.7361  2.0371 -0.2924
19307TIP3    H279337   3.208   3.306  14.704 -1.2658  1.4986  1.5704
19308TIP3   OH279338   3.112   4.720  14.083  0.1995  0.6361  0.1641
19308TIP3    H179339   3.042   4.672  14.127  1.2745 -1.3952 -0.1882
19308TIP3    H279340   3.168   4.751  14.153 -0.1520  0.7923  0.3779
19309TIP3   OH279341   5.997   5.773  14.439 -0.1202  0.2292  0.4292
19309TIP3    H179342   5.986   5.693  14.387  0.6892  0.4455 -0.0934
19309TIP3    H279343   5.972   5.747  14.528  1.3762 -0.9798  0.5433
19310TIP3   OH279344   2.940   3.198  16.398 -0.2538  1.0189 -0.3719
19310TIP3    H179345   2.906   3.286  16.413 -1.7515  0.7480 -1.8566
19310TIP3    H279346   2.982   3.203  16.312 -1.3460  0.0492 -0.9945
19311TIP3   OH279347   4.272   5.702   0.509 -0.1044  0.4818  0.2617
19311TIP3    H179348   4.358   5.743   0.513 -0.5877  1.6960 -1.0428
19311TIP3    H279349   4.274   5.649   0.430 -0.3255 -0.0265  0.5949
19312TIP3   OH279350   3.890   0.370   3.119  0.5462 -0.0183  0.4255
19312TIP3    H179351   3.958   0.304   3.133  2.1036  1.6912  1.3640
19312TIP3    H279352   3.910   0.439   3.183 -0.3180  1.8974 -1.2550
19313TIP3   OH279353   5.306   1.202   1.326  0.4730  0.3577 -0.2891
19313TIP3    H179354   5.247   1.152   1.270  1.4752 -1.3854  0.1415
19313TIP3    H279355   5.393   1.175   1.299  1.1207  2.4181 -0.4828
19314TIP3   OH279356   0.812   1.134  11.947 -0.1004 -0.5513 -0.0816
19314TIP3    H179357   0.737   1.194  11.950 -0.7316 -1.3742  1.6880
19314TIP3    H279358   0.887   1.188  11.971 -0.4363 -0.1457  0.0701
19315TIP3   OH279359   5.986   0.943  14.684  0.1822  0.1763 -0.3240
19315TIP3    H179360   5.899   0.946  14.644 -0.1954  0.6881  0.4942
19315TIP3    H279361   6.040   1.001  14.631  0.2000 -0.6176 -1.2027
19316TIP3   OH279362   3.678   4.511   2.761 -0.4953 -0.0735 -0.0051
19316TIP3    H179363   3.666   4.469   2.846 -0.8200 -0.9027 -0.4411
19316TIP3    H279364   3.667   4.604   2.777 -1.1861 -0.2830  0.7479
19317TIP3   OH279365   2.107   0.910   1.740 -0.0960  0.4203 -0.2849
19317TIP3    H179366   2.035   0.877   1.687 -0.2224  0.5459 -0.1915
19317TIP3    H279367   2.065   0.948   1.817  0.1537 -1.0072  0.6024
19318TIP3   OH279368   1.660   1.047  13.749  0.1134 -0.3857  0.0716
19318TIP3    H179369   1.641   1.055  13.656  0.6730  0.1684 -0.0020
19318TIP3    H279370   1.697   1.132  13.773 -0.7371 -0.2542  0.9675
19319TIP3   OH279371   3.611   2.595  12.938  0.0069  0.0881 -0.4452
19319TIP3    H179372   3.652   2.524  12.889  1.3396 -0.1378  0.9380
19319TIP3    H279373   3.527   2.559  12.966 -0.1613 -0.2571 -1.3623
19320TIP3   OH279374   2.772   3.196  11.802 -0.2882  0.5588  0.3414
19320TIP3    H179375   2.740   3.217  11.715 -0.3381  0.3548  0.3092
19320TIP3    H279376   2.855   3.243  11.809  0.7616 -1.0331 -0.6057
19321TIP3   OH279377   5.476   1.101   1.974  0.3077  0.3284 -0.0330
19321TIP3    H179378   5.403   1.055   1.933  0.4962  0.7926 -0.8929
19321TIP3    H279379   5.549   1.039   1.968 -0.0557 -0.2237  1.0262
19322TIP3   OH279380   0.588   0.828   4.203 -0.0114  0.2374  0.1268
19322TIP3    H179381   0.660   0.766   4.199 -0.3021 -0.2342  1.5543
19322TIP3    H279382   0.617   0.903   4.150  1.2646 -0.1815  0.2079
19323TIP3   OH279383   2.848   2.813   4.645  0.2034  0.6933  0.4107
19323TIP3    H179384   2.757   2.818   4.674 -0.4425  2.4614 -1.6447
19323TIP3    H279385   2.871   2.903   4.624  1.4858 -0.0534 -1.7144
19324TIP3   OH279386   5.058   3.182  13.427 -0.0346  0.0457  0.2676
19324TIP3    H179387   5.075   3.257  13.370 -2.3912  1.2132  1.0071
19324TIP3    H279388   4.992   3.212  13.488  0.5246 -1.9946  2.0076
19325TIP3   OH279389   4.416   0.963  13.438 -0.0580  0.2488 -0.2166
19325TIP3    H179390   4.331   0.950  13.394 -0.6744  1.2135  0.6612
19325TIP3    H279391   4.445   1.049  13.409 -0.6570  1.0727  1.5165
19326TIP3   OH279392   6.633   2.156  12.752  0.5076  0.2732 -0.2102
19326TIP3    H179393   6.594   2.192  12.832 -0.5196 -0.0480 -0.5532
19326TIP3    H279394   6.664   2.233  12.703 -0.4701  0.6020 -0.3203
19327TIP3   OH279395   3.324   5.789   5.979  0.2468 -0.1581 -0.8308
19327TIP3    H179396   3.281   5.740   6.048  1.5080 -0.8513 -0.5002
19327TIP3    H279397   3.404   5.739   5.960 -0.0290  0.0491 -2.7383
19328TIP3   OH279398   5.800   4.271   1.663  0.2796  0.7697  0.2429
19328TIP3    H179399   5.802   4.243   1.754  2.0914 -0.1710 -0.0389
19328TIP3    H279400   5.877   4.230   1.623 -0.5951  0.9589 -1.7773
19329TIP3   OH279401   5.495   1.607   1.560  0.3621  0.0077 -0.6499
19329TIP3    H179402   5.451   1.554   1.494  0.7136  0.3984 -1.2112
19329TIP3    H279403   5.510   1.692   1.517 -0.0266  0.5048  0.1699
19330TIP3   OH279404   2.497   0.146  12.656  0.4190  0.4574 -0.1749
19330TIP3    H179405   2.564   0.145  12.725  0.6267  0.3519 -0.3737
19330TIP3    H279406   2.534   0.090  12.587 -1.0031 -1.7319  0.7565
19331TIP3   OH279407   6.301   6.112  16.366 -0.4805  0.4396 -0.4331
19331TIP3    H179408   6.269   6.144  16.281 -0.5274  0.8413 -0.2656
19331TIP3    H279409   6.351   6.033  16.344  0.0438  0.8938 -0.9013
19332TIP3   OH279410   5.425   6.661  10.488  0.0408  0.1208 -0.1500
19332TIP3    H179411   5.336   6.665  10.452 -0.0648 -2.8940 -0.4965
19332TIP3    H279412   5.448   6.752  10.504 -2.6882  1.0899 -1.0657
19333TIP3   OH279413   6.558   5.406   2.611  0.0280 -0.1421 -0.0652
19333TIP3    H179414   6.528   5.400   2.702 -0.5126  0.9359 -0.1558
19333TIP3    H279415   6.653   5.413   2.617  0.0206 -0.4076  0.3993
19334TIP3   OH279416   2.276   4.507  12.250  0.2867  0.0011 -0.7754
19334TIP3    H179417   2.200   4.507  12.308 -0.5348  0.0686 -1.8213
19334TIP3    H279418   2.239   4.505  12.162  1.4772  1.4041 -1.3479
19335TIP3   OH279419   6.073   6.020   5.609 -0.3994  0.5274  0.9606
19335TIP3    H179420   6.119   6.012   5.693 -0.0172 -1.3407  0.6169
19335TIP3    H279421   6.121   5.962   5.550 -0.4168  2.1006 -0.6959
19336TIP3   OH279422   2.385   5.340   5.714  0.4163  0.8587 -0.0979
19336TIP3    H179423   2.449   5.280   5.751  1.6193  0.6634 -2.3395
19336TIP3    H279424   2.308   5.286   5.695 -0.0207  0.8630  1.4906
19337TIP3   OH279425   6.062   4.732  17.195  0.0413 -0.4443 -0.2298
19337TIP3    H179426   6.069   4.657  17.136 -0.3611 -0.8897  0.2812
19337TIP3    H279427   5.970   4.733  17.223  0.1751 -0.1035  0.2166
19338TIP3   OH279428   1.575   6.023   6.072  1.0255 -0.4020  0.2344
19338TIP3    H179429   1.522   6.079   6.129 -0.1008 -1.8905  0.7105
19338TIP3    H279430   1.539   5.935   6.085  0.3681 -0.7542 -3.1618
19339TIP3   OH279431   3.259   3.462  15.098 -0.2519  1.1855 -0.0554
19339TIP3    H179432   3.302   3.389  15.141 -0.3086  0.1944 -1.6057
19339TIP3    H279433   3.319   3.536  15.108 -1.2260  1.7185  3.6568
19340TIP3   OH279434   5.561   6.489  12.633  0.0860  0.2101 -0.0069
19340TIP3    H179435   5.601   6.567  12.595 -0.5235  0.1118 -0.8733
19340TIP3    H279436   5.635   6.438  12.665  0.5704  0.6140 -0.4533
19341TIP3   OH279437   5.203   5.009   4.491  0.0716 -0.1458  0.5911
19341TIP3    H179438   5.150   4.987   4.414 -2.1856  1.7354  1.4711
19341TIP3    H279439   5.178   4.944   4.557  2.0353 -1.7823 -0.1565
19342TIP3   OH279440   1.226   5.455   2.861  0.0385 -0.4956  0.3523
19342TIP3    H179441   1.169   5.393   2.907 -2.2986  1.6274  0.5364
19342TIP3    H279442   1.198   5.450   2.769 -0.7797  0.8249  0.5025
19343TIP3   OH279443   5.858   5.460   1.694  0.6033 -0.6136  0.2297
19343TIP3    H179444   5.817   5.438   1.611 -0.1169  0.5565  0.2492
19343TIP3    H279445   5.863   5.377   1.742 -1.2211 -0.8976 -0.0100
19344TIP3   OH279446   0.413   2.901  12.545  0.2241  0.7306 -0.1756
19344TIP3    H179447   0.374   2.861  12.622  0.5499 -1.5113 -1.1215
19344TIP3    H279448   0.341   2.949  12.503 -1.3891 -2.4000 -1.2926
19345TIP3   OH279449   5.627   1.493  13.927  0.1990  0.1567  0.0591
19345TIP3    H179450   5.664   1.563  13.980 -0.1015 -0.0711  0.5691
19345TIP3    H279451   5.535   1.488  13.953  0.0537  0.0281 -0.4654
19346TIP3   OH279452   6.730   1.791  15.898 -0.2057  0.4118 -0.2443
19346TIP3    H179453   6.638   1.765  15.906 -0.0707  0.5362  2.7865
19346TIP3    H279454   6.778   1.722  15.944  1.3882 -0.0557 -2.4218
19347TIP3   OH279455   0.360   5.710  13.480  0.0585  1.1212  0.0183
19347TIP3    H179456   0.396   5.739  13.396 -2.1974  0.4858 -1.2745
19347TIP3    H279457   0.435   5.675  13.528  1.1151 -0.5514 -2.6382
19348TIP3   OH279458   0.344   5.640  13.897 -0.0940  0.2935  0.2640
19348TIP3    H179459   0.307   5.721  13.933 -1.4607  0.0020 -0.4223
19348TIP3    H279460   0.428   5.667  13.859 -1.3677  1.8389 -1.6842
19349TIP3   OH279461   5.767   4.760   5.199  0.0862  0.1976  0.6684
19349TIP3    H179462   5.811   4.768   5.284  2.7441  0.0604 -0.6035
19349TIP3    H279463   5.728   4.846   5.185 -0.2378  0.2800  1.9115
19350TIP3   OH279464   3.505   4.060   4.115 -0.4505 -0.0103  0.1591
19350TIP3    H179465   3.504   3.966   4.129 -2.9322  0.2562  2.5326
19350TIP3    H279466   3.450   4.074   4.038 -1.3444 -0.4176  0.7163
19351TIP3   OH279467   3.178   4.830   5.212 -0.2819  0.1245 -0.7754
19351TIP3    H179468   3.220   4.745   5.198  1.8242  0.6563  1.4402
19351TIP3    H279469   3.152   4.828   5.304  0.3976  2.0483 -0.4869
19352TIP3   OH279470   2.267   5.188   5.486  0.0507  0.6765  0.3255
19352TIP3    H179471   2.234   5.275   5.463  0.2557  0.5848 -0.3387
19352TIP3    H279472   2.318   5.161   5.409 -0.6417 -0.3523  0.2007
19353TIP3   OH279473   0.707   1.023  14.393  0.3961 -0.2106 -0.0536
19353TIP3    H179474   0.785   1.043  14.341 -0.1793  0.2803 -0.7460
19353TIP3    H279475   0.741   0.980  14.472  1.2690 -1.1070 -0.8942
19354TIP3   OH279476   2.317   2.595  16.847  0.6458 -0.1695 -0.3870
19354TIP3    H179477   2.307   2.687  16.820 -0.3876 -0.1643 -0.0329
19354TIP3    H279478   2.347   2.600  16.937  1.1988 -0.1833 -0.5694
19355TIP3   OH279479   6.750   5.805  12.646 -0.0247  0.1067  0.2474
19355TIP3    H179480   6.842   5.781  12.656  0.0521  0.7878  1.3538
19355TIP3    H279481   6.736   5.806  12.551 -0.0480 -4.1002  0.0401
19356TIP3   OH279482   3.899   4.970  11.563 -0.1512 -0.1962 -0.0957
19356TIP3    H179483   3.932   5.044  11.613  2.3111 -2.0953  1.2925
19356TIP3    H279484   3.838   4.926  11.623  0.4068 -0.7316  0.0883
19357TIP3   OH279485   3.390   6.416   4.978  0.2298  0.0666 -0.2819
19357TIP3    H179486   3.414   6.344   4.919 -2.6379  1.2930 -3.2342
19357TIP3    H279487   3.455   6.484   4.960  1.6826 -0.9146  0.9653
19358TIP3   OH279488   1.483   4.318  15.361  0.1071  0.0075  0.3852
19358TIP3    H179489   1.391   4.325  15.388  0.4031  2.0486  1.0038
19358TIP3    H279490   1.480   4.314  15.266 -0.6222  0.2575  0.3938
19359TIP3   OH279491   1.072   1.237   1.886 -0.5494  0.1075  0.0812
19359TIP3    H179492   0.997   1.286   1.919  0.5842  1.6541  0.4970
19359TIP3    H279493   1.106   1.289   1.813  0.8943  0.1684  0.7520
19360TIP3   OH279494   4.698   6.078  13.695  0.2254 -0.3736  0.2527
19360TIP3    H179495   4.644   6.001  13.715  0.7597 -0.9595 -0.4775
19360TIP3    H279496   4.685   6.092  13.601  2.3922 -1.3921 -0.2571
19361TIP3   OH279497   1.069   2.202  14.604  0.1963  0.3307  0.1916
19361TIP3    H179498   1.119   2.211  14.522  0.8510  1.7105  0.7169
19361TIP3    H279499   1.085   2.283  14.651 -1.9576  0.4996  0.7418
19362TIP3   OH279500   0.920   5.723  13.968 -0.8620 -0.2711 -0.0258
19362TIP3    H179501   0.851   5.665  13.999 -0.8768 -0.2567 -0.0319
19362TIP3    H279502   0.876   5.806  13.951 -0.6013  0.1585  1.3015
19363TIP3   OH279503   2.207   5.562  12.840  1.1079 -0.0177 -0.1699
19363TIP3    H179504   2.271   5.604  12.783  1.6799  0.5110  0.8415
19363TIP3    H279505   2.166   5.633  12.888  0.0704 -0.3930 -0.4688
19364TIP3   OH279506   6.215   2.657   0.616 -0.0811  0.2915  0.2841
19364TIP3    H179507   6.291   2.696   0.572  1.4914 -2.0920  0.6717
19364TIP3    H279508   6.166   2.615   0.546 -1.9609  3.0390 -0.1833
19365TIP3   OH279509   2.342   6.078   5.773 -0.1610  0.6205 -0.2960
19365TIP3    H179510   2.301   6.096   5.857  1.9969  1.0880  0.7206
19365TIP3    H279511   2.317   6.151   5.717 -2.1305 -0.0077 -0.3222
19366TIP3   OH279512   4.968   0.019   4.830  0.1349 -0.1680  0.0993
19366TIP3    H179513   4.924  -0.061   4.801 -0.6399  0.0587  0.6499
19366TIP3    H279514   5.015   0.049   4.752 -0.5471 -0.5003 -0.4475
19367TIP3   OH279515   3.714   3.767   1.762  0.2840  0.0853  0.4212
19367TIP3    H179516   3.710   3.833   1.831 -1.9319 -0.9416  1.3841
19367TIP3    H279517   3.806   3.765   1.737  0.2819  4.6654 -0.8845
19368TIP3   OH279518   3.495   5.685  16.872  0.2141 -0.2044  0.3594
19368TIP3    H179519   3.511   5.620  16.941 -0.5026 -0.4379  0.3170
19368TIP3    H279520   3.453   5.758  16.918  0.4695 -0.0235  0.3048
19369TIP3   OH279521   0.124   1.616   1.768  0.2258  0.2544 -0.1752
19369TIP3    H179522   0.163   1.692   1.811 -0.2788  0.6734 -0.4544
19369TIP3    H279523   0.103   1.646   1.679  1.4089 -0.6423 -0.7996
19370TIP3   OH279524   5.523   4.995  13.588 -0.3060  0.4660  0.1715
19370TIP3    H179525   5.561   4.948  13.513  0.8033  1.1016  0.3156
19370TIP3    H279526   5.448   4.941  13.614  0.3470 -0.7074 -0.2849
19371TIP3   OH279527   3.037   3.571   0.128  0.2853 -0.4293  0.5462
19371TIP3    H179528   3.090   3.591   0.205  0.3936 -2.3263  1.0333
19371TIP3    H279529   3.090   3.601   0.054  1.3986 -0.9488  1.1064
19372TIP3   OH279530   4.457   0.480   3.230  0.7566  0.2481 -0.0892
19372TIP3    H179531   4.546   0.450   3.212  0.5395 -0.2945 -0.2722
19372TIP3    H279532   4.429   0.428   3.305  0.1528 -0.4728 -0.7973
19373TIP3   OH279533   2.336   5.566  11.284 -0.4009  0.1499 -0.4336
19373TIP3    H179534   2.383   5.581  11.366 -0.0530 -1.8438 -0.2104
19373TIP3    H279535   2.404   5.539  11.222 -1.0091 -1.1021 -0.5815
19374TIP3   OH279536   5.700   6.221   1.264 -0.5007  0.3446 -0.4525
19374TIP3    H179537   5.762   6.151   1.243  1.1386  0.4448  3.3212
19374TIP3    H279538   5.736   6.298   1.220 -0.9243 -0.5938 -2.5678
19375TIP3   OH279539   2.249   4.380   3.809  0.6173 -0.3450  0.1620
19375TIP3    H179540   2.166   4.355   3.769  0.0789 -1.0766  1.6511
19375TIP3    H279541   2.240   4.474   3.826  0.6435 -0.1402 -0.8724
19376TIP3   OH279542   4.032   3.998  14.367 -0.1055 -0.8189 -0.5778
19376TIP3    H179543   4.125   3.992  14.344 -0.6017 -0.6879 -2.7966
19376TIP3    H279544   4.000   3.908  14.359 -0.7120 -0.4779 -2.5310
19377TIP3   OH279545   4.403   1.846   1.529  0.0196  0.6442  0.0311
19377TIP3    H179546   4.343   1.773   1.540  1.4375 -0.7705 -1.0713
19377TIP3    H279547   4.440   1.861   1.616  1.2172 -1.3862 -0.0546
19378TIP3   OH279548   0.903   3.820  11.559  0.4425  0.2667 -0.3258
19378TIP3    H179549   0.900   3.840  11.466 -0.3206 -1.6488 -0.7777
19378TIP3    H279550   0.956   3.740  11.564 -0.3156 -0.1978  0.7381
19379TIP3   OH279551   1.168   0.503  13.976  0.3185  0.0753  0.0882
19379TIP3    H179552   1.182   0.575  13.914  0.5950  0.0297  0.0988
19379TIP3    H279553   1.072   0.497  13.984  0.2811  0.0585 -0.3566
19380TIP3   OH279554   4.271   5.929   2.142  0.3082 -0.1264  0.6772
19380TIP3    H179555   4.315   5.985   2.206 -0.8585  2.3899 -0.5582
19380TIP3    H279556   4.314   5.949   2.059 -0.2562 -0.9538  0.1695
19381TIP3   OH279557   4.632   0.843   4.526 -0.0846 -0.4311  0.3780
19381TIP3    H179558   4.614   0.759   4.484  1.2807 -0.3346 -0.4407
19381TIP3    H279559   4.618   0.908   4.457 -1.3228  0.0704  1.0542
19382TIP3   OH279560   3.594   3.668   5.330 -0.1188  0.9367 -0.6336
19382TIP3    H179561   3.588   3.761   5.308  0.5214  1.1868  0.2393
19382TIP3    H279562   3.580   3.623   5.246  0.5744  1.8409 -1.2510
19383TIP3   OH279563   5.548   3.931   5.001  0.0374  0.2272  0.3686
19383TIP3    H179564   5.478   3.995   4.992  0.7813  1.0166  0.0577
19383TIP3    H279565   5.503   3.846   5.004 -0.9615  0.7555  0.8089
19384TIP3   OH279566   5.944   2.020  16.754  0.8315  0.4232 -0.6613
19384TIP3    H179567   5.881   2.072  16.804  0.4441 -1.6188  1.0986
19384TIP3    H279568   5.964   1.945  16.810  3.4724  0.0554 -1.9310
19385TIP3   OH279569   1.891   1.648   0.442 -0.0222  0.3562 -0.1821
19385TIP3    H179570   1.865   1.574   0.496  1.0852  0.6532  0.8005
19385TIP3    H279571   1.809   1.684   0.409 -0.6218 -0.8187 -0.0460
19386TIP3   OH279572   0.256   3.211   0.237 -0.1786 -0.4540  0.0762
19386TIP3    H179573   0.249   3.220   0.332  2.2664 -2.8183  0.5892
19386TIP3    H279574   0.291   3.295   0.207  1.1455 -0.4210  1.5926
19387TIP3   OH279575   4.651   5.357  12.881  0.1449  0.2740  0.3968
19387TIP3    H179576   4.640   5.421  12.951 -2.9087  1.0317 -0.6297
19387TIP3    H279577   4.720   5.393  12.826 -0.0494  1.6196  0.9934
19388TIP3   OH279578   5.294   4.420   3.125 -0.1347  0.2142 -0.3713
19388TIP3    H179579   5.259   4.483   3.062 -0.1320  1.0700  0.4562
19388TIP3    H279580   5.299   4.337   3.077 -0.0277  0.8732 -1.5166
19389TIP3   OH279581   6.003   4.616   1.514  0.0217  0.4545 -0.7217
19389TIP3    H179582   6.004   4.569   1.430  0.4636 -0.5194 -0.1855
19389TIP3    H279583   6.095   4.636   1.531 -0.1145  1.0729 -0.6881
19390TIP3   OH279584   0.682   1.388   3.789 -0.2778  0.2319 -0.2343
19390TIP3    H179585   0.674   1.332   3.712  0.6988  0.6677 -0.6563
19390TIP3    H279586   0.766   1.364   3.828 -1.5798 -1.3574  1.8188
19391TIP3   OH279587   1.316   1.608  12.296 -0.0394 -0.2706 -0.5602
19391TIP3    H179588   1.341   1.596  12.387 -1.1612  0.6258 -0.1080
19391TIP3    H279589   1.376   1.676  12.264 -0.3788  0.2301 -0.1531
19392TIP3   OH279590   0.446   0.060   3.077  0.8756 -0.1816 -0.2511
19392TIP3    H179591   0.429   0.042   3.169 -0.8779 -0.6215 -0.6213
19392TIP3    H279592   0.441   0.156   3.070  0.1456 -0.1950 -0.0222
19393TIP3   OH279593   5.207   0.439  11.966 -0.3455  0.0063 -0.6136
19393TIP3    H179594   5.302   0.455  11.966 -0.3113 -0.1906 -0.6296
19393TIP3    H279595   5.173   0.501  12.030 -0.0976 -0.5115  0.0375
19394TIP3   OH279596   4.657   6.300   2.034  0.7512 -0.2496 -0.1990
19394TIP3    H179597   4.640   6.246   1.957  1.4801  1.1275 -1.3622
19394TIP3    H279598   4.573   6.339   2.055  0.5357 -0.6858 -0.2288
19395TIP3   OH279599   0.869   2.757  11.738 -0.2169 -0.4250  0.0737
19395TIP3    H179600   0.800   2.722  11.793 -1.1467 -0.8182 -1.2905
19395TIP3    H279601   0.909   2.827  11.790 -2.6939  0.9105  0.3080
19396TIP3   OH279602   1.984   6.648  15.764 -0.1103  0.3125 -0.2604
19396TIP3    H179603   2.077   6.669  15.774 -0.0599  0.0387 -0.1278
19396TIP3    H279604   1.981   6.589  15.689 -0.5196  2.5903 -2.1582
19397TIP3   OH279605   4.367   4.199   3.361  0.1122  0.8300  0.1919
19397TIP3    H179606   4.376   4.104   3.366  0.4157  0.7934 -0.6972
19397TIP3    H279607   4.454   4.233   3.380  0.3652  0.8457 -0.8962
19398TIP3   OH279608   3.756   1.103  16.127  0.1715  0.0936  0.0313
19398TIP3    H179609   3.784   1.144  16.209  0.4676  0.7493 -0.3816
19398TIP3    H279610   3.662   1.121  16.122 -0.3996 -2.1466  1.4475
19399TIP3   OH279611   2.064   1.838   1.093  0.9756  0.3758 -0.2217
19399TIP3    H179612   1.988   1.827   1.149  1.9975 -0.0614  1.1326
19399TIP3    H279613   2.033   1.818   1.004 -0.4167  0.0160  0.3367
19400TIP3   OH279614   3.593   3.995   1.908  0.2403  0.2514 -0.2576
19400TIP3    H179615   3.525   3.980   1.842 -0.1910  0.0785  0.2146
19400TIP3    H279616   3.620   4.086   1.895  0.6542  0.0124 -1.1203
19401TIP3   OH279617   2.018   5.101   1.837 -0.3657 -0.0252 -0.4007
19401TIP3    H179618   1.945   5.048   1.805 -0.0557 -1.1732  0.7026
19401TIP3    H279619   1.977   5.172   1.886 -0.7679 -0.4179 -0.1547
19402TIP3   OH279620   6.200   4.297   1.060 -0.2297  0.2756 -0.4431
19402TIP3    H179621   6.111   4.294   1.023 -0.5426 -0.2012  0.3219
19402TIP3    H279622   6.195   4.243   1.139  0.3142  1.5913  0.5275
19403TIP3   OH279623   2.531   2.246   2.759  0.4252 -0.3635  0.3313
19403TIP3    H179624   2.584   2.173   2.791 -0.2941 -0.8273  0.4871
19403TIP3    H279625   2.525   2.306   2.833  0.9755 -0.1748  0.2199
19404TIP3   OH279626   5.511   3.662  12.647 -0.1723 -0.4525 -0.1311
19404TIP3    H179627   5.605   3.669  12.663 -0.5077  0.2389  1.7782
19404TIP3    H279628   5.489   3.573  12.671 -0.2883 -0.0834  1.1833
19405TIP3   OH279629   3.463   3.367  11.672  0.3490  0.2963  0.1544
19405TIP3    H179630   3.535   3.389  11.731  0.2586  1.7849 -0.2504
19405TIP3    H279631   3.501   3.373  11.584  0.5028 -1.9758 -0.0022
19406TIP3   OH279632   5.181   1.167  12.544  0.2763 -0.1709 -0.2029
19406TIP3    H179633   5.094   1.145  12.575  0.1509 -0.3990 -0.6999
19406TIP3    H279634   5.223   1.083  12.529  0.2691 -0.0712 -0.8108
19407TIP3   OH279635   5.910   0.638   0.532  1.1157 -0.0402  0.0045
19407TIP3    H179636   5.882   0.570   0.594  0.4809  0.8235  0.6799
19407TIP3    H279637   5.912   0.718   0.584  2.4727  0.3655 -0.6272
19408TIP3   OH279638   5.941   3.607   3.329 -0.5268  0.0858 -0.2028
19408TIP3    H179639   6.017   3.556   3.358  0.2894  1.7980  0.8130
19408TIP3    H279640   5.913   3.654   3.407 -1.4299  0.9712 -1.0376
19409TIP3   OH279641   4.014   1.319  13.530  0.6640 -0.2802  0.0146
19409TIP3    H179642   3.963   1.399  13.541 -3.5931 -2.7061  0.6414
19409TIP3    H279643   4.054   1.304  13.615  1.4672  1.1101 -0.1020
19410TIP3   OH279644   3.313   4.694   2.883 -0.6247 -0.4593 -0.0625
19410TIP3    H179645   3.239   4.752   2.865 -0.5705 -0.5593 -0.6306
19410TIP3    H279646   3.300   4.619   2.826  1.2052  0.6369 -2.0968
19411TIP3   OH279647   1.762   0.617   1.685  0.1630  0.0437  0.1528
19411TIP3    H179648   1.703   0.578   1.748 -0.3144  0.0647 -0.2783
19411TIP3    H279649   1.849   0.607   1.724  0.3048 -3.0498 -0.6906
19412TIP3   OH279650   3.797   3.679  13.085 -0.4444 -0.0991  0.3928
19412TIP3    H179651   3.881   3.636  13.101 -0.9332 -0.8484  1.0186
19412TIP3    H279652   3.749   3.616  13.031 -0.8135  0.0777  0.5171
19413TIP3   OH279653   6.208   5.436   3.770 -0.6390 -0.0028  0.3920
19413TIP3    H179654   6.248   5.494   3.834  2.9148 -0.0379 -1.5236
19413TIP3    H279655   6.158   5.494   3.712 -1.4895  0.3818  1.4848
19414TIP3   OH279656   0.360   0.992  11.177 -0.3662 -0.3766  0.3910
19414TIP3    H179657   0.429   0.946  11.226  0.5348  0.1615 -0.3477
19414TIP3    H279658   0.299   0.923  11.152 -0.1323 -0.8572  1.0925
19415TIP3   OH279659   4.627   2.175   2.707 -0.0730  0.7023 -0.2356
19415TIP3    H179660   4.581   2.183   2.790 -0.5598 -0.9023 -0.3090
19415TIP3    H279661   4.715   2.208   2.724  0.2906 -0.9277  1.3450
19416TIP3   OH279662   4.623   6.459  16.709 -0.4099  0.0358  0.5147
19416TIP3    H179663   4.550   6.446  16.770 -0.0643  0.0923  0.9507
19416TIP3    H279664   4.582   6.464  16.623 -0.7687 -1.6129  0.5533
19417TIP3   OH279665   3.354   0.535  15.523  0.0102 -0.4528  0.0217
19417TIP3    H179666   3.267   0.573  15.520  0.4059  0.5060  0.1071
19417TIP3    H279667   3.406   0.600  15.571  0.9623 -0.6069 -0.7824
19418TIP3   OH279668   6.042   1.009  11.449  0.1226  0.1097  0.9656
19418TIP3    H179669   5.967   0.966  11.488  0.3897 -0.3768  0.9441
19418TIP3    H279670   6.016   1.028  11.359 -0.1536  0.3980  1.1030
19419TIP3   OH279671   6.574   6.207   2.771 -0.2881 -0.0418  0.1222
19419TIP3    H179672   6.555   6.221   2.679  1.2990  0.4565 -0.1643
19419TIP3    H279673   6.526   6.276   2.817 -0.0079  0.5438 -0.4512
19420TIP3   OH279674   5.625   3.687  13.843 -0.5172  0.3316 -0.5569
19420TIP3    H179675   5.535   3.693  13.812 -0.5943 -0.2073 -0.4358
19420TIP3    H279676   5.663   3.614  13.795 -0.3622  0.0914 -0.0787
19421TIP3   OH279677   2.244   6.420   0.043 -0.3956  0.2497 -0.2679
19421TIP3    H179678   2.237   6.504  -0.001  0.3746  1.3527  1.5697
19421TIP3    H279679   2.335   6.392   0.027 -0.3953  0.1964 -0.1757
19422TIP3   OH279680   6.346   6.721   4.705  0.0796 -0.1353  0.1762
19422TIP3    H179681   6.397   6.639   4.707  1.4696  0.6927  0.0442
19422TIP3    H279682   6.279   6.705   4.638  0.4957 -1.0687 -0.0472
19423TIP3   OH279683   0.019   3.896   4.271 -0.2304  0.1344 -0.0996
19423TIP3    H179684   0.016   3.927   4.361 -2.2232  0.4509 -0.2327
19423TIP3    H279685   0.110   3.871   4.257  0.2004  0.4794  1.8556
19424TIP3   OH279686   2.925   2.701   3.712 -0.0803 -0.2359 -0.0286
19424TIP3    H179687   2.979   2.632   3.750 -0.3848 -0.3617  0.1807
19424TIP3    H279688   2.839   2.688   3.751  0.5637  2.2255  2.6176
19425TIP3   OH279689   0.842   6.764   2.016 -0.1544 -0.2743 -0.0779
19425TIP3    H179690   0.756   6.787   1.979 -0.7551 -0.6941  1.0325
19425TIP3    H279691   0.826   6.752   2.109  1.0452 -0.7415  0.0840
19426TIP3   OH279692   2.772   1.310  12.237  0.1515  0.7725  0.4888
19426TIP3    H179693   2.847   1.255  12.216  2.1414  3.8765 -1.4321
19426TIP3    H279694   2.797   1.355  12.318  0.4812  1.8785 -0.1993
19427TIP3   OH279695   0.223   6.585   5.164 -0.0217 -0.9170  0.5370
19427TIP3    H179696   0.217   6.580   5.068  0.1703  0.3075  0.4479
19427TIP3    H279697   0.170   6.512   5.194 -2.2120  0.1431 -0.4927
19428TIP3   OH279698   3.280   0.678   5.245 -0.1038 -0.0822  0.0551
19428TIP3    H179699   3.192   0.673   5.206  0.4107 -0.7241 -1.0575
19428TIP3    H279700   3.274   0.625   5.325 -0.4983 -0.8739 -0.4840
19429TIP3   OH279701   2.301   6.225   6.026  0.0404  0.1671  0.0022
19429TIP3    H179702   2.241   6.299   6.016  0.1585  0.2867  0.1811
19429TIP3    H279703   2.303   6.208   6.120  0.2939  0.1719 -0.0009
19430TIP3   OH279704   4.663   2.909   2.556 -0.1996  0.8383  0.0064
19430TIP3    H179705   4.667   2.836   2.494 -0.0197  1.4923 -0.7745
19430TIP3    H279706   4.711   2.878   2.633 -0.0381  0.1719 -0.3547
19431TIP3   OH279707   3.441   5.740  16.585 -0.5984 -0.0061 -0.5356
19431TIP3    H179708   3.474   5.725  16.674 -0.6457  0.3104 -0.4622
19431TIP3    H279709   3.506   5.700  16.528 -0.5470 -0.1784 -0.3583
19432TIP3   OH279710   1.232   6.642  10.833 -0.2875 -0.1718 -0.4730
19432TIP3    H179711   1.203   6.730  10.858 -0.2670 -0.2413 -0.2031
19432TIP3    H279712   1.151   6.594  10.818 -0.3010 -0.1867 -0.3476
19433TIP3   OH279713   5.543   1.835  12.556 -0.0568  0.0155  0.0262
19433TIP3    H179714   5.563   1.838  12.649 -0.9319  1.2058  0.2111
19433TIP3    H279715   5.447   1.828  12.553 -0.0532  0.2103 -0.7755
19434TIP3   OH279716   5.080   1.414  16.560  0.1562 -0.3342  0.2359
19434TIP3    H179717   5.063   1.320  16.570 -0.2121 -0.2321  0.5784
19434TIP3    H279718   5.116   1.423  16.472 -2.0326 -0.4875 -0.7377
19435TIP3   OH279719   5.506   4.624  15.573 -0.1659 -0.2470  0.0040
19435TIP3    H179720   5.518   4.541  15.526 -0.3334  1.0445 -2.4922
19435TIP3    H279721   5.595   4.652  15.596  0.3952  0.9290 -3.1032
19436TIP3   OH279722   5.160   4.091   1.657  0.9469 -0.2284  0.4016
19436TIP3    H179723   5.176   4.144   1.578 -0.4627 -0.7017 -0.2190
19436TIP3    H279724   5.230   4.025   1.656  1.9935  0.8317  0.5301
19437TIP3   OH279725   3.677   0.412   0.015 -0.0517  0.1411 -0.1420
19437TIP3    H179726   3.686   0.451  -0.072  0.0651  1.4908  0.4458
19437TIP3    H279727   3.644   0.323  -0.001 -1.4226  0.8419 -1.4980
19438TIP3   OH279728   0.059   1.045  11.124  0.2132 -0.2778 -0.5887
19438TIP3    H179729   0.028   0.970  11.175  1.2437 -0.6524 -0.4983
19438TIP3    H279730  -0.012   1.062  11.062 -2.4625  2.0740  2.7293
19439TIP3   OH279731   2.835   0.722   2.931  0.3155 -0.1753  0.2004
19439TIP3    H179732   2.826   0.793   2.867 -1.3554 -0.0471  0.5368
19439TIP3    H279733   2.904   0.753   2.990  1.6373 -0.1403 -1.2950
19440TIP3   OH279734   6.415   0.646  11.562  0.0849 -0.2231 -0.0088
19440TIP3    H179735   6.321   0.662  11.568 -0.3156 -2.1444 -0.5907
19440TIP3    H279736   6.454   0.710  11.623 -1.6303  0.1519  0.7506
19441TIP3   OH279737   4.283   0.852  11.097 -0.2010 -0.1657 -0.4051
19441TIP3    H179738   4.324   0.769  11.124 -1.0630 -0.2039  0.8901
19441TIP3    H279739   4.275   0.846  11.002  0.5871 -1.1748 -0.4194
19442TIP3   OH279740   2.267   5.268  15.875  0.4743  0.0394 -0.8447
19442TIP3    H179741   2.266   5.212  15.953 -0.9452 -0.0247 -0.8862
19442TIP3    H279742   2.191   5.325  15.886  1.4590  1.4631 -1.1809
19443TIP3   OH279743   4.668   4.475   5.700 -0.0798  0.2247 -0.1231
19443TIP3    H179744   4.689   4.409   5.765  0.7290 -2.0651 -2.5215
19443TIP3    H279745   4.645   4.425   5.621  3.4200  2.6039 -3.0157
19444TIP3   OH279746   2.578   6.381  13.635 -0.3570  0.7540 -0.5735
19444TIP3    H179747   2.613   6.346  13.717 -1.2609 -0.4383 -0.6827
19444TIP3    H279748   2.572   6.476  13.651  1.2140  0.7818  0.0592
19445TIP3   OH279749   2.182   6.425   0.438 -0.2376 -0.3195  0.6938
19445TIP3    H179750   2.249   6.492   0.424 -0.9063 -0.0516 -1.5818
19445TIP3    H279751   2.126   6.461   0.506  0.4375  0.6275  0.7658
19446TIP3   OH279752   5.024   3.578  14.384 -0.2282  0.1206 -0.2451
19446TIP3    H179753   5.023   3.671  14.406 -0.7195 -0.1007  0.7102
19446TIP3    H279754   5.083   3.538  14.448 -0.8232 -0.3732  0.0123
19447TIP3   OH279755   2.326   1.786   4.704 -0.3201  0.2086  0.6256
19447TIP3    H179756   2.403   1.773   4.759  0.9610  1.8601 -0.6530
19447TIP3    H279757   2.263   1.830   4.760  0.4236  0.6113  1.1505
19448TIP3   OH279758   5.601   3.445   3.186  0.2425 -0.2097 -0.2085
19448TIP3    H179759   5.608   3.522   3.242 -0.3510 -1.6840  2.0138
19448TIP3    H279760   5.655   3.378   3.229 -1.2517 -1.7893 -0.6593
19449TIP3   OH279761   2.723   4.666   3.016 -0.4496  0.3486  0.4168
19449TIP3    H179762   2.630   4.651   3.034 -0.7611  1.2391 -0.3683
19449TIP3    H279763   2.741   4.754   3.051  0.0682  0.2457  0.4269
19450TIP3   OH279764   2.789   2.062  11.978  0.6307  0.1478 -0.3927
19450TIP3    H179765   2.871   2.110  11.963  0.6491  0.1728 -0.2114
19450TIP3    H279766   2.777   2.009  11.899  1.0945 -0.2564 -0.1887
19451TIP3   OH279767   5.535   5.054  14.778 -0.2535 -0.1758  0.2839
19451TIP3    H179768   5.534   5.107  14.857  1.2426  1.9833 -1.0376
19451TIP3    H279769   5.628   5.036  14.763 -0.2117  1.6923 -2.3084
19452TIP3   OH279770   6.773   5.280  13.379  1.0663  0.3377  0.4420
19452TIP3    H179771   6.753   5.374  13.369  0.2861  0.5547  3.0817
19452TIP3    H279772   6.867   5.277  13.396  1.4990  0.3775 -1.6826
19453TIP3   OH279773   4.757   4.204  11.429  0.3574  0.2086 -0.6358
19453TIP3    H179774   4.724   4.287  11.461  2.3009  1.0101 -0.5759
19453TIP3    H279775   4.747   4.209  11.334  0.2403  0.4062 -0.6130
19454TIP3   OH279776   2.859   3.292   1.095 -0.0312  0.1163  0.2032
19454TIP3    H179777   2.903   3.288   1.010  0.8955 -0.2905  0.6799
19454TIP3    H279778   2.927   3.266   1.158 -0.4114  1.3577  1.1688
19455TIP3   OH279779   5.673   3.946  12.161 -0.2742 -0.6347  0.0305
19455TIP3    H179780   5.662   3.889  12.237  0.9198  0.6245  1.1881
19455TIP3    H279781   5.647   3.891  12.087 -2.1788 -1.6857  1.3725
19456TIP3   OH279782   3.868   6.034   6.217 -0.4533  0.6644  0.1185
19456TIP3    H179783   3.957   6.061   6.195 -0.5612  1.9964  1.1986
19456TIP3    H279784   3.833   6.106   6.269 -1.4616 -0.7334  1.4620
19457TIP3   OH279785   0.709   1.470   2.907  0.3667  0.0861  0.2322
19457TIP3    H179786   0.729   1.402   2.971 -0.1718 -0.5804 -0.2949
19457TIP3    H279787   0.686   1.547   2.960 -1.9999 -0.9992  0.8727
19458TIP3   OH279788   6.252   2.359   2.044  0.0777 -0.3426 -0.2424
19458TIP3    H179789   6.171   2.355   1.992 -0.2247 -2.5622  0.2929
19458TIP3    H279790   6.224   2.395   2.128  0.0048  0.5433 -0.6351
19459TIP3   OH279791   0.002   3.092   5.331 -0.3717 -0.0379 -0.0052
19459TIP3    H179792  -0.059   3.088   5.257  1.8310  0.6574 -1.9964
19459TIP3    H279793   0.085   3.119   5.292  0.7348  1.1397  2.8780
19460TIP3   OH279794   3.435   5.170  12.062 -0.1675 -0.1375  0.2373
19460TIP3    H179795   3.345   5.169  12.092 -0.2745 -2.5630  0.1007
19460TIP3    H279796   3.487   5.150  12.140  0.2239  0.8522  0.2385
19461TIP3   OH279797   0.139   1.492   3.167 -0.2774  0.5150 -0.2136
19461TIP3    H179798   0.051   1.463   3.191  0.2068 -0.4300  0.4840
19461TIP3    H279799   0.198   1.431   3.213  0.7725  1.9754  0.4447
19462TIP3   OH279800   0.622   0.345   0.838  0.1785  0.4513  0.5085
19462TIP3    H179801   0.678   0.292   0.782 -1.5995  0.6136 -1.5579
19462TIP3    H279802   0.624   0.432   0.798 -1.5486  0.4410  0.3501
19463TIP3   OH279803   5.614   0.993   5.299 -0.0729 -0.2410  0.0638
19463TIP3    H179804   5.525   1.011   5.268 -0.4731 -0.0936  1.2211
19463TIP3    H279805   5.668   1.058   5.256 -0.7033  0.3679  0.1753
19464TIP3   OH279806   1.508   5.614   4.135  0.2363  0.0214  0.0888
19464TIP3    H179807   1.414   5.631   4.142  0.1686 -0.9653  2.5152
19464TIP3    H279808   1.539   5.618   4.226  2.2857 -1.0847 -0.5192
19465TIP3   OH279809   3.023   2.360  17.146  0.5242  0.7990 -0.3338
19465TIP3    H179810   2.989   2.449  17.157  1.3696  0.9457  1.3629
19465TIP3    H279811   2.946   2.304  17.159  0.2582  1.2388  0.0178
19466TIP3   OH279812   0.030   4.682  14.304  0.2571 -0.3501 -0.1892
19466TIP3    H179813   0.044   4.751  14.368  0.8176 -0.4898 -0.1594
19466TIP3    H279814   0.006   4.728  14.224  2.7906  0.0531 -0.8091
19467TIP3   OH279815   2.371   6.617  14.505 -0.8140  0.9085  0.0322
19467TIP3    H179816   2.279   6.617  14.479 -0.6058  0.2555 -0.7738
19467TIP3    H279817   2.417   6.584  14.428  0.1148  1.3597  0.3748
19468TIP3   OH279818   6.725   1.331   2.842 -0.2245 -0.1511  0.4855
19468TIP3    H179819   6.799   1.390   2.860 -0.2531 -0.5127  1.9283
19468TIP3    H279820   6.766   1.249   2.814 -0.0525 -0.3857  1.3869
19469TIP3   OH279821   2.230   4.051   2.137 -0.1472  0.3565 -0.0622
19469TIP3    H179822   2.183   4.072   2.218  1.3679  1.3439  0.6058
19469TIP3    H279823   2.170   3.994   2.088 -2.4758  2.3699  0.2516
19470TIP3   OH279824   2.911   6.318  16.861 -0.0216 -0.4371  0.6874
19470TIP3    H179825   2.916   6.267  16.942 -1.5287  2.3158  2.6549
19470TIP3    H279826   2.993   6.367  16.859 -0.8970  1.1234  1.7667
19471TIP3   OH279827   0.624   0.400  14.018  0.2517 -0.1249  0.4233
19471TIP3    H179828   0.613   0.491  14.046 -0.2557 -0.5611  1.6984
19471TIP3    H279829   0.583   0.348  14.086  0.8702 -1.3468 -0.0914
19472TIP3   OH279830   2.606   2.785  15.176  0.2765 -0.0492 -0.7633
19472TIP3    H179831   2.654   2.780  15.259  1.8964 -1.4313 -1.7190
19472TIP3    H279832   2.666   2.829  15.117 -0.7228  0.5894 -1.3182
19473TIP3   OH279833   6.721   2.987   1.070 -0.9081  0.6397 -0.0402
19473TIP3    H179834   6.758   3.075   1.074 -1.1681  0.7792 -0.6819
19473TIP3    H279835   6.732   2.953   1.159 -1.5666  1.6268  0.4362
19474TIP3   OH279836   5.957   0.119   3.079 -0.0682  0.2954  0.3505
19474TIP3    H179837   5.911   0.203   3.075  1.7020  1.3299  1.0011
19474TIP3    H279838   6.042   0.136   3.039  1.1210 -0.6013  2.3649
19475TIP3   OH279839   4.066   2.756  15.381 -0.8391 -0.7385 -0.0144
19475TIP3    H179840   4.147   2.802  15.404 -0.4208 -1.2221 -0.4790
19475TIP3    H279841   4.095   2.683  15.325 -1.6477 -0.5709 -0.6790
19476TIP3   OH279842   6.442   4.734  14.484  0.3288  0.1674  0.2438
19476TIP3    H179843   6.425   4.749  14.391 -0.2818 -0.3275  0.2689
19476TIP3    H279844   6.515   4.671  14.485 -0.5910 -0.9297  0.0674
19477TIP3   OH279845   4.459   5.755   4.821 -0.0080  0.4708  0.2094
19477TIP3    H179846   4.365   5.763   4.839  0.0058  1.4532 -0.0741
19477TIP3    H279847   4.466   5.758   4.726  0.2537 -0.3930  0.1965
19478TIP3   OH279848   2.870   1.295   2.928 -0.4052  0.0231 -0.8559
19478TIP3    H179849   2.939   1.361   2.919 -1.1395  0.7444 -1.3697
19478TIP3    H279850   2.916   1.212   2.933  0.5819  0.6132  0.3866
19479TIP3   OH279851   3.810   6.175  11.027 -0.5712 -0.2634  0.0994
19479TIP3    H179852   3.803   6.142  11.117 -2.4046  1.5709  0.7249
19479TIP3    H279853   3.888   6.230  11.027  0.0777 -1.1652  0.2277
19480TIP3   OH279854   3.694   0.487  16.968 -0.5744 -0.6364  0.1870
19480TIP3    H179855   3.779   0.458  16.934  0.0837  0.3568  0.9379
19480TIP3    H279856   3.684   0.576  16.933 -0.1248  0.2156  2.1004
19481TIP3   OH279857   4.180   6.145  13.245  0.0870 -0.0001 -0.1751
19481TIP3    H179858   4.106   6.194  13.281  0.2702  0.3465 -0.2686
19481TIP3    H279859   4.214   6.095  13.320  0.6229  0.9133  0.2070
19482TIP3   OH279860   5.910   6.579   1.767  0.1199  0.4249 -0.3148
19482TIP3    H179861   5.978   6.540   1.822  0.3486  0.4365 -0.5847
19482TIP3    H279862   5.834   6.588   1.824  0.5075  0.8880  0.1399
19483TIP3   OH279863   6.778   0.311   1.707  0.0264  0.0152  0.2897
19483TIP3    H179864   6.784   0.309   1.803  1.5166  0.2431  0.2310
19483TIP3    H279865   6.745   0.398   1.686 -0.8323 -0.2259  0.6043
19484TIP3   OH279866   5.713   2.071   2.358  0.2950 -0.6120 -0.0532
19484TIP3    H179867   5.778   2.113   2.301  0.2747 -0.1406  0.2632
19484TIP3    H279868   5.659   2.144   2.389  0.4282 -0.8392  0.7268
19485TIP3   OH279869   4.324   2.621  16.472 -0.2421 -0.3840  0.0404
19485TIP3    H179870   4.307   2.541  16.423  1.7349 -1.4297  0.9190
19485TIP3    H279871   4.371   2.678  16.411  0.3670 -0.8355  0.0817
19486TIP3   OH279872   1.820   4.330   6.074 -0.5076 -0.0092  0.6081
19486TIP3    H179873   1.910   4.300   6.061 -0.7448 -0.5502  0.1959
19486TIP3    H279874   1.767   4.250   6.066 -1.3443  0.7301 -2.3729
19487TIP3   OH279875   1.100   5.391   4.741 -0.4964 -0.5853  0.0189
19487TIP3    H179876   1.177   5.428   4.783  0.3900 -1.7656 -0.5099
19487TIP3    H279877   1.105   5.420   4.650  0.8519 -2.8432 -0.7031
19488TIP3   OH279878   2.944   4.769   1.507  0.0915  0.2371 -0.6010
19488TIP3    H179879   2.950   4.716   1.586  1.8582 -0.1873 -0.9702
19488TIP3    H279880   2.853   4.798   1.504 -0.7404 -2.1097  0.0447
19489TIP3   OH279881   1.830   4.516   4.476 -0.4130  0.1332  0.6842
19489TIP3    H179882   1.835   4.438   4.420  1.7162  0.8012 -0.1707
19489TIP3    H279883   1.768   4.574   4.432 -1.3707 -0.7242  0.8796
19490TIP3   OH279884   5.353   2.884  10.840 -0.2898 -0.0415 -0.0027
19490TIP3    H179885   5.349   2.800  10.793 -0.6938 -0.4396  0.7159
19490TIP3    H279886   5.303   2.944  10.785 -0.6035 -0.4526 -0.1740
19491TIP3   OH279887   5.372   6.225  12.890  0.1378 -0.5520 -0.5431
19491TIP3    H179888   5.354   6.302  12.944 -1.8339 -0.0030 -1.8618
19491TIP3    H279889   5.353   6.253  12.801  2.4050 -1.6982 -1.4763
19492TIP3   OH279890   1.953   0.639   1.279 -0.3675  0.3642 -0.0377
19492TIP3    H179891   1.865   0.668   1.303 -0.8399 -0.1637 -1.1153
19492TIP3    H279892   1.968   0.677   1.193 -0.4315 -1.3968 -0.8519
19493TIP3   OH279893   4.235   0.662  13.348  0.6081 -0.2357 -1.2564
19493TIP3    H179894   4.243   0.577  13.306  1.7054 -0.8234  0.0525
19493TIP3    H279895   4.145   0.690  13.329 -0.8708 -3.0716  0.6993
19494TIP3   OH279896   4.686   2.330   3.064  0.4274  0.5043 -0.2717
19494TIP3    H179897   4.622   2.262   3.045  0.6798  0.1358  0.1769
19494TIP3    H279898   4.634   2.409   3.080  0.0513  0.0716  0.6767
19495TIP3   OH279899   2.881   2.664   0.904  0.0331  0.0110 -0.2065
19495TIP3    H179900   2.877   2.722   0.828  0.4851 -1.4858 -1.4294
19495TIP3    H279901   2.799   2.615   0.901  0.7644 -1.2423 -0.7656
19496TIP3   OH279902   4.614   4.069   1.067  0.0017  0.4307  0.1030
19496TIP3    H179903   4.697   4.037   1.030 -0.6995 -0.1959 -0.9764
19496TIP3    H279904   4.587   4.140   1.009 -0.2985  0.5283  0.3605
19497TIP3   OH279905   5.925   1.404  11.538 -0.1221 -0.3760  0.6610
19497TIP3    H179906   5.866   1.393  11.463 -0.3008  0.1338  0.7211
19497TIP3    H279907   5.881   1.470  11.593  0.6671  0.2646  0.5385
19498TIP3   OH279908   5.212   5.707   0.459 -0.7118  0.0008  0.0559
19498TIP3    H179909   5.222   5.737   0.368 -1.2104 -0.3564 -0.1193
19498TIP3    H279910   5.293   5.659   0.477  0.0475  1.3096  0.3004
19499TIP3   OH279911   2.990   5.161  13.861  0.2946  0.9114 -1.1464
19499TIP3    H179912   3.082   5.168  13.886  0.1494 -0.6205 -0.0116
19499TIP3    H279913   2.942   5.174  13.943 -0.4448  0.7760 -1.5470
19500TIP3   OH279914   5.747   5.878   0.923 -0.1653  0.2518 -1.1018
19500TIP3    H179915   5.751   5.930   1.003  0.3328  1.8497 -2.1075
19500TIP3    H279916   5.838   5.855   0.904 -0.3237 -0.4946 -0.9810
19501TIP3   OH279917   3.453   4.894   2.173  0.5029 -0.6248  0.3249
19501TIP3    H179918   3.408   4.903   2.089  2.6711 -0.8112 -0.9272
19501TIP3    H279919   3.431   4.973   2.221 -1.0923 -0.6932 -0.2347
19502TIP3   OH279920   0.463   2.256   2.278 -0.1773  0.4167 -0.5301
19502TIP3    H179921   0.478   2.339   2.324  0.4786  0.3920 -0.6841
19502TIP3    H279922   0.495   2.273   2.189 -1.0101  0.3210 -0.8541
19503TIP3   OH279923   1.610   5.463  16.153  0.0219 -0.4346 -0.4348
19503TIP3    H179924   1.657   5.432  16.076 -1.3396  0.1454 -1.5376
19503TIP3    H279925   1.675   5.514  16.202  0.5910  0.2987 -1.8817
19504TIP3   OH279926   3.001   0.326  13.796  0.4292 -0.0185  0.3234
19504TIP3    H179927   3.058   0.382  13.742  0.9309 -1.6718 -0.9415
19504TIP3    H279928   2.917   0.371  13.796  0.7952  0.7175 -0.7083
19505TIP3   OH279929   4.013   5.541  14.473 -0.1847  0.1989  0.2957
19505TIP3    H179930   3.987   5.628  14.504 -2.2311 -0.6604  1.1356
19505TIP3    H279931   4.085   5.515  14.532  0.7293  1.4407 -0.2196
19506TIP3   OH279932   2.360   4.170  11.195  0.3190  0.3056  0.0796
19506TIP3    H179933   2.372   4.200  11.105  2.5968  1.2542  0.6434
19506TIP3    H279934   2.312   4.241  11.237 -0.5606 -0.0441 -0.3093
19507TIP3   OH279935   2.290   4.182   5.309  0.5482 -0.9541 -0.1635
19507TIP3    H179936   2.234   4.185   5.386  0.2587  0.0595 -0.3934
19507TIP3    H279937   2.378   4.171   5.343  0.8124  2.3657  0.5703
19508TIP3   OH279938   6.432   0.787   2.554  0.5150  0.1893 -0.2776
19508TIP3    H179939   6.380   0.795   2.634  1.4514 -0.5832  0.4335
19508TIP3    H279940   6.496   0.858   2.560  0.7914 -0.0655 -0.1698
19509TIP3   OH279941   4.369   6.744   6.285  0.7258  0.0790 -0.0444
19509TIP3    H179942   4.292   6.789   6.322 -0.5201  0.5542 -2.9343
19509TIP3    H279943   4.350   6.651   6.295  0.7286  0.1868  1.0416
19510TIP3   OH279944   2.089   0.954   3.168  0.2308  0.3132 -1.0055
19510TIP3    H179945   2.185   0.957   3.168  0.2380  0.7196  0.1317
19510TIP3    H279946   2.063   1.012   3.241 -0.8531 -0.3496 -0.8413
19511TIP3   OH279947   1.948   1.525  11.355 -0.4415  0.2511 -0.1217
19511TIP3    H179948   2.019   1.559  11.300  1.1928 -1.7578  0.6097
19511TIP3    H279949   1.973   1.549  11.444 -2.4904  2.4851 -0.0604
19512TIP3   OH279950   1.838   1.274  12.375  0.4691  0.0848  0.6983
19512TIP3    H179951   1.849   1.315  12.289 -1.0634 -0.3277  0.2738
19512TIP3    H279952   1.907   1.207  12.379  0.7043  0.2677 -0.1052
19513TIP3   OH279953   4.796   4.294   4.267  0.3731 -0.4630  0.1383
19513TIP3    H179954   4.743   4.245   4.330  2.8575  0.1883  2.9463
19513TIP3    H279955   4.765   4.385   4.275 -0.1313 -0.5699 -0.5283
19514TIP3   OH279956   5.792   0.731  14.395  0.7515 -0.0181 -0.0967
19514TIP3    H179957   5.813   0.736  14.302 -1.8536  0.9131 -0.7335
19514TIP3    H279958   5.788   0.637  14.414 -0.0689 -0.2511 -1.3097
19515TIP3   OH279959   1.587   6.271  12.545 -0.2360  0.0955  0.2876
19515TIP3    H179960   1.626   6.249  12.460  0.0239  0.6021  0.2734
19515TIP3    H279961   1.554   6.360  12.534 -0.3607  0.0980  0.6651
19516TIP3   OH279962   1.225   1.835  10.799 -0.1198 -0.7764 -0.2488
19516TIP3    H179963   1.317   1.857  10.810 -0.4774 -0.1143  2.1189
19516TIP3    H279964   1.223   1.770  10.729  1.9169  0.5355 -1.6046
19517TIP3   OH279965   2.532   4.492   5.872  0.0009 -0.5683 -0.5509
19517TIP3    H179966   2.535   4.493   5.968  0.5867  2.0218 -0.5114
19517TIP3    H279967   2.456   4.545   5.850 -0.0518 -1.0310 -1.5321
19518TIP3   OH279968   1.213   5.463   5.334 -0.4077  0.3611  1.5196
19518TIP3    H179969   1.259   5.534   5.380  0.0101 -1.1626  3.5727
19518TIP3    H279970   1.140   5.440   5.392 -2.5804  1.2658 -0.6848
19519TIP3   OH279971   1.488   0.951   4.779 -0.5816  0.5531  0.5696
19519TIP3    H179972   1.479   0.889   4.851  0.0718  0.6318  0.7248
19519TIP3    H279973   1.497   0.896   4.701 -2.9226  0.4486  0.2868
19520TIP3   OH279974   1.640   3.234   0.125  0.2094  0.4246  0.0431
19520TIP3    H179975   1.682   3.232   0.039  1.4027  0.3485  0.6032
19520TIP3    H279976   1.692   3.296   0.175  0.0437 -0.1747  0.9727
19521TIP3   OH279977   6.685   4.080   6.620  0.5344  0.6284  0.1224
19521TIP3    H179978   6.718   4.088   6.709  2.4295 -0.3890 -0.4404
19521TIP3    H279979   6.761   4.057   6.567 -1.0217 -1.8605 -1.2685
19522TIP3   OH279980   4.182   5.033   0.692 -0.1841 -0.1149  0.2864
19522TIP3    H179981   4.181   5.110   0.750 -1.4583 -0.7330  1.1302
19522TIP3    H279982   4.094   5.032   0.654  0.0098 -0.8330 -0.1473
19523TIP3   OH279983   2.319   0.944  12.604 -0.4462 -0.0363  0.3353
19523TIP3    H179984   2.224   0.957  12.594 -0.5055 -1.0047 -0.5895
19523TIP3    H279985   2.335   0.957  12.697 -1.5015  0.0864  0.5175
19524TIP3   OH279986   1.789   6.560  12.064 -0.4722 -0.3420 -0.1590
19524TIP3    H179987   1.725   6.530  11.999 -0.0072 -1.9293  0.0578
19524TIP3    H279988   1.873   6.534  12.026 -0.0390  0.7097  0.0778
19525TIP3   OH279989   1.700   3.857   3.960  0.0550 -0.2232  0.1027
19525TIP3    H179990   1.645   3.791   4.003 -0.8784  0.0134 -0.6754
19525TIP3    H279991   1.640   3.929   3.942  0.8211  0.3838 -0.0414
19526TIP3   OH279992   4.816   1.875  11.870 -0.1236 -0.3785 -0.3902
19526TIP3    H179993   4.822   1.785  11.901  0.5241 -0.6580 -1.2890
19526TIP3    H279994   4.865   1.875  11.788  1.6765  1.2539  0.5926
19527TIP3   OH279995   3.773   4.818  10.977  0.1662  0.5454 -0.2769
19527TIP3    H179996   3.728   4.737  10.999  0.1301  0.5447 -0.3519
19527TIP3    H279997   3.858   4.790  10.942 -0.0125  0.5226 -0.7011
19528TIP3   OH279998   1.637   4.103   5.484 -0.5430 -0.2570 -0.2745
19528TIP3    H179999   1.597   4.083   5.400 -0.2309 -0.6024 -0.3469
19528TIP3    H280000   1.594   4.183   5.514 -1.4079 -0.7252 -0.2603
19529TIP3   OH280001   2.379   2.898  15.980  0.2080 -0.3272  0.2348
19529TIP3    H180002   2.434   2.869  16.053  0.0445  0.7688  0.8104
19529TIP3    H280003   2.439   2.935  15.916  0.2077  0.2739  0.5764
19530TIP3   OH280004   5.108   3.640  13.709  0.3781 -0.4116 -0.9224
19530TIP3    H180005   5.182   3.606  13.658  1.0769  1.1775 -1.0456
19530TIP3    H280006   5.058   3.563  13.734  2.0876 -1.5571 -0.8373
19531TIP3   OH280007   3.566   5.815  14.402 -0.1986  0.0970  0.7201
19531TIP3    H180008   3.500   5.884  14.403 -0.3615 -0.0512  0.1989
19531TIP3    H280009   3.516   5.733  14.404 -0.0962 -0.0444 -0.9829
19532TIP3   OH280010   4.926   4.343   0.649 -0.0773 -0.2619 -0.2270
19532TIP3    H180011   4.979   4.366   0.726  0.3350  0.9457 -0.8463
19532TIP3    H280012   4.962   4.397   0.579  0.5823 -2.4542 -1.6633
19533TIP3   OH280013   5.160   0.709  14.334  1.0732  0.1653  0.0343
19533TIP3    H180014   5.229   0.665  14.284  0.2850  0.0815 -1.0176
19533TIP3    H280015   5.089   0.645  14.338 -0.0549  1.2600 -1.4212
19534TIP3   OH280016   3.254   5.467  12.919  0.6406 -0.2859  0.4089
19534TIP3    H180017   3.272   5.472  13.013 -1.6291  1.6020  0.8508
19534TIP3    H280018   3.339   5.478  12.877  1.2668  3.3400  2.2517
19535TIP3   OH280019   6.213   5.950   1.483  0.2027  0.0571  0.2426
19535TIP3    H180020   6.285   6.002   1.519 -0.4375 -0.5850  2.6084
19535TIP3    H280021   6.248   5.861   1.481 -0.3851 -0.1944  1.0328
19536TIP3   OH280022   5.641   0.260   2.267 -0.1523  0.8550  0.0275
19536TIP3    H180023   5.601   0.325   2.325 -1.4120  0.5004 -0.4049
19536TIP3    H280024   5.727   0.296   2.246  1.0727  0.2707  3.3690
19537TIP3   OH280025   1.645   0.405  11.091 -0.0549  0.8185 -0.2623
19537TIP3    H180026   1.662   0.360  11.008  2.8686  3.2702 -1.2196
19537TIP3    H280027   1.683   0.348  11.157 -2.2059 -1.0554 -0.5331
19538TIP3   OH280028   2.433   0.737  10.381 -0.5029 -0.2314  0.0045
19538TIP3    H180029   2.521   0.746  10.418 -0.1010 -0.4248 -0.8745
19538TIP3    H280030   2.398   0.657  10.422 -0.4895  0.1376  0.7619
19539TIP3   OH280031   1.963   4.376  12.918 -0.5313  0.6312  0.6504
19539TIP3    H180032   1.968   4.285  12.950 -0.4853  0.0846 -0.8533
19539TIP3    H280033   1.887   4.412  12.963 -1.0041 -0.3801  0.7002
19540TIP3   OH280034   4.969   1.024   0.011 -0.0345 -0.7860 -0.0676
19540TIP3    H180035   5.028   1.013   0.086  0.0847  0.6902  0.0844
19540TIP3    H280036   4.885   1.049   0.050  0.0456  0.0588 -0.4073
19541TIP3   OH280037   2.886   1.123  13.807 -0.2084 -0.0083 -0.1464
19541TIP3    H180038   2.952   1.062  13.841  0.2824 -0.2630 -1.5055
19541TIP3    H280039   2.922   1.210  13.825  1.0061 -0.1335 -1.7279
19542TIP3   OH280040   2.313   5.323   2.836  0.0528  0.2641  0.3685
19542TIP3    H180041   2.270   5.406   2.815 -0.1779  0.0739  0.0673
19542TIP3    H280042   2.397   5.348   2.873  1.0565  0.6440 -2.0031
19543TIP3   OH280043   4.793   6.478  11.027 -0.8828 -0.0455 -0.3382
19543TIP3    H180044   4.832   6.405  11.076 -0.8469 -2.8057 -4.0574
19543TIP3    H280045   4.868   6.525  10.991 -0.9450  0.8079  0.5998
19544TIP3   OH280046   3.851   4.674   1.756 -0.2562  1.1267  0.0806
19544TIP3    H180047   3.924   4.613   1.765 -1.2757  0.0859  1.8252
19544TIP3    H280048   3.857   4.704   1.665 -1.0864 -3.4638 -1.8062
19545TIP3   OH280049   6.678   1.481   1.345  0.3277  0.1529 -0.3339
19545TIP3    H180050   6.611   1.506   1.280 -0.5741  0.7270  0.7738
19545TIP3    H280051   6.753   1.455   1.293  0.4502  2.7815 -1.6352
19546TIP3   OH280052   2.919   0.477   2.948  0.0220  0.2733  0.0782
19546TIP3    H180053   2.896   0.568   2.926  0.2509  0.4308  0.4788
19546TIP3    H280054   2.992   0.485   3.009  0.0716 -0.1853  0.0826
19547TIP3   OH280055   3.989   2.627   4.939 -0.3037  0.0322  0.0525
19547TIP3    H180056   3.900   2.637   4.905 -0.6757  0.5073  1.1259
19547TIP3    H280057   3.998   2.697   5.003  1.4843  1.1313 -1.2974
19548TIP3   OH280058   6.135   3.322   2.893  0.1143  0.7886 -0.6473
19548TIP3    H180059   6.222   3.316   2.854  0.6970  1.1746  0.5640
19548TIP3    H280060   6.084   3.373   2.830 -0.3971 -2.5634 -3.2963
19549TIP3   OH280061   1.748   5.397   4.272  0.3439  0.1585  0.2396
19549TIP3    H180062   1.751   5.417   4.178  0.2616 -1.5001 -0.1341
19549TIP3    H280063   1.655   5.382   4.291  0.2070  1.6175  0.8614
19550TIP3   OH280064   2.721   2.050  15.584 -0.0842 -0.5942  0.4798
19550TIP3    H180065   2.770   1.968  15.585 -0.6442 -0.9535  2.6567
19550TIP3    H280066   2.774   2.110  15.637 -1.2012 -0.5264  1.5549
19551TIP3   OH280067   3.088   1.775  17.166 -0.0781  0.0262  0.2919
19551TIP3    H180068   3.058   1.848  17.112  2.9639  0.3972 -1.0772
19551TIP3    H280069   3.008   1.737  17.201 -1.9829  1.8167 -1.8213
19552TIP3   OH280070   4.435   1.832  10.634  0.1040 -0.6185 -0.1102
19552TIP3    H180071   4.504   1.897  10.647 -0.0997 -0.1898 -1.0295
19552TIP3    H280072   4.393   1.824  10.720  1.8989 -1.6291  0.7047
19553TIP3   OH280073   0.691   4.473   5.828  0.0762  0.5762  0.5287
19553TIP3    H180074   0.654   4.409   5.888  0.8918  0.0289  0.4737
19553TIP3    H280075   0.749   4.527   5.882 -1.1621  1.7623  0.7184
19554TIP3   OH280076   2.518   6.525  11.270  0.6297  0.1622 -0.0273
19554TIP3    H180077   2.561   6.458  11.216  1.5652 -1.5033  2.5888
19554TIP3    H280078   2.506   6.599  11.210  0.0608 -2.0651 -2.9276
19555TIP3   OH280079   2.448   3.700   0.839  0.3529 -0.3192 -0.4844
19555TIP3    H180080   2.468   3.626   0.896 -0.2363 -0.4665 -0.4523
19555TIP3    H280081   2.376   3.668   0.784  1.1624 -0.3178 -1.5851
19556TIP3   OH280082   1.853   0.795   4.596  0.5642  0.6715  0.3273
19556TIP3    H180083   1.790   0.867   4.593  0.2829  0.4100 -0.9148
19556TIP3    H280084   1.871   0.782   4.689 -0.9822  0.9598  0.7000
19557TIP3   OH280085   3.504   6.642  14.314  0.1614 -0.7984  0.3111
19557TIP3    H180086   3.582   6.677  14.356 -0.6792  1.5001  0.0744
19557TIP3    H280087   3.432   6.672  14.368 -0.7851  0.3162 -1.4820
19558TIP3   OH280088   0.561   2.689  15.796 -0.2354  0.6352  0.1130
19558TIP3    H180089   0.557   2.625  15.867  0.9879  1.5998  1.1046
19558TIP3    H280090   0.646   2.673  15.754  1.2344  3.0440  1.8861
19559TIP3   OH280091   2.762   4.716   6.028 -0.1436  0.0929  0.0443
19559TIP3    H180092   2.852   4.736   6.052  0.6280 -0.2951 -2.2816
19559TIP3    H280093   2.767   4.692   5.936 -2.6320  0.0009 -0.1214
19560TIP3   OH280094   0.942   1.716  15.101 -0.2231 -0.1605 -0.5194
19560TIP3    H180095   0.859   1.709  15.147 -0.3045 -1.0554 -0.7903
19560TIP3    H280096   0.926   1.781  15.033 -0.7051 -0.3289 -0.5708
19561TIP3   OH280097   3.944   5.511   4.274  0.1645  0.1068 -0.3465
19561TIP3    H180098   4.025   5.524   4.323  0.3003  1.5135 -0.8962
19561TIP3    H280099   3.971   5.461   4.197 -0.1381 -2.6038  1.1686
19562TIP3   OH280100   0.233   2.898  15.635 -0.6310 -0.3974  0.3911
19562TIP3    H180101   0.160   2.956  15.659 -0.5294 -0.7518  1.5901
19562TIP3    H280102   0.193   2.833  15.576 -1.1633 -0.2739  0.6115
19563TIP3   OH280103   0.598   0.262   2.129 -0.0044 -0.3525 -0.0183
19563TIP3    H180104   0.573   0.353   2.140 -0.0063 -0.1357 -1.6222
19563TIP3    H280105   0.644   0.240   2.210 -0.1255  1.0243  0.4468
19564TIP3   OH280106   1.213   0.202  16.211 -0.0392  0.4058 -0.7337
19564TIP3    H180107   1.213   0.152  16.293  0.4491  0.3554 -0.7591
19564TIP3    H280108   1.165   0.147  16.149  0.6448 -0.1277 -0.8114
19565TIP3   OH280109   4.952   5.361  14.552  0.0579  0.4078  0.7828
19565TIP3    H180110   4.884   5.354  14.486  1.0159  1.6305 -0.4001
19565TIP3    H280111   4.909   5.338  14.634 -1.1840 -1.0736 -0.2304
19566TIP3   OH280112   5.534   3.488  15.733 -0.1621 -0.0206  0.3216
19566TIP3    H180113   5.451   3.536  15.735 -1.0624 -1.4941  1.8905
19566TIP3    H280114   5.551   3.473  15.640 -1.5992  0.4433 -0.0428
19567TIP3   OH280115   0.187   1.954  15.823 -0.3466  0.3451 -0.1046
19567TIP3    H180116   0.205   1.870  15.782 -0.9592  0.7082 -1.1426
19567TIP3    H280117   0.093   1.951  15.843 -0.4409  0.8979 -0.4355
19568TIP3   OH280118   6.542   1.618  15.423 -0.1604  0.2412 -0.7193
19568TIP3    H180119   6.611   1.671  15.383  0.7054  0.0284  0.4717
19568TIP3    H280120   6.532   1.653  15.511  0.5855 -1.6829  0.1802
19569TIP3   OH280121   3.471   3.252  12.013  0.0617  0.3884  0.1329
19569TIP3    H180122   3.477   3.276  12.105  0.8225  2.1499 -0.3187
19569TIP3    H280123   3.550   3.201  11.995 -0.9039 -1.4291  0.7973
19570TIP3   OH280124   6.144   1.267  12.734  0.2179  0.1541  0.1504
19570TIP3    H180125   6.187   1.336  12.683  0.2291  0.3647  0.4443
19570TIP3    H280126   6.073   1.311  12.780  0.5284  0.0670  0.7230
19571TIP3   OH280127   1.541   5.556   5.921  0.0582  0.6335 -0.9485
19571TIP3    H180128   1.606   5.609   5.967 -0.3383  0.6986 -0.4585
19571TIP3    H280129   1.593   5.493   5.871  0.5434 -1.3934  1.8272
19572TIP3   OH280130   3.806   1.701   2.266 -0.2990  0.2258 -0.5623
19572TIP3    H180131   3.821   1.678   2.358 -1.6737 -1.2461 -0.6645
19572TIP3    H280132   3.822   1.795   2.262 -2.8772  0.9128  1.8200
19573TIP3   OH280133   6.555   3.774   2.571  0.5501 -0.6189  0.0052
19573TIP3    H180134   6.563   3.862   2.609  1.2770 -0.4190 -0.5809
19573TIP3    H280135   6.494   3.785   2.497  1.2590 -0.4312 -0.5615
19574TIP3   OH280136   2.104   1.255  11.574  0.4208 -0.1100 -0.3091
19574TIP3    H180137   2.138   1.246  11.662  0.9035 -1.4115 -0.6075
19574TIP3    H280138   2.076   1.346  11.568  0.1448 -0.0714  1.2609
19575TIP3   OH280139   3.314   6.074   6.043 -0.3494  0.4424 -0.3149
19575TIP3    H180140   3.327   5.979   6.043 -0.7650  0.3712  0.5145
19575TIP3    H280141   3.308   6.098   5.951 -0.5675 -0.3830 -0.5236
19576TIP3   OH280142   1.017   5.374  13.530  0.0602 -0.2965  0.5237
19576TIP3    H180143   0.927   5.348  13.514  0.0874  0.1653 -0.4765
19576TIP3    H280144   1.057   5.377  13.443  0.8930  0.0078  0.9028
19577TIP3   OH280145   6.183   4.145  13.482 -0.6226  0.0417 -0.2965
19577TIP3    H180146   6.122   4.105  13.544 -1.6592  1.2453 -0.4819
19577TIP3    H280147   6.127   4.178  13.411  0.2724  0.8989 -0.6319
19578TIP3   OH280148   6.413   5.419  12.723 -0.0856  0.2566 -0.5787
19578TIP3    H180149   6.353   5.355  12.686 -0.1214 -0.4466  0.6731
19578TIP3    H280150   6.378   5.504  12.694 -1.2503 -0.1720 -0.4726
19579TIP3   OH280151   4.213   0.918   4.164  0.6324 -0.4229 -0.4658
19579TIP3    H180152   4.298   0.875   4.161  0.8820 -0.0659  0.8208
19579TIP3    H280153   4.194   0.927   4.257 -1.0973 -1.0405 -0.7124
19580TIP3   OH280154   3.708   0.076  15.979  0.3878  0.0016  0.0728
19580TIP3    H180155   3.744   0.021  15.909  0.9486  0.0427  0.3203
19580TIP3    H280156   3.630   0.029  16.009 -0.2937  0.3446 -1.0741
19581TIP3   OH280157   6.228   5.840   2.129  0.0070  0.8410  0.4622
19581TIP3    H180158   6.149   5.885   2.158  0.5524  0.7605  2.1514
19581TIP3    H280159   6.197   5.754   2.100 -0.4532  0.5235  1.8309
19582TIP3   OH280160   5.113   4.194   6.433  0.2515  0.4477  0.2924
19582TIP3    H180161   5.170   4.193   6.511  0.0113 -1.2937  0.5028
19582TIP3    H280162   5.073   4.107   6.433  0.6579  0.1962 -2.0909
19583TIP3   OH280163   6.742   1.946   1.873  0.1413 -0.2166  0.0802
19583TIP3    H180164   6.825   1.910   1.904  0.6980  1.9121  1.2545
19583TIP3    H280165   6.763   1.988   1.790 -0.2188 -1.2919 -0.5873
19584TIP3   OH280166   6.770   2.484   1.385  0.1124 -0.0849 -0.5192
19584TIP3    H180167   6.807   2.532   1.311 -1.7623  2.8678  0.2959
19584TIP3    H280168   6.834   2.496   1.456  0.0129  0.5705 -0.5380
19585TIP3   OH280169   4.485   1.180  14.297  0.6114 -0.3112  0.4181
19585TIP3    H180170   4.396   1.215  14.301  0.1278 -1.4728  0.3874
19585TIP3    H280171   4.511   1.190  14.205  1.3993  2.0518  0.8395
19586TIP3   OH280172   5.936   4.567  10.817  0.3598  0.5973 -0.2777
19586TIP3    H180173   5.882   4.536  10.744  0.8809  1.4851 -1.0603
19586TIP3    H280174   5.912   4.659  10.827  1.9144  1.1079 -0.8510
19587TIP3   OH280175   1.499   0.489  13.304  0.6370 -0.1774 -0.4185
19587TIP3    H180176   1.526   0.472  13.395  0.1168 -1.9028 -0.5521
19587TIP3    H280177   1.559   0.438  13.251  0.1285 -0.2100 -0.9746
19588TIP3   OH280178   5.539   2.779   0.959 -0.2864 -0.3746 -0.0973
19588TIP3    H180179   5.598   2.781   0.884  0.7425 -1.8073  0.6376
19588TIP3    H280180   5.457   2.817   0.926 -0.1282 -1.6875 -2.1717
19589TIP3   OH280181   0.197   6.241  12.316 -0.0571 -0.4273 -0.0697
19589TIP3    H180182   0.163   6.295  12.388 -2.2614 -0.5307 -0.9450
19589TIP3    H280183   0.181   6.151  12.344 -2.0475 -0.4499 -1.1249
19590TIP3   OH280184   2.599   5.095   4.721 -0.5524 -0.5828 -0.3368
19590TIP3    H180185   2.651   5.140   4.655  1.8290 -1.5364  0.7655
19590TIP3    H280186   2.533   5.047   4.670  0.2087 -0.0659 -1.8925
19591TIP3   OH280187   4.500   3.384  15.395 -0.1045  0.4632 -0.0746
19591TIP3    H180188   4.586   3.402  15.357 -0.9583  1.1111 -1.8213
19591TIP3    H280189   4.517   3.368  15.488  1.8342  1.0421 -0.2967
19592TIP3   OH280190   0.431   6.475   2.956 -0.3648  0.2586  0.4075
19592TIP3    H180191   0.442   6.558   2.909 -1.1758 -0.1822 -0.6175
19592TIP3    H280192   0.388   6.499   3.038 -1.0851  0.8001 -0.1158
19593TIP3   OH280193   0.204   3.812  16.004 -0.7259  0.3356  0.2640
19593TIP3    H180194   0.214   3.745  16.073 -2.6042  0.0738  0.3314
19593TIP3    H280195   0.265   3.881  16.029  1.4097 -1.3903  0.1135
19594TIP3   OH280196   0.169   5.106   3.381  0.8554  0.2001  0.0394
19594TIP3    H180197   0.197   5.188   3.420  1.4362 -0.4848  1.0961
19594TIP3    H280198   0.213   5.038   3.432  0.1591 -0.7832 -0.6240
19595TIP3   OH280199   3.241   3.451  11.968  0.3897  0.4744 -0.2273
19595TIP3    H180200   3.297   3.488  12.036  0.3730  1.5944 -0.7878
19595TIP3    H280201   3.298   3.390  11.920  0.1203 -1.1443  1.3936
19596TIP3   OH280202   4.097   6.187   1.595  0.0833 -0.3209  0.0659
19596TIP3    H180203   4.150   6.106   1.597  0.8154  0.1421 -0.1077
19596TIP3    H280204   4.011   6.159   1.626 -0.1040 -1.4661 -1.3814
19597TIP3   OH280205   2.252   3.083  16.447 -1.0048 -0.7520  0.3585
19597TIP3    H180206   2.236   3.139  16.370 -0.1626 -0.4272  0.4144
19597TIP3    H280207   2.216   3.132  16.520 -2.0097 -1.1587  0.1610
19598TIP3   OH280208   5.870   6.169  15.161 -0.0344  0.1749  0.1937
19598TIP3    H180209   5.876   6.238  15.095  1.2969 -1.0498 -1.0433
19598TIP3    H280210   5.790   6.189  15.210 -0.7735  1.4358 -1.4403
19599TIP3   OH280211   1.212   0.829  15.940  0.0581  0.8447 -0.5785
19599TIP3    H180212   1.252   0.799  15.858 -0.1297  0.1400 -0.4109
19599TIP3    H280213   1.148   0.895  15.913 -1.6363 -0.9773 -1.2155
19600TIP3   OH280214   2.956   5.691   0.647 -0.2779  0.3320  0.1374
19600TIP3    H180215   3.003   5.608   0.654  1.0614  1.0168 -0.2712
19600TIP3    H280216   2.872   5.668   0.608  1.5485 -0.4340 -3.8710
19601TIP3   OH280217   1.347   0.066  11.375 -0.0857 -0.3304  0.0928
19601TIP3    H180218   1.378   0.140  11.321  0.2356 -0.3497  0.2500
19601TIP3    H280219   1.327   0.105  11.460  0.6974 -0.5323  0.3758
19602TIP3   OH280220   3.864   1.723  16.170  0.2118  0.3332 -0.2804
19602TIP3    H180221   3.944   1.699  16.217  0.4619  0.2424 -0.7486
19602TIP3    H280222   3.872   1.817  16.155 -1.0550  0.8997  2.1014
19603TIP3   OH280223   0.672   5.486  14.729 -0.1010 -0.3999 -0.2817
19603TIP3    H180224   0.759   5.497  14.690  0.5803 -0.6616  1.0777
19603TIP3    H280225   0.647   5.397  14.708  0.0370 -0.3792 -0.5397
19604TIP3   OH280226   1.921   3.985  14.444  0.3672  0.0540  0.3910
19604TIP3    H180227   1.896   4.026  14.361  1.7049  0.2679  0.0736
19604TIP3    H280228   1.963   3.903  14.418  3.0612  1.2500  0.6561
19605TIP3   OH280229   0.149   0.734  14.713  0.2002  0.7684  0.1509
19605TIP3    H180230   0.227   0.691  14.748  0.1555  0.2905 -0.3255
19605TIP3    H280231   0.088   0.737  14.786 -0.4124 -1.4553 -0.1971
19606TIP3   OH280232   2.378   3.146  14.109 -0.1162 -0.3627 -0.1906
19606TIP3    H180233   2.397   3.240  14.108  0.6180 -0.5030 -1.3334
19606TIP3    H280234   2.283   3.141  14.120 -0.2644  0.5523 -0.8904
19607TIP3   OH280235   0.878   1.902  16.186  0.3148  0.2005  0.2970
19607TIP3    H180236   0.865   1.966  16.116  0.3624 -1.5264 -1.3548
19607TIP3    H280237   0.958   1.932  16.230  1.2145  0.4731 -1.4078
19608TIP3   OH280238   5.175   5.137   2.153 -0.4960  0.0694  0.0124
19608TIP3    H180239   5.173   5.041   2.152  0.7293 -0.0143  1.1753
19608TIP3    H280240   5.163   5.160   2.246 -0.6027  1.0329 -0.2294
19609TIP3   OH280241   5.515   1.642  11.895  0.0449  0.4870  0.3428
19609TIP3    H180242   5.577   1.599  11.953  0.0347  1.3227  0.9970
19609TIP3    H280243   5.468   1.571  11.852  1.2368 -0.1597  0.0658
19610TIP3   OH280244   4.649   2.713   2.036 -0.1683 -0.0417 -1.2301
19610TIP3    H180245   4.600   2.742   1.959 -0.9314  1.6933 -0.1658
19610TIP3    H280246   4.707   2.786   2.057 -0.4849 -0.1664  0.2308
19611TIP3   OH280247   2.466   4.941  17.077  0.2381 -0.2358 -0.0681
19611TIP3    H180248   2.545   4.957  17.129  0.2495  1.8719 -0.6106
19611TIP3    H280249   2.457   4.846  17.075  2.5870 -0.5372  0.2782
19612TIP3   OH280250   2.071   5.281  14.312  0.2209 -0.1711 -0.1822
19612TIP3    H180251   2.080   5.348  14.380  0.7371  3.0926 -3.1472
19612TIP3    H280252   1.984   5.296  14.276  0.4144 -1.0048 -1.0292
19613TIP3   OH280253   4.623   4.819   6.829  0.3587  0.1295 -0.0442
19613TIP3    H180254   4.611   4.808   6.735  3.7622  0.4998 -0.6553
19613TIP3    H280255   4.717   4.832   6.840 -0.0819  1.5723  3.2912
19614TIP3   OH280256   4.963   4.459   5.365 -0.9153  0.4367 -0.2471
19614TIP3    H180257   4.874   4.429   5.381 -0.3918 -0.4167  1.2638
19614TIP3    H280258   5.015   4.416   5.432  0.5586  1.3472 -0.7637
19615TIP3   OH280259   2.996   4.512  14.225  0.2159  0.0143 -0.0184
19615TIP3    H180260   3.021   4.472  14.309 -0.3459 -0.4702 -0.0774
19615TIP3    H280261   2.902   4.496  14.218 -0.0916  1.6310  0.0953
19616TIP3   OH280262   5.835   0.727   2.826 -0.0614 -0.1692 -0.6802
19616TIP3    H180263   5.853   0.821   2.825 -2.1466  0.2897 -1.4186
19616TIP3    H280264   5.859   0.699   2.915 -0.6488  1.3517 -0.0030
19617TIP3   OH280265   4.677   4.616   0.714  0.3020  0.5565 -0.2438
19617TIP3    H180266   4.685   4.569   0.631 -1.2249  0.9510 -0.6357
19617TIP3    H280267   4.585   4.606   0.739  0.0296  2.9291 -0.0943
19618TIP3   OH280268   5.435   1.614  11.267 -0.5779 -0.0768 -0.4158
19618TIP3    H180269   5.366   1.580  11.210  0.1946 -1.4004 -0.6002
19618TIP3    H280270   5.516   1.577  11.232  0.0754  0.2722  0.6604
19619TIP3   OH280271   3.626   6.442  16.542 -0.0175  0.1967 -0.2393
19619TIP3    H180272   3.689   6.507  16.512 -1.8681  0.9861 -2.7984
19619TIP3    H280273   3.659   6.359  16.507  0.1034  0.4575 -0.7469
19620TIP3   OH280274   3.752   2.740   6.688  0.2058  0.0431  0.4675
19620TIP3    H180275   3.807   2.697   6.622 -1.2536 -0.5007 -0.4465
19620TIP3    H280276   3.810   2.753   6.763  1.8339  0.3937 -0.7982
19621TIP3   OH280277   1.574   0.434   2.785  0.9399  0.3467 -0.5655
19621TIP3    H180278   1.615   0.519   2.806  0.7082 -0.0096  1.5363
19621TIP3    H280279   1.496   0.457   2.735  1.4726  1.2799 -1.0117
19622TIP3   OH280280   0.582   4.093   3.400  0.3601  0.6347  0.2078
19622TIP3    H180281   0.522   4.121   3.330  1.2047 -0.5025 -1.0240
19622TIP3    H280282   0.538   4.019   3.441  0.2663  0.7371  0.2933
19623TIP3   OH280283   3.817   0.791   1.606 -0.0269 -0.5913  0.6496
19623TIP3    H180284   3.825   0.759   1.516 -3.5980  0.4052 -0.1472
19623TIP3    H280285   3.813   0.886   1.597  0.6556 -0.4070  2.0249
19624TIP3   OH280286   3.523   2.162  10.669  0.4317  0.8565  0.2806
19624TIP3    H180287   3.454   2.227  10.658  1.0580  1.4422 -0.2514
19624TIP3    H280288   3.576   2.169  10.590 -0.5826 -1.6347 -0.7340
19625TIP3   OH280289   4.807   1.983   1.069 -0.4443  0.5135 -0.1101
19625TIP3    H180290   4.754   2.046   1.020 -1.5942  0.1410  0.6064
19625TIP3    H280291   4.768   1.983   1.157 -0.1385 -0.8207  0.0356
19626TIP3   OH280292   3.357   4.670  13.571 -0.3480  0.7655  0.5959
19626TIP3    H180293   3.262   4.657  13.576 -0.1323 -2.0499 -0.8485
19626TIP3    H280294   3.369   4.723  13.492 -0.6917  1.2294  0.8444
19627TIP3   OH280295   2.445   4.751  11.294 -0.3354  0.3006 -0.3400
19627TIP3    H180296   2.454   4.750  11.198 -0.8164  1.6393 -0.4242
19627TIP3    H280297   2.503   4.681  11.324 -0.3885 -0.3271 -1.6261
19628TIP3   OH280298   3.644   4.846  15.806  0.6959  0.2377 -0.2928
19628TIP3    H180299   3.666   4.846  15.713  0.8610  0.6072 -0.2545
19628TIP3    H280300   3.557   4.886  15.811 -0.5532 -2.2524 -0.5626
19629TIP3   OH280301   0.200   6.783  14.210  0.5965  0.2165  0.2297
19629TIP3    H180302   0.266   6.748  14.269 -0.1006 -0.5035  0.6014
19629TIP3    H280303   0.147   6.707  14.185 -0.7681  0.9309  0.8327
19630TIP3   OH280304   2.077   4.611   0.060  0.6409 -0.1459 -0.4191
19630TIP3    H180305   2.102   4.696   0.023 -1.0004 -0.7116 -3.1419
19630TIP3    H280306   1.988   4.625   0.092 -0.7256 -1.3242 -3.3109
19631TIP3   OH280307   1.212   5.324  11.831 -0.3713 -0.3389 -0.5954
19631TIP3    H180308   1.205   5.394  11.897 -0.8561 -1.1308  0.2187
19631TIP3    H280309   1.191   5.367  11.748 -0.7929  0.4572 -0.0955
19632TIP3   OH280310   2.290   3.652  11.344 -0.0228  0.3024  0.1986
19632TIP3    H180311   2.297   3.662  11.439  1.5139 -0.1091  0.1656
19632TIP3    H280312   2.197   3.663  11.325 -0.0965  2.4344  1.5053
19633TIP3   OH280313   3.141   0.634   0.853  0.1821  0.1141 -0.4740
19633TIP3    H180314   3.115   0.669   0.768 -2.4752 -0.1024  0.1722
19633TIP3    H280315   3.061   0.635   0.905  1.2181 -1.9298  1.3003
19634TIP3   OH280316   0.492   3.364  16.011 -0.1092 -0.2978  0.3608
19634TIP3    H180317   0.519   3.449  16.045  1.4763 -0.8825  0.6243
19634TIP3    H280318   0.402   3.353  16.043 -0.6453  1.6197 -0.3792
19635TIP3   OH280319   2.930   0.182  13.571  0.3971 -0.3671  0.8535
19635TIP3    H180320   2.955   0.202  13.661 -1.8692  0.5347  1.3459
19635TIP3    H280321   2.840   0.151  13.578 -0.4045  1.2923 -1.2537
19636TIP3   OH280322   1.307   5.927  12.140  0.3939 -0.6926  0.1582
19636TIP3    H180323   1.395   5.962  12.130  0.0474 -0.0854 -1.0247
19636TIP3    H280324   1.278   5.911  12.050 -1.9960  2.4401  0.1974
19637TIP3   OH280325   2.505   2.883   0.547 -0.1653  0.5797 -0.4034
19637TIP3    H180326   2.512   2.839   0.462  1.3862 -0.1475  0.0685
19637TIP3    H280327   2.534   2.973   0.530  2.0943 -0.0725 -0.2949
19638TIP3   OH280328   2.321   2.908   5.029  0.6053  0.0037  0.0439
19638TIP3    H180329   2.366   2.827   5.006 -0.4863 -0.3724 -0.9319
19638TIP3    H280330   2.322   2.911   5.124  0.3732 -1.3507  0.1078
19639TIP3   OH280331   5.272   0.985   2.170  0.1604  0.4240  0.1493
19639TIP3    H180332   5.323   1.062   2.194 -0.6482  0.7632  0.8367
19639TIP3    H280333   5.328   0.911   2.194  0.8487  0.7834 -0.3117
19640TIP3   OH280334   4.162   1.902   5.588 -0.1936 -0.3259 -0.9447
19640TIP3    H180335   4.173   1.822   5.639  1.1886 -1.9764 -3.6529
19640TIP3    H280336   4.070   1.925   5.600 -0.7103 -2.4924 -0.3011
19641TIP3   OH280337   5.353   4.103   5.051 -0.4939 -0.0899  0.1874
19641TIP3    H180338   5.393   4.188   5.073 -0.8471 -0.2218  1.4273
19641TIP3    H280339   5.270   4.103   5.098 -1.3529 -0.3857 -1.2847
19642TIP3   OH280340   0.781   3.729   1.308  0.0679  0.2336  0.1857
19642TIP3    H180341   0.829   3.757   1.386  1.4936 -0.7329 -0.3197
19642TIP3    H280342   0.759   3.638   1.324  0.0932  0.1196 -0.3970
19643TIP3   OH280343   6.750   1.918  13.038  0.0383  0.6970  0.1418
19643TIP3    H180344   6.722   2.009  13.027 -1.3408  0.2808  0.0624
19643TIP3    H280345   6.759   1.907  13.133 -2.8079  0.0939  0.4111
19644TIP3   OH280346   3.297   1.739   0.675 -0.4189 -0.6327 -0.0274
19644TIP3    H180347   3.261   1.710   0.758 -0.5400  0.4775  0.3155
19644TIP3    H280348   3.380   1.692   0.667 -0.4706 -0.8452  0.6542
19645TIP3   OH280349   1.753   1.797  12.047 -0.0745  0.0196 -0.0131
19645TIP3    H180350   1.688   1.867  12.040 -1.7678 -1.3834  0.7718
19645TIP3    H280351   1.808   1.822  12.120 -1.4916 -0.0568  1.1211
19646TIP3   OH280352   5.082   0.418  15.410  0.2286  0.3613 -0.3039
19646TIP3    H180353   5.046   0.333  15.387  0.6411 -0.0077  0.3712
19646TIP3    H280354   5.018   0.481  15.378 -0.0801 -0.1994 -0.8096
19647TIP3   OH280355   0.106   5.081   6.158 -0.2117 -0.5886 -0.3342
19647TIP3    H180356   0.068   5.109   6.242 -1.0075  0.1271 -0.9081
19647TIP3    H280357   0.197   5.111   6.161 -0.5688  0.5236 -0.2108
19648TIP3   OH280358   4.626   0.578   2.956  0.0729  0.0897  0.1035
19648TIP3    H180359   4.619   0.670   2.931 -0.8009  0.0216  0.0402
19648TIP3    H280360   4.686   0.578   3.031 -0.4644  0.8125  0.5537
19649TIP3   OH280361   3.737   0.462  14.298 -0.3244  0.0480 -0.1805
19649TIP3    H180362   3.750   0.440  14.206  3.2618 -0.0079  0.1916
19649TIP3    H280363   3.689   0.387  14.334 -1.1114 -0.2776 -1.8147
19650TIP3   OH280364   5.705   2.722   3.777 -0.6687 -0.2515 -0.2026
19650TIP3    H180365   5.747   2.805   3.800 -1.4681 -0.1597  1.0270
19650TIP3    H280366   5.619   2.748   3.742 -0.5819 -0.5269 -0.6271
19651TIP3   OH280367   5.921   2.762  13.430  0.1312 -0.6353 -0.0955
19651TIP3    H180368   5.978   2.836  13.410 -0.1136 -0.8446 -1.6547
19651TIP3    H280369   5.958   2.689  13.380 -1.0108 -0.9723 -0.4731
19652TIP3   OH280370   6.099   2.000  13.300  0.0698 -0.3059  0.2210
19652TIP3    H180371   6.021   1.957  13.335 -0.1359  0.1783  0.3586
19652TIP3    H280372   6.161   1.999  13.372  0.3353 -1.0343 -0.0041
19653TIP3   OH280373   2.698   1.549  11.313  0.0928  0.1651 -0.3297
19653TIP3    H180374   2.706   1.458  11.282  1.5820  0.0446  0.3334
19653TIP3    H280375   2.745   1.551  11.396 -1.4603  1.1519  0.5829
19654TIP3   OH280376   1.780   4.339   4.259  0.5869 -0.0239  0.0684
19654TIP3    H180377   1.716   4.342   4.188  2.7104 -1.2503 -2.0668
19654TIP3    H280378   1.865   4.344   4.214  2.0763 -1.7447  2.4401
19655TIP3   OH280379   5.738   4.525   0.800 -0.4164 -0.3892 -0.9612
19655TIP3    H180380   5.691   4.555   0.878 -2.1387  1.1400 -2.5063
19655TIP3    H280381   5.698   4.440   0.780  0.0193 -0.7801 -0.2087
19656TIP3   OH280382   0.142   4.910  13.410 -0.2532  0.3506  0.3732
19656TIP3    H180383   0.194   4.833  13.388 -0.7440 -0.3842  1.7060
19656TIP3    H280384   0.176   4.939  13.494 -0.3305  1.3853  0.0647
19657TIP3   OH280385   5.426   2.714  14.778 -0.2405 -0.3280 -0.0253
19657TIP3    H180386   5.363   2.750  14.715  1.1659  2.4710  0.0468
19657TIP3    H280387   5.510   2.748  14.750  0.5664  0.2500  2.8052
19658TIP3   OH280388   1.087   1.102  13.195  0.1717  0.9192  0.2479
19658TIP3    H180389   1.035   1.025  13.175  0.7178  0.7620 -0.6342
19658TIP3    H280390   1.060   1.128  13.283  0.7625 -0.9199  1.0199
19659TIP3   OH280391   4.344   3.064  12.604 -0.1220 -0.0204 -0.4580
19659TIP3    H180392   4.259   3.084  12.566  0.3807  2.8902 -0.2937
19659TIP3    H280393   4.404   3.066  12.529  0.0311 -0.5297 -0.3555
19660TIP3   OH280394   5.665   0.158   1.897  0.0290 -0.0867  0.7173
19660TIP3    H180395   5.636   0.112   1.976 -0.2060  0.4100  0.9219
19660TIP3    H280396   5.585   0.193   1.858  0.3304  1.3334  1.3150
19661TIP3   OH280397   0.978   4.347  16.239 -0.2593 -0.1017 -0.0128
19661TIP3    H180398   0.970   4.324  16.331  1.8238  0.4175  0.3543
19661TIP3    H280399   1.038   4.282  16.203 -0.1336  0.3954 -0.7226
19662TIP3   OH280400   3.497   5.954   1.083 -0.3147  0.0019  0.1240
19662TIP3    H180401   3.487   6.001   1.000  1.8516 -2.1618 -1.5134
19662TIP3    H280402   3.586   5.975   1.112 -0.8416  0.2730  1.6452
19663TIP3   OH280403   6.032   4.249   0.380  0.1440 -0.0514 -0.1003
19663TIP3    H180404   6.075   4.308   0.442 -0.1092 -0.0693  0.0925
19663TIP3    H280405   6.090   4.249   0.304  0.9893 -0.8151  0.5102
19664TIP3   OH280406   2.522   2.725   5.064 -0.1987 -0.0765 -0.5893
19664TIP3    H180407   2.524   2.710   5.159 -0.2484  1.0327 -0.3932
19664TIP3    H280408   2.614   2.742   5.041 -0.2266 -0.0503 -0.6818
19665TIP3   OH280409   0.602   2.468  11.362 -0.0298 -0.2719  0.1181
19665TIP3    H180410   0.617   2.505  11.275 -1.3121 -0.1193 -0.0531
19665TIP3    H280411   0.507   2.455  11.367  0.1309 -1.2237  1.1188
19666TIP3   OH280412   2.371   3.215  11.475 -0.2402  0.7308 -0.2467
19666TIP3    H180413   2.343   3.272  11.403  1.0950 -0.7095 -1.9953
19666TIP3    H280414   2.349   3.127  11.446  2.7331 -0.1406 -0.1574
19667TIP3   OH280415   5.139   6.448  16.608  0.0965  0.0175  0.0405
19667TIP3    H180416   5.156   6.354  16.608  1.6159  0.1237 -3.6836
19667TIP3    H280417   5.045   6.456  16.625  0.3003 -1.9243  2.6340
19668TIP3   OH280418   3.825   5.473  16.949  0.0332 -0.4223 -0.3894
19668TIP3    H180419   3.739   5.500  16.981  0.5009 -1.2137  1.6950
19668TIP3    H280420   3.807   5.427  16.867 -1.3320  0.8071 -0.8290
19669TIP3   OH280421   3.443   2.727   1.658  0.3054 -0.8322  0.3760
19669TIP3    H180422   3.366   2.694   1.703 -0.7901  0.6433 -0.3272
19669TIP3    H280423   3.426   2.821   1.647  1.0240 -0.9265 -2.0678
19670TIP3   OH280424   1.865   6.141  12.855  0.4903  0.1436 -0.5234
19670TIP3    H180425   1.892   6.222  12.811  0.3453 -0.4397 -1.7207
19670TIP3    H280426   1.945   6.111  12.899  0.5744  0.8692 -0.1577
19671TIP3   OH280427   1.343   0.146   5.933 -0.3465 -0.1664  0.0152
19671TIP3    H180428   1.346   0.148   6.029  1.6598 -0.1031 -0.0058
19671TIP3    H280429   1.360   0.237   5.907 -1.2705 -0.1078 -0.4099
19672TIP3   OH280430   2.464   4.460  15.384 -0.0139  0.1495  0.1332
19672TIP3    H180431   2.400   4.427  15.446  0.1193  2.6877  1.7676
19672TIP3    H280432   2.453   4.555  15.385  3.6910  0.7354  0.4997
19673TIP3   OH280433   0.258   2.885   1.723  0.1658  0.3527 -0.1228
19673TIP3    H180434   0.185   2.917   1.777  0.6310  2.0376 -0.4490
19673TIP3    H280435   0.322   2.852   1.786  0.4711  1.8047  0.3775
19674TIP3   OH280436   3.365   6.568   5.901 -0.1531 -0.4167  0.2464
19674TIP3    H180437   3.380   6.485   5.947  0.5534  0.2687  1.3069
19674TIP3    H280438   3.348   6.631   5.971 -2.1664  0.0704 -0.6036
19675TIP3   OH280439   5.043   1.344  16.951 -0.3257 -0.0696 -0.5136
19675TIP3    H180440   5.082   1.404  16.888 -0.3871  0.8616  0.3126
19675TIP3    H280441   4.967   1.391  16.986 -2.3198 -1.8502 -2.1411
19676TIP3   OH280442   1.408   3.046   1.151  0.1356  0.1906 -0.2639
19676TIP3    H180443   1.413   2.957   1.117  0.3906  0.1322 -0.0802
19676TIP3    H280444   1.481   3.092   1.110  0.2534  0.2026 -0.0469
19677TIP3   OH280445   5.050   0.192  15.820  0.3323  0.3908  0.4237
19677TIP3    H180446   4.958   0.192  15.845  0.2320  1.2806  0.1075
19677TIP3    H280447   5.051   0.160  15.730  0.0094  2.7977 -0.5139
19678TIP3   OH280448   1.036   6.699  12.797 -0.4551  0.2708  0.6992
19678TIP3    H180449   1.089   6.619  12.803 -1.0934 -0.0729  2.1677
19678TIP3    H280450   0.997   6.708  12.883 -2.6986  0.5887 -0.2715
19679TIP3   OH280451   6.393   6.526  16.584  0.0782  0.1721  0.1472
19679TIP3    H180452   6.421   6.435  16.581  1.7537  0.6716 -0.3488
19679TIP3    H280453   6.310   6.527  16.536 -1.6456 -1.5907  2.8519
19680TIP3   OH280454   4.865   2.775   0.831  0.1674  0.0185 -0.3093
19680TIP3    H180455   4.803   2.823   0.776 -1.5896  0.4515  1.8951
19680TIP3    H280456   4.944   2.830   0.832 -0.1934  0.5910 -1.3735
19681TIP3   OH280457   2.208   4.182  12.197 -0.2906 -0.1035 -0.7130
19681TIP3    H180458   2.283   4.240  12.193  0.8453 -1.4703 -0.1974
19681TIP3    H280459   2.194   4.167  12.290 -0.1462 -1.1456 -0.8457
19682TIP3   OH280460   1.706   1.481   2.535 -0.1437  0.1120 -0.1931
19682TIP3    H180461   1.623   1.515   2.501  0.0620  0.4151 -0.3958
19682TIP3    H280462   1.700   1.495   2.630  0.4766  1.9618 -0.3899
19683TIP3   OH280463   0.076   4.303  11.385  0.4289 -0.2570 -0.2585
19683TIP3    H180464  -0.018   4.297  11.366  0.5796 -0.5196 -0.9370
19683TIP3    H280465   0.082   4.284  11.479 -0.1511 -0.6823 -0.3002
19684TIP3   OH280466   1.591   1.468  15.009  0.6849  0.1838 -0.5719
19684TIP3    H180467   1.631   1.487  14.924 -0.3972 -0.4941 -1.2657
19684TIP3    H280468   1.505   1.511  15.005 -0.7802 -2.5802 -1.2065
19685TIP3   OH280469   5.170   3.507   2.491  0.2744 -0.3360 -0.1681
19685TIP3    H180470   5.078   3.509   2.464  0.1795  0.4102  0.1769
19685TIP3    H280471   5.173   3.563   2.569  0.9262 -0.7684  0.1298
19686TIP3   OH280472   2.301   5.950   1.573 -0.4141 -1.0499  0.3858
19686TIP3    H180473   2.319   6.044   1.577  1.1893 -1.3572  3.2528
19686TIP3    H280474   2.251   5.938   1.492 -2.4493  2.5258  0.9136
19687TIP3   OH280475   2.941   3.101   2.836 -0.4113  0.0835 -0.4052
19687TIP3    H180476   2.950   3.028   2.774 -0.6775  0.6271 -1.0936
19687TIP3    H280477   2.874   3.157   2.797  2.2550  2.5804 -1.7464
19688TIP3   OH280478   0.291   2.083   5.556  0.0536 -0.1443  0.2444
19688TIP3    H180479   0.291   2.174   5.527 -1.1261  0.3913  1.7915
19688TIP3    H280480   0.236   2.038   5.492  1.0816  0.0974 -0.8398
19689TIP3   OH280481   1.947   3.832  16.172  0.4163  0.1033  0.2277
19689TIP3    H180482   2.005   3.797  16.104  0.1886 -2.0061  1.0448
19689TIP3    H280483   1.861   3.839  16.130  0.6993  0.7844 -0.2564
19690TIP3   OH280484   5.967   4.034  17.120  0.7502  0.0574  0.0827
19690TIP3    H180485   6.053   4.025  17.079  1.0962 -1.3486  1.0248
19690TIP3    H280486   5.905   4.008  17.052  1.0921  0.6118 -0.4506
19691TIP3   OH280487   2.815   2.055   5.323 -0.1306 -0.3727  0.5953
19691TIP3    H180488   2.728   2.018   5.308 -0.2520 -1.1045  2.8347
19691TIP3    H280489   2.800   2.131   5.378  0.7129 -1.2723  2.1405
19692TIP3   OH280490   4.797   3.484   0.742 -0.0831  0.1631  0.0186
19692TIP3    H180491   4.832   3.555   0.689 -0.7009 -0.9890 -2.0158
19692TIP3    H280492   4.710   3.515   0.769  0.0411  0.5672 -0.0409
19693TIP3   OH280493   5.763   3.406   5.979  0.3463 -0.1331  0.3070
19693TIP3    H180494   5.838   3.346   5.989 -0.1065 -0.6148  0.8347
19693TIP3    H280495   5.725   3.381   5.895  0.5510 -0.1347  0.2120
19694TIP3   OH280496   2.149   5.277   2.624  0.0904 -0.0224  0.0157
19694TIP3    H180497   2.087   5.343   2.653 -1.1870 -0.5851 -1.3303
19694TIP3    H280498   2.222   5.284   2.686 -1.2510  0.7131  1.5847
19695TIP3   OH280499   1.793   0.025  13.043 -0.1002 -0.1778 -0.5653
19695TIP3    H180500   1.718  -0.025  13.010  0.1302  0.3092 -1.9021
19695TIP3    H280501   1.856  -0.041  13.072 -1.3863 -0.5872  1.4434
19696TIP3   OH280502   1.144   4.590  12.690 -0.4975 -0.1383 -0.0139
19696TIP3    H180503   1.208   4.610  12.758  1.7075 -0.9403 -1.7535
19696TIP3    H280504   1.063   4.572  12.739  1.2045 -1.6861  2.4946
19697TIP3   OH280505   2.030   6.514   3.668 -0.6026 -0.2167 -0.6373
19697TIP3    H180506   2.110   6.502   3.617  0.2167  1.1296  0.2840
19697TIP3    H280507   1.975   6.571   3.615 -0.6582 -0.5493 -0.9436
19698TIP3   OH280508   2.620   3.312   2.967  0.3310  0.2217 -0.1521
19698TIP3    H180509   2.534   3.283   2.937  0.2172  1.2593 -0.8782
19698TIP3    H280510   2.602   3.355   3.050  0.0757  0.8209 -0.5106
19699TIP3   OH280511   5.419   6.420   1.076  0.0646  0.0332  0.1013
19699TIP3    H180512   5.353   6.418   1.145  0.2818 -0.6923  0.2982
19699TIP3    H280513   5.461   6.334   1.081  0.6939  0.3098 -0.3399
19700TIP3   OH280514   1.233   2.803   4.531 -0.1443  0.0634  0.1742
19700TIP3    H180515   1.238   2.894   4.559  2.3413  0.3678 -0.9164
19700TIP3    H280516   1.317   2.765   4.558 -1.7039 -2.3841  1.9545
19701TIP3   OH280517   0.371   2.540   1.072 -0.0593 -0.6561 -0.3557
19701TIP3    H180518   0.418   2.552   1.155  1.8377  1.9957 -1.6328
19701TIP3    H280519   0.413   2.464   1.033  0.0589 -1.0437  0.4983
19702TIP3   OH280520   3.933   4.361  13.387  0.3616 -0.0994 -0.2267
19702TIP3    H180521   3.908   4.362  13.295 -0.9595 -0.2415  0.1096
19702TIP3    H280522   3.996   4.432  13.396  0.8117 -0.3419 -1.3122
19703TIP3   OH280523   3.541   4.277  15.798  0.4561  0.4699  0.6111
19703TIP3    H180524   3.460   4.276  15.850 -0.9553  0.6700 -1.4258
19703TIP3    H280525   3.603   4.328  15.850 -1.5211  2.4386  1.1961
19704TIP3   OH280526   2.925   3.710  14.044  0.0459  0.3978 -0.6867
19704TIP3    H180527   2.879   3.772  14.100  1.3685  1.3315 -0.5990
19704TIP3    H280528   2.863   3.691  13.974 -0.4932  1.6278 -0.5726
19705TIP3   OH280529   0.312   1.386  13.944 -0.3462 -0.3078 -0.6857
19705TIP3    H180530   0.333   1.468  13.988 -1.4139 -0.9314  1.0731
19705TIP3    H280531   0.218   1.390  13.927 -0.1160 -0.4526 -2.2090
19706TIP3   OH280532   2.368   1.811   3.916  0.3343  0.8073  0.2944
19706TIP3    H180533   2.423   1.887   3.936 -1.1407  2.6226 -2.0782
19706TIP3    H280534   2.429   1.748   3.878  1.1604  1.8529 -0.1823
19707TIP3   OH280535   0.070   2.510  17.070  0.0268  0.6037  0.2371
19707TIP3    H180536   0.087   2.432  17.123  0.9589  0.2424 -0.5646
19707TIP3    H280537   0.028   2.571  17.130 -1.0963 -0.6525  0.7959
19708TIP3   OH280538   1.483   2.424  14.686  0.2398 -0.1544  0.3413
19708TIP3    H180539   1.548   2.428  14.615  1.3537 -3.7732  0.9687
19708TIP3    H280540   1.504   2.499  14.741  4.0082 -1.0844  0.4718
19709TIP3   OH280541   1.237   5.750  14.078 -0.0544  0.4084  0.0784
19709TIP3    H180542   1.221   5.717  14.166 -2.0467  0.8045 -0.0891
19709TIP3    H280543   1.164   5.810  14.061  0.0640  0.0533 -1.9902
19710TIP3   OH280544   2.310   1.684   3.001 -0.2379  0.0939 -0.1388
19710TIP3    H180545   2.227   1.638   3.013 -1.0909  1.6553  0.1559
19710TIP3    H280546   2.327   1.726   3.085 -0.0605  1.1930 -0.6998
19711TIP3   OH280547   4.786   0.729  13.068 -0.2454 -0.1935  0.0271
19711TIP3    H180548   4.696   0.726  13.036 -0.2049  1.3273 -0.2725
19711TIP3    H280549   4.790   0.658  13.133 -1.4703 -0.6827 -0.3921
19712TIP3   OH280550   2.522   4.001   4.623 -0.1513 -0.4592 -0.0019
19712TIP3    H180551   2.606   3.968   4.593  0.7366  0.8927  0.8830
19712TIP3    H280552   2.514   3.967   4.712 -0.4230 -0.3683  0.0087
19713TIP3   OH280553   1.700   0.646   6.322  0.0566 -0.0063 -0.0005
19713TIP3    H180554   1.650   0.568   6.300 -2.5986  1.8583 -1.1229
19713TIP3    H280555   1.736   0.675   6.238 -0.1725  0.7235  0.1489
19714TIP3   OH280556   4.048   5.222  16.914  0.2902 -0.4307  0.1651
19714TIP3    H180557   4.051   5.248  16.822 -1.0407 -1.0948 -0.0923
19714TIP3    H280558   4.135   5.187  16.932  0.6126 -0.1446 -0.7896
19715TIP3   OH280559   4.765   3.731   2.325 -0.3421  0.3694 -0.0402
19715TIP3    H180560   4.821   3.804   2.352 -0.9170  0.5495  0.6755
19715TIP3    H280561   4.685   3.742   2.375  0.0276 -1.4842  1.0477
19716TIP3   OH280562   3.296   6.453   2.009  0.3204 -0.3326 -0.4091
19716TIP3    H180563   3.307   6.489   1.921 -0.8313 -0.6509 -0.6986
19716TIP3    H280564   3.268   6.527   2.062  2.0244  0.1012 -0.0438
19717TIP3   OH280565   6.168   5.800  10.990 -0.9632 -0.0068 -0.0175
19717TIP3    H180566   6.126   5.729  10.941  2.9066 -1.5019 -1.5079
19717TIP3    H280567   6.216   5.850  10.924  1.2381  0.3207  1.7129
19718TIP3   OH280568   6.686   0.322   4.725  0.4375 -0.5776  0.1893
19718TIP3    H180569   6.632   0.245   4.745 -1.6736  1.3855  2.8613
19718TIP3    H280570   6.686   0.327   4.630 -2.7920 -1.6907  0.0067
19719TIP3   OH280571   5.065   2.388  15.072  0.0753 -0.5557  0.1193
19719TIP3    H180572   5.058   2.361  15.164  0.5246  0.7106  0.5457
19719TIP3    H280573   5.152   2.427  15.065 -0.2532  0.0662 -0.6495
19720TIP3   OH280574   4.444   1.343   0.056  0.0712 -0.3510 -0.3695
19720TIP3    H180575   4.489   1.323   0.138 -0.2753 -0.6677 -0.2510
19720TIP3    H280576   4.511   1.334  -0.011  0.8230  1.7431  0.0462
19721TIP3   OH280577   6.532   4.155  15.736  0.1480 -0.4072  0.1839
19721TIP3    H180578   6.516   4.137  15.644  0.5362  0.2045 -0.0045
19721TIP3    H280579   6.528   4.068  15.778 -1.1901 -0.5640 -0.2110
19722TIP3   OH280580   1.033   0.776  12.760 -0.0880  0.5197 -0.0856
19722TIP3    H180581   1.072   0.837  12.823 -2.3939  1.6738  0.3376
19722TIP3    H280582   1.074   0.692  12.780  1.1947  1.3758  1.1460
19723TIP3   OH280583   0.021   2.650   4.600 -0.2677 -0.2193 -0.5740
19723TIP3    H180584   0.105   2.692   4.580  0.1008  0.2602  1.6779
19723TIP3    H280585  -0.045   2.711   4.565  0.3116  0.1935 -0.9629
19724TIP3   OH280586   2.948   1.103   0.476 -0.2855 -1.0052  0.0102
19724TIP3    H180587   2.893   1.152   0.415  0.0653 -1.6347 -0.8251
19724TIP3    H280588   3.033   1.147   0.472 -1.1096  1.1808  2.7188
19725TIP3   OH280589   1.673   0.653  12.352 -0.0271  0.5027 -0.3099
19725TIP3    H180590   1.737   0.707  12.304  2.2911 -1.3007  0.5315
19725TIP3    H280591   1.597   0.648  12.294  1.2340  1.3965 -2.1449
19726TIP3   OH280592   3.377   2.875   2.641 -0.1527  0.3342 -0.2507
19726TIP3    H180593   3.457   2.904   2.685 -1.0676  1.5629  0.6651
19726TIP3    H280594   3.323   2.839   2.711  0.5294 -2.8600 -1.1942
19727TIP3   OH280595   0.092   2.090   1.652  0.3095 -0.7063  0.3223
19727TIP3    H180596   0.187   2.095   1.653  0.3639  0.9651 -2.9080
19727TIP3    H280597   0.070   2.057   1.565 -2.1024 -2.2107  1.3808
19728TIP3   OH280598   4.235   6.507  16.311  0.4101 -0.1361 -0.7544
19728TIP3    H180599   4.204   6.416  16.309 -0.8020  0.2686 -1.7885
19728TIP3    H280600   4.279   6.515  16.396 -2.6115 -0.7161  1.0232
19729TIP3   OH280601   1.831   4.537  16.672  0.2838 -0.3273  0.0280
19729TIP3    H180602   1.777   4.560  16.747  0.7004  0.2751  0.1534
19729TIP3    H280603   1.883   4.463  16.701 -0.6016 -1.0325 -0.1559
19730TIP3   OH280604   0.188   2.201  16.403 -0.1173  0.2031  0.6530
19730TIP3    H180605   0.211   2.293  16.420 -1.0451  0.4908  0.4372
19730TIP3    H280606   0.264   2.165  16.359 -0.5791  1.4891 -1.3206
19731TIP3   OH280607   1.838   3.279   3.245 -0.9519  0.3795 -0.5186
19731TIP3    H180608   1.760   3.228   3.268 -0.2379  0.3303  2.1767
19731TIP3    H280609   1.807   3.370   3.242 -0.9150  0.5977  2.4003
19732TIP3   OH280610   3.515   3.528   0.471 -0.1287 -0.1316 -0.5897
19732TIP3    H180611   3.422   3.505   0.463 -0.4960  0.8476  0.5380
19732TIP3    H280612   3.517   3.623   0.463  0.5363  0.0249  0.9864
19733TIP3   OH280613   5.725   0.440   2.800 -0.4383 -0.0647  0.1990
19733TIP3    H180614   5.740   0.395   2.883  0.2942 -0.1477  0.0316
19733TIP3    H280615   5.790   0.511   2.800  1.0448 -1.3372 -1.2208
19734TIP3   OH280616   2.180   2.054   3.640  0.2332  0.0222  0.3751
19734TIP3    H180617   2.274   2.052   3.658  0.0175  0.5853  1.6577
19734TIP3    H280618   2.157   1.962   3.625  0.8598 -0.1947  0.7149
19735TIP3   OH280619   4.265   5.638   7.060  0.3291 -0.4452 -0.1056
19735TIP3    H180620   4.210   5.582   7.005 -1.1570 -1.8090  2.5758
19735TIP3    H280621   4.333   5.579   7.094  0.8130  0.1946  0.0479
19736TIP3   OH280622   0.534   2.221   0.718 -0.1834 -0.2115  0.0776
19736TIP3    H180623   0.623   2.214   0.751  0.4102 -0.8803 -1.5496
19736TIP3    H280624   0.525   2.312   0.690  0.4458 -0.4429 -0.9228
19737TIP3   OH280625   0.209   1.874   1.959  0.1257  0.1157  0.0573
19737TIP3    H180626   0.275   1.943   1.958  0.7522 -0.4337 -1.9569
19737TIP3    H280627   0.218   1.832   2.044  3.8289 -1.2321 -0.8193
19738TIP3   OH280628   5.748   5.136   2.444  1.0503  0.5041 -0.0266
19738TIP3    H180629   5.814   5.068   2.432  0.9139 -0.2445  2.9150
19738TIP3    H280630   5.795   5.209   2.483  0.5715  0.8844 -0.1414
19739TIP3   OH280631   4.798   2.912   5.954 -0.7712  0.3753 -1.5446
19739TIP3    H180632   4.822   2.903   6.046  0.6746 -1.1868 -2.0047
19739TIP3    H280633   4.797   3.006   5.938  0.2563  0.6381 -0.2371
19740TIP3   OH280634   1.442   5.972   5.131 -0.2738  0.8410  0.0914
19740TIP3    H180635   1.499   5.956   5.206 -0.1046  0.6046 -0.0845
19740TIP3    H280636   1.358   5.997   5.168 -0.8195 -1.3039  0.3847
19741TIP3   OH280637   1.729   5.972   4.963  0.2549  0.2211  0.0563
19741TIP3    H180638   1.644   5.928   4.957  0.4268  0.0369 -1.5231
19741TIP3    H280639   1.713   6.048   5.019 -0.3799 -1.0525  1.6531
19742TIP3   OH280640   1.238   4.217  13.411  0.4673 -0.5506 -0.0548
19742TIP3    H180641   1.162   4.178  13.454  0.7895 -2.0887 -0.7995
19742TIP3    H280642   1.248   4.303  13.452 -1.9628 -0.0812 -0.2961
19743TIP3   OH280643   6.014   0.971  11.761 -0.4156 -0.6403 -0.6373
19743TIP3    H180644   6.072   0.960  11.836 -2.0472 -2.1532  0.4865
19743TIP3    H280645   6.042   1.054  11.721 -0.2936  0.9171  2.3653
19744TIP3   OH280646   6.331   0.389  16.780 -0.0828 -0.4668  0.0714
19744TIP3    H180647   6.377   0.473  16.771  1.2614 -1.3424 -2.0334
19744TIP3    H280648   6.373   0.332  16.715 -0.3422 -3.0608  2.0238
19745TIP3   OH280649   6.468   0.367   3.432 -0.0766 -0.6472 -0.0963
19745TIP3    H180650   6.517   0.336   3.509 -1.1528  0.0440  0.9084
19745TIP3    H280651   6.402   0.426   3.469 -1.1683 -0.9701 -1.4933
19746TIP3   OH280652   3.580   3.227   1.117  0.2557 -0.3974 -0.3106
19746TIP3    H180653   3.640   3.301   1.127  1.6650 -1.3141 -1.5936
19746TIP3    H280654   3.584   3.182   1.202  2.4596 -1.1722 -0.7527
19747TIP3   OH280655   4.613   3.237  14.045 -0.7540  0.4793  0.4715
19747TIP3    H180656   4.659   3.268  14.123 -1.4145 -0.8288  1.4150
19747TIP3    H280657   4.556   3.311  14.021 -1.4678  0.4768  1.9943
19748TIP3   OH280658   3.759   4.745   3.604 -0.0499 -0.1208  0.1095
19748TIP3    H180659   3.745   4.782   3.517 -0.5350 -0.7728 -0.0987
19748TIP3    H280660   3.851   4.760   3.622  0.0734 -0.0550 -0.5556
19749TIP3   OH280661   0.781   6.381  12.487 -0.5965 -0.0962 -0.4699
19749TIP3    H180662   0.815   6.461  12.528 -2.2010  0.4825 -0.1750
19749TIP3    H280663   0.804   6.390  12.395 -0.1316  0.3632 -0.3138
19750TIP3   OH280664   3.541   5.028  13.584  0.5124 -0.6124 -0.2909
19750TIP3    H180665   3.564   4.992  13.670 -0.7344 -0.0695  0.2911
19750TIP3    H280666   3.470   5.090  13.602  0.6192 -0.0635 -1.6465
19751TIP3   OH280667   1.674   5.037  11.878 -0.1973 -0.6153 -0.0879
19751TIP3    H180668   1.616   5.081  11.816  0.4665  0.6285  0.1462
19751TIP3    H280669   1.625   5.036  11.960 -1.8909 -3.9800 -0.9662
19752TIP3   OH280670   4.231   1.309   5.636 -0.5819 -0.1631 -0.1369
19752TIP3    H180671   4.289   1.359   5.694  0.3539 -1.9187  0.5367
19752TIP3    H280672   4.263   1.328   5.548  1.7645 -1.8112  0.2461
19753TIP3   OH280673   4.657   3.947   3.242  0.8794  0.0660 -0.3747
19753TIP3    H180674   4.678   3.854   3.236 -1.4487 -0.4952 -1.1603
19753TIP3    H280675   4.587   3.951   3.307  0.9132  1.2587 -0.3955
19754TIP3   OH280676   0.396   4.664   3.865  0.0165  0.0467  0.1137
19754TIP3    H180677   0.398   4.593   3.800  0.0924 -0.8504  1.0676
19754TIP3    H280678   0.483   4.704   3.860  0.7218 -1.3045  1.0266
19755TIP3   OH280679   1.701   6.074  13.910 -0.5517  0.0356  0.2091
19755TIP3    H180680   1.650   6.046  13.986 -1.9724 -1.1087 -1.0935
19755TIP3    H280681   1.771   6.009  13.903 -0.2849  0.2711  0.6490
19756TIP3   OH280682   2.565   3.915   4.887  0.0778  0.3641  0.7878
19756TIP3    H180683   2.632   3.872   4.940  0.2110  1.2136  1.3180
19756TIP3    H280684   2.499   3.943   4.949 -1.4369 -1.5793  0.1458
19757TIP3   OH280685   2.848   6.187  16.122  0.0372  0.1587  0.3382
19757TIP3    H180686   2.795   6.234  16.186  0.5204  0.8364  0.2451
19757TIP3    H280687   2.901   6.126  16.174 -1.3280 -1.0451  0.3815
19758TIP3   OH280688   5.914   3.799  12.304  0.1268  0.2182 -0.0748
19758TIP3    H180689   5.901   3.726  12.245 -0.7521 -0.5126  0.9817
19758TIP3    H280690   5.828   3.842  12.309  0.2345  0.3836  0.5041
19759TIP3   OH280691   6.257   2.154  12.129  0.2930  0.2114 -0.4796
19759TIP3    H180692   6.207   2.226  12.166  1.9715  0.7722  0.8306
19759TIP3    H280693   6.330   2.195  12.084  0.3929 -0.6183 -1.1006
19760TIP3   OH280694   4.126   6.531  11.727  0.6559 -0.5977  0.6004
19760TIP3    H180695   4.099   6.575  11.647  1.7697  0.6010  0.8505
19760TIP3    H280696   4.120   6.438  11.706 -0.9248 -0.3447 -0.2199
19761TIP3   OH280697   4.853   6.710   1.464  0.4675  0.9160  0.1811
19761TIP3    H180698   4.758   6.721   1.458  0.6446  2.1126 -0.5809
19761TIP3    H280699   4.867   6.676   1.553 -0.7059  0.2010  0.1174
19762TIP3   OH280700   0.289   2.954  13.002 -0.5431  0.1454 -0.6514
19762TIP3    H180701   0.230   2.954  13.076 -0.8288  3.0043 -0.7829
19762TIP3    H280702   0.232   2.967  12.926 -0.0633 -0.7535 -1.1808
19763TIP3   OH280703   6.630   5.173  12.098 -0.1281 -0.4290  0.2850
19763TIP3    H180704   6.710   5.200  12.051 -0.0569  0.5109  0.9361
19763TIP3    H280705   6.566   5.160  12.028  0.7787 -1.9522 -0.3261
19764TIP3   OH280706   5.236   1.151   3.399 -0.3144  0.6698  0.2622
19764TIP3    H180707   5.320   1.173   3.359 -0.6329  0.3181 -0.6094
19764TIP3    H280708   5.188   1.103   3.331 -1.1440  0.6932  0.8153
19765TIP3   OH280709   2.602   1.323  12.517  0.3458  0.1829  0.0853
19765TIP3    H180710   2.564   1.288  12.598  1.0287  2.6291  1.5873
19765TIP3    H280711   2.564   1.270  12.448 -1.3386 -1.1544  1.9114
19766TIP3   OH280712   5.957   2.564   6.420  0.0823 -0.2515  0.0797
19766TIP3    H180713   5.988   2.481   6.456  2.8930  1.1124  1.1823
19766TIP3    H280714   5.982   2.562   6.328  1.0753 -0.2726  0.3369
19767TIP3   OH280715   3.101   4.686  14.557 -0.0194 -0.0882 -0.1148
19767TIP3    H180716   3.060   4.766  14.591 -2.3705 -0.5563 -1.6056
19767TIP3    H280717   3.146   4.648  14.632 -0.8833  1.4006  1.2262
19768TIP3   OH280718   0.994   4.084  13.447 -0.3921  0.4675  0.5831
19768TIP3    H180719   0.903   4.055  13.448 -0.2722 -0.0258 -0.6548
19768TIP3    H280720   1.010   4.109  13.356  0.4425  1.4459  0.9806
19769TIP3   OH280721   3.661   3.373  15.453 -0.1499  0.6984 -0.3544
19769TIP3    H180722   3.647   3.312  15.525 -0.5713  0.3533 -0.7206
19769TIP3    H280723   3.605   3.448  15.474 -0.1677  0.6575 -0.2556
19770TIP3   OH280724   5.555   6.041  12.913 -0.0974 -0.2915  0.3339
19770TIP3    H180725   5.563   6.002  13.000 -1.1188  0.0897  0.6205
19770TIP3    H280726   5.528   6.131  12.930  0.4512  0.0111 -0.3642
19771TIP3   OH280727   0.167   5.679   4.785 -0.1298 -0.5014  0.2975
19771TIP3    H180728   0.087   5.721   4.817  0.1997  0.6538 -0.3586
19771TIP3    H280729   0.229   5.686   4.857 -0.2181 -0.2366  0.3495
19772TIP3   OH280730   2.189   2.909  15.640  0.2705  0.1075 -0.0121
19772TIP3    H180731   2.124   2.890  15.707 -0.1153 -0.6228 -0.5761
19772TIP3    H280732   2.138   2.949  15.568  0.6413  0.6740  0.0292
19773TIP3   OH280733   4.781   2.208   0.906  0.2788  0.0004  0.2252
19773TIP3    H180734   4.712   2.271   0.927  0.6690  0.1956  0.9501
19773TIP3    H280735   4.858   2.263   0.889  0.5766 -0.2714  0.6857
19774TIP3   OH280736   6.070   4.858   4.548  0.3189  0.3653 -0.2149
19774TIP3    H180737   6.077   4.807   4.629  0.0517 -2.0437 -1.6096
19774TIP3    H280738   6.158   4.893   4.535  0.9074 -0.9426  0.0733
19775TIP3   OH280739   2.613   2.097  10.782  0.0912  0.3271 -0.1928
19775TIP3    H180740   2.528   2.100  10.737 -0.3049 -0.9775  0.4263
19775TIP3    H280741   2.664   2.033  10.733  0.3570  0.3420  0.0586
19776TIP3   OH280742   2.475   4.389   1.456  0.0572  0.0189  0.1439
19776TIP3    H180743   2.462   4.356   1.546 -0.1301  0.4945  0.2935
19776TIP3    H280744   2.493   4.482   1.467 -2.9085  0.7842 -0.4415
19777TIP3   OH280745   5.453   2.490  16.514  0.3120 -0.2646 -0.2933
19777TIP3    H180746   5.533   2.536  16.488  0.8218  0.6924  2.6070
19777TIP3    H280747   5.458   2.486  16.609 -2.4972 -1.3541 -0.1066
19778TIP3   OH280748   4.167   5.025  14.457 -0.6378 -0.0051 -0.3389
19778TIP3    H180749   4.156   5.064  14.370 -0.6088  1.5519  0.3184
19778TIP3    H280750   4.078   5.021  14.493 -0.6856 -0.9288 -0.5488
19779TIP3   OH280751   4.650   0.623   2.031 -0.6728  0.0562 -0.7193
19779TIP3    H180752   4.568   0.573   2.039  0.4243 -2.0576 -1.7190
19779TIP3    H280753   4.692   0.613   2.116 -1.2205  0.7603 -0.3538
19780TIP3   OH280754   2.015   2.776   3.810 -0.2629 -0.8754 -0.5644
19780TIP3    H180755   1.999   2.837   3.739 -1.8426 -2.6352 -1.8015
19780TIP3    H280756   1.995   2.690   3.774 -0.6026 -1.9062  1.8432
19781TIP3   OH280757   5.111   2.642   5.677  0.2720  0.5389  0.1341
19781TIP3    H180758   5.156   2.677   5.754  0.9859 -1.4305  0.6868
19781TIP3    H280759   5.173   2.578   5.641 -0.3682  0.8726 -1.6461
19782TIP3   OH280760   6.152   4.910   6.664 -0.4052  0.2150 -0.3875
19782TIP3    H180761   6.057   4.899   6.669 -0.2842 -0.6741  0.2276
19782TIP3    H280762   6.185   4.823   6.644  0.4790 -0.2478  2.5687
19783TIP3   OH280763   3.815   6.677  13.639  0.5946  0.2475  0.2458
19783TIP3    H180764   3.754   6.722  13.697 -1.7475 -1.4669 -0.7161
19783TIP3    H280765   3.861   6.748  13.594 -0.9286  1.6524  0.7798
19784TIP3   OH280766   5.052   0.493   4.234 -0.2255 -0.1765 -0.1769
19784TIP3    H180767   4.997   0.466   4.161 -0.0220  2.5227 -1.4369
19784TIP3    H280768   4.992   0.503   4.308 -0.7974 -0.8496 -0.5459
19785TIP3   OH280769   3.274   3.463  11.132  0.0500 -0.4411  0.1574
19785TIP3    H180770   3.342   3.396  11.136  0.1260 -0.3130  1.4286
19785TIP3    H280771   3.314   3.539  11.175 -0.3114  0.1802 -0.5778
19786TIP3   OH280772   6.069   4.495  13.147 -0.1492  0.2285  0.3413
19786TIP3    H180773   6.105   4.449  13.070 -0.0788  0.0443  0.4821
19786TIP3    H280774   5.974   4.492  13.134 -0.2502 -1.3671  1.1216
19787TIP3   OH280775   5.961   5.809  13.162 -0.8947  0.5793 -1.0285
19787TIP3    H180776   5.981   5.897  13.130 -0.3172  0.6966 -0.3653
19787TIP3    H280777   6.046   5.766  13.168 -1.1889 -0.0900 -1.5141
19788TIP3   OH280778   5.360   1.794   1.432  0.2352 -0.5168 -0.2481
19788TIP3    H180779   5.289   1.844   1.392  1.3081  2.5170  1.3697
19788TIP3    H280780   5.321   1.755   1.510 -0.0317 -0.1249 -0.1813
19789TIP3   OH280781   3.535   4.057   0.980  0.3189  0.2863 -0.5622
19789TIP3    H180782   3.581   3.984   0.940 -1.3210 -0.8864 -0.3928
19789TIP3    H280783   3.545   4.044   1.074 -1.3074 -0.6842 -0.4789
19790TIP3   OH280784   3.163   0.987  10.440  0.3990  0.1172  0.3623
19790TIP3    H180785   3.222   0.929  10.391 -0.1599  0.2845 -0.5258
19790TIP3    H280786   3.079   0.977  10.397  0.1515  1.1304  0.5944
19791TIP3   OH280787   2.545   1.605   4.139  0.1002 -0.1429 -0.4819
19791TIP3    H180788   2.575   1.566   4.221 -1.7930  1.1467  0.9044
19791TIP3    H280789   2.487   1.539   4.101  0.1343 -0.3156 -0.2377
19792TIP3   OH280790   4.128   6.422   4.182  0.1613  0.1693 -0.2281
19792TIP3    H180791   4.034   6.416   4.165  0.1955 -2.5776  0.1663
19792TIP3    H280792   4.166   6.447   4.098 -0.8323  0.3126 -0.6473
19793TIP3   OH280793   1.270   2.230  12.740 -0.3443 -0.3254  0.0463
19793TIP3    H180794   1.217   2.201  12.665 -0.1899 -0.0935 -0.1557
19793TIP3    H280795   1.274   2.154  12.797  0.2345 -0.7867 -0.5831
19794TIP3   OH280796   1.808   3.433   2.331  0.2152  0.5307  0.2018
19794TIP3    H180797   1.720   3.397   2.344  0.1034  0.8349  0.3003
19794TIP3    H280798   1.864   3.382   2.389 -0.1320  1.2878  1.2284
19795TIP3   OH280799   3.476   0.448  12.388  0.3712 -0.0434  0.1696
19795TIP3    H180800   3.555   0.425  12.436  0.7300  0.8582  0.0308
19795TIP3    H280801   3.416   0.480  12.455 -0.7534 -2.8156  0.6159
19796TIP3   OH280802   1.562   5.930   3.761 -0.2006  0.1729  0.7844
19796TIP3    H180803   1.508   5.927   3.840  2.0078 -0.8394  2.3425
19796TIP3    H280804   1.516   5.873   3.699  0.2868 -2.7921  2.9455
19797TIP3   OH280805   3.774   3.966   0.219 -0.0869 -0.5171 -0.2638
19797TIP3    H180806   3.714   4.018   0.165  0.3140 -0.7043 -0.9094
19797TIP3    H280807   3.822   3.913   0.155 -0.2330 -1.4098  0.3513
19798TIP3   OH280808   6.765   2.643  12.786 -0.5698 -0.1636 -0.0091
19798TIP3    H180809   6.786   2.633  12.879  0.4264 -0.7527 -0.2871
19798TIP3    H280810   6.809   2.724  12.760 -2.5435  1.1602  0.4835
19799TIP3   OH280811   6.641   4.854  12.053  0.3213  0.7329  0.6572
19799TIP3    H180812   6.715   4.842  12.112 -1.5511 -0.5261  2.8864
19799TIP3    H280813   6.606   4.940  12.077  1.3478  1.6490 -0.8746
19800TIP3   OH280814   6.591   5.012   4.441 -0.1553  0.0212  0.4159
19800TIP3    H180815   6.640   4.931   4.425  0.6213  0.9267 -2.3417
19800TIP3    H280816   6.631   5.049   4.519  1.2297 -0.9919  0.2260
19801TIP3   OH280817   5.222   0.305  11.722  0.8640 -0.1807 -0.2500
19801TIP3    H180818   5.148   0.360  11.694  1.9632  1.5061  0.0212
19801TIP3    H280819   5.248   0.340  11.807  0.1999 -2.6206  1.0615
19802TIP3   OH280820   2.168   5.869   5.743  0.2103  0.1214  0.5342
19802TIP3    H180821   2.234   5.936   5.728  1.0811 -0.7472  0.3827
19802TIP3    H280822   2.218   5.787   5.749 -0.9953 -0.8068 -1.3093
19803TIP3   OH280823   3.768   0.404   1.297  0.2756 -0.0032 -0.0077
19803TIP3    H180824   3.724   0.488   1.288  0.0463 -0.1936 -0.7528
19803TIP3    H280825   3.697   0.340   1.300  0.4363 -0.1565  0.8808
19804TIP3   OH280826   5.080   5.748   0.708  0.6892  0.4906 -0.5417
19804TIP3    H180827   5.124   5.699   0.639  1.6412  0.7827 -0.1546
19804TIP3    H280828   5.112   5.838   0.699  1.2370  0.4265  0.5959
19805TIP3   OH280829   2.792   4.151  12.299 -0.2144 -0.5044 -0.3926
19805TIP3    H180830   2.795   4.240  12.265  0.5364 -0.1971  0.4616
19805TIP3    H280831   2.814   4.096  12.223  1.0481  0.1496 -0.5239
19806TIP3   OH280832   3.644   4.881  12.151 -0.8965 -0.2049 -0.1140
19806TIP3    H180833   3.598   4.947  12.203  0.0471 -1.2376  2.1386
19806TIP3    H280834   3.607   4.798  12.179  2.0669 -1.0641  1.6451
19807TIP3   OH280835   2.828   1.930  16.007 -0.2594  0.0417 -0.2038
19807TIP3    H180836   2.878   1.849  16.018 -0.2725 -0.1401 -1.3329
19807TIP3    H280837   2.758   1.906  15.946 -0.0554  0.9889 -0.8238
19808TIP3   OH280838   6.773   6.523   3.333 -0.0645  0.7156  0.2874
19808TIP3    H180839   6.775   6.437   3.289  0.0525  1.2625 -0.8072
19808TIP3    H280840   6.818   6.582   3.272 -0.4672  1.6304  0.8598
19809TIP3   OH280841   0.117   1.769  12.648 -0.0341  0.0854  0.2449
19809TIP3    H180842   0.068   1.848  12.623  1.2733  0.6976 -0.5448
19809TIP3    H280843   0.086   1.702  12.588 -1.8902 -0.3271  1.5707
19810TIP3   OH280844   3.574   5.047  12.762 -0.6184 -0.1407  0.1667
19810TIP3    H180845   3.512   5.057  12.690 -1.1045  0.2470  0.6293
19810TIP3    H280846   3.551   4.964  12.803 -1.0600  0.1615  0.5441
19811TIP3   OH280847   2.484   4.302  15.156 -0.3785  0.0782  0.6927
19811TIP3    H180848   2.475   4.357  15.234 -0.4671 -0.1474  0.8427
19811TIP3    H280849   2.434   4.223  15.176  0.9471 -0.7032  1.0751
19812TIP3   OH280850   1.806   1.177  16.586 -0.4647  0.0169 -0.0254
19812TIP3    H180851   1.754   1.250  16.620 -0.6315 -0.1070 -0.0130
19812TIP3    H280852   1.768   1.161  16.499 -2.2476 -1.8288  1.0134
19813TIP3   OH280853   1.639   6.357  16.610 -0.0548 -0.1817 -0.0716
19813TIP3    H180854   1.659   6.346  16.703 -0.2526 -0.4275 -0.0575
19813TIP3    H280855   1.670   6.277  16.569  2.7047  1.0805 -0.6664
19814TIP3   OH280856   6.530   0.719  11.329 -0.0645  0.4198 -0.3866
19814TIP3    H180857   6.475   0.798  11.324  0.9513  1.3451  1.7098
19814TIP3    H280858   6.506   0.680  11.413  2.0738  0.5739  0.3434
19815TIP3   OH280859   5.354   4.775   1.676 -0.4969 -0.2612 -0.3841
19815TIP3    H180860   5.360   4.785   1.581 -0.4057 -4.2464 -0.9548
19815TIP3    H280861   5.442   4.795   1.708 -0.1482 -0.2697 -1.3161
19816TIP3   OH280862   1.742   5.353   6.744 -0.7287 -0.2862  0.1545
19816TIP3    H180863   1.716   5.399   6.664  1.0546  1.6631  0.6074
19816TIP3    H280864   1.669   5.368   6.805 -0.8063  0.7900 -0.1789
19817TIP3   OH280865   4.968   2.787   3.703  0.0896 -0.8721  0.3033
19817TIP3    H180866   4.964   2.787   3.799 -0.5419 -0.0053  0.2929
19817TIP3    H280867   5.007   2.871   3.681 -1.5869 -0.1980 -0.2301
19818TIP3   OH280868   3.246   5.485   0.153  0.1488  0.1229 -0.1228
19818TIP3    H180869   3.183   5.488   0.225 -0.3130 -1.7132 -0.4024
19818TIP3    H280870   3.319   5.538   0.183 -0.3592  0.0126  1.3946
19819TIP3   OH280871   2.525   6.585  16.115  0.4167  0.2476 -0.1073
19819TIP3    H180872   2.469   6.628  16.180  2.0885  1.2732  0.7257
19819TIP3    H280873   2.513   6.491  16.132 -2.0647  0.3600 -0.8854
19820TIP3   OH280874   4.279   6.146   4.788  0.3199  0.1128  0.0404
19820TIP3    H180875   4.271   6.195   4.706 -1.6854  0.9316  0.6641
19820TIP3    H280876   4.191   6.149   4.826  0.5924 -2.3927  1.0263
19821TIP3   OH280877   6.514   2.564  11.404 -0.0134  0.0184 -0.3407
19821TIP3    H180878   6.546   2.647  11.440 -0.0247 -1.1505  2.6669
19821TIP3    H280879   6.583   2.535  11.344  1.0612  1.1106  0.3321
19822TIP3   OH280880   3.806   6.076  14.274 -0.3939  0.1507  0.5006
19822TIP3    H180881   3.858   6.113  14.203 -0.9130  0.4903  0.2933
19822TIP3    H280882   3.765   6.151  14.316 -1.2066 -0.1555  0.2749
19823TIP3   OH280883   1.177   1.404  12.182  0.0016 -0.1363  0.0528
19823TIP3    H180884   1.093   1.448  12.169  0.9833  1.5357 -1.0261
19823TIP3    H280885   1.233   1.471  12.221  1.2237 -0.7998 -0.5070
19824TIP3   OH280886   6.143   3.886   1.084 -0.0400  0.1702 -0.1558
19824TIP3    H180887   6.125   3.799   1.049 -1.8291  0.5421 -0.2707
19824TIP3    H280888   6.105   3.946   1.020  0.1950  0.9875  0.4502
19825TIP3   OH280889   0.282   1.269   1.394  0.4066 -0.3553 -0.1483
19825TIP3    H180890   0.359   1.317   1.365  1.0591 -0.1862  1.7012
19825TIP3    H280891   0.294   1.180   1.360  0.8449 -0.0403 -0.8223
19826TIP3   OH280892   6.407   5.653  11.521  0.4355  0.3809 -0.1087
19826TIP3    H180893   6.498   5.656  11.549 -0.0098  0.1554  1.4505
19826TIP3    H280894   6.379   5.563  11.539 -0.6916  1.0090  1.4927
19827TIP3   OH280895   1.882   5.223  11.296 -0.1455 -0.4161  0.1533
19827TIP3    H180896   1.866   5.317  11.287  1.1851 -0.1901  0.0291
19827TIP3    H280897   1.860   5.204  11.387  0.5078  0.2119  0.4509
19828TIP3   OH280898   1.668   4.600   5.381 -0.6081 -0.2844  1.0083
19828TIP3    H180899   1.688   4.515   5.341 -0.9413 -1.1938  2.6508
19828TIP3    H280900   1.705   4.594   5.469 -1.0000  1.1326  1.2944
19829TIP3   OH280901   0.406   6.509   4.876 -0.6324 -0.7139 -0.4386
19829TIP3    H180902   0.314   6.523   4.897 -0.1822  2.7608 -0.2225
19829TIP3    H280903   0.454   6.549   4.949  1.1488 -3.2762 -0.0427
19830TIP3   OH280904   0.487   2.153  11.712 -0.6762  0.5690  0.9217
19830TIP3    H180905   0.518   2.240  11.688 -0.6631  0.1795 -0.6114
19830TIP3    H280906   0.405   2.169  11.760 -2.3668  1.4064 -1.9745
19831TIP3   OH280907   2.092   3.594  16.065  0.3645  0.7014 -0.3636
19831TIP3    H180908   2.127   3.587  16.154  0.8066  2.3758 -0.3872
19831TIP3    H280909   2.012   3.541  16.067  3.1192 -4.1125 -0.5682
19832TIP3   OH280910   1.879   3.786  15.105 -0.1649  0.8936 -0.2642
19832TIP3    H180911   1.950   3.836  15.064  0.1514  1.8527  1.4160
19832TIP3    H280912   1.814   3.776  15.035  0.4597  2.2744 -1.0865
19833TIP3   OH280913   2.799   4.425   4.588 -0.1032  0.1692 -0.4594
19833TIP3    H180914   2.803   4.442   4.682  1.5625 -0.2845 -0.4022
19833TIP3    H280915   2.829   4.506   4.548  0.0543  0.0732 -0.5402
19834TIP3   OH280916   4.940   4.027   3.011  0.3269 -0.2258 -0.1174
19834TIP3    H180917   4.992   3.946   3.013 -1.9420 -1.7741 -0.2395
19834TIP3    H280918   4.962   4.068   2.927  0.5606 -1.3813 -0.6335
19835TIP3   OH280919   1.449   4.661   1.968  0.4281  0.5123  0.0218
19835TIP3    H180920   1.431   4.567   1.965  2.7957  0.0339 -1.2693
19835TIP3    H280921   1.486   4.675   2.055  0.6594  0.1079 -0.0066
19836TIP3   OH280922   3.432   4.842  12.847  0.1217 -0.7214  0.2312
19836TIP3    H180923   3.361   4.793  12.806  0.4385 -0.6578 -0.4069
19836TIP3    H280924   3.440   4.805  12.935 -0.6922 -0.7312  0.3076
19837TIP3   OH280925   4.681   6.078   3.240  0.3078  0.7635 -0.5747
19837TIP3    H180926   4.602   6.040   3.202  0.3070 -1.4813  1.4713
19837TIP3    H280927   4.667   6.173   3.235 -1.2992  0.4794 -2.6411
19838TIP3   OH280928   2.328   6.463  14.061  0.0032 -0.0424  0.5797
19838TIP3    H180929   2.417   6.429  14.071  0.6875  1.5387  0.1318
19838TIP3    H280930   2.334   6.555  14.087 -1.6831 -0.0947  1.3264
19839TIP3   OH280931   2.961   1.700   5.441  0.5787  0.3195 -0.5220
19839TIP3    H180932   2.901   1.700   5.367 -1.2580 -1.0189  0.8916
19839TIP3    H280933   2.920   1.757   5.506  0.2118 -1.4511  0.8822
19840TIP3   OH280934   1.388   4.396   2.058 -0.0491 -0.3497 -0.1768
19840TIP3    H180935   1.447   4.401   2.133  1.1355 -1.4006 -0.9911
19840TIP3    H280936   1.415   4.317   2.011 -0.4469  0.5109 -1.9556
19841TIP3   OH280937   4.154   3.041   2.866  0.2589 -0.0780  0.2599
19841TIP3    H180938   4.211   3.044   2.789  0.4780 -1.1539  0.3726
19841TIP3    H280939   4.174   3.122   2.914 -0.3762  0.9528 -1.1386
19842TIP3   OH280940   4.164   6.748   0.198 -0.6799 -0.3848 -0.3525
19842TIP3    H180941   4.188   6.700   0.278  2.7235  1.9440  0.2154
19842TIP3    H280942   4.092   6.805   0.225 -0.4379 -0.5560  0.7112
19843TIP3   OH280943   5.654   1.860   0.331  0.0177  0.5504  0.5344
19843TIP3    H180944   5.714   1.931   0.352  1.7982 -0.6737 -0.1708
19843TIP3    H280945   5.682   1.787   0.386 -1.2978  0.1516  0.7083
19844TIP3   OH280946   6.128   6.355   5.849  0.4122 -0.1914 -0.1031
19844TIP3    H180947   6.143   6.420   5.918 -1.0144 -0.1460  0.1871
19844TIP3    H280948   6.033   6.344   5.847  0.5798 -1.7097 -0.6776
19845TIP3   OH280949   0.640   6.245  13.912 -0.1091  0.5593  0.0568
19845TIP3    H180950   0.658   6.262  13.819  0.0075 -0.3878 -0.1037
19845TIP3    H280951   0.685   6.316  13.958  0.3221  0.7093 -0.5747
19846TIP3   OH280952   4.716   4.622   1.878 -0.2492  0.3140  0.4747
19846TIP3    H180953   4.677   4.698   1.834 -0.3612  0.0983  0.1960
19846TIP3    H280954   4.787   4.595   1.820  1.6359  1.8860  1.9059
19847TIP3   OH280955   3.067   2.423   1.868 -0.5470  0.3354  0.1802
19847TIP3    H180956   3.007   2.354   1.838 -0.0447 -0.4957  1.0669
19847TIP3    H280957   3.064   2.418   1.963  1.6990 -0.4089  0.2661
19848TIP3   OH280958   0.002   1.182  12.878 -0.4881 -0.3947 -0.1398
19848TIP3    H180959  -0.009   1.232  12.959  0.0549  2.0357 -1.4514
19848TIP3    H280960  -0.042   1.235  12.812  1.4426 -0.8692 -1.9028
19849TIP3   OH280961   4.654   2.129  12.736  0.4862 -0.2485 -0.4005
19849TIP3    H180962   4.661   2.087  12.650  2.1996 -0.6945 -0.0817
19849TIP3    H280963   4.633   2.220  12.716  0.2451 -0.4842 -1.2628
19850TIP3   OH280964   4.007   4.979   2.202  0.6216  0.2623  0.0576
19850TIP3    H180965   3.974   4.994   2.113 -0.3872  1.1364  0.5548
19850TIP3    H280966   4.013   4.884   2.209  0.4759  0.1698 -0.8668
19851TIP3   OH280967   1.045   3.553   0.520  0.5117 -0.3726  0.0938
19851TIP3    H180968   1.103   3.629   0.512 -1.2717  0.9918 -0.5469
19851TIP3    H280969   1.082   3.502   0.593  2.5919  0.3098 -0.4188
19852TIP3   OH280970   5.434   5.597   0.542 -0.8264  0.4050  0.6243
19852TIP3    H180971   5.514   5.625   0.497 -0.7754 -1.4424 -0.5070
19852TIP3    H280972   5.455   5.605   0.635  1.1247 -1.1511  0.3664
19853TIP3   OH280973   1.913   4.648   2.528 -0.2504  0.1968  0.1315
19853TIP3    H180974   1.941   4.585   2.462  0.4124  2.9703 -2.5083
19853TIP3    H280975   1.818   4.637   2.534  0.0334 -2.1832  1.1538
19854TIP3   OH280976   1.090   5.050  15.832  0.2133 -0.4747  0.2801
19854TIP3    H180977   1.122   4.964  15.807  1.0909  0.0006 -0.3161
19854TIP3    H280978   1.149   5.078  15.903 -2.8096 -2.2046  3.7985
19855TIP3   OH280979   1.915   6.228   0.689  0.1901 -0.8158  0.0035
19855TIP3    H180980   1.859   6.184   0.753 -0.1376 -1.5974 -0.8077
19855TIP3    H280981   1.854   6.264   0.624  0.4579  0.7246  0.5529
19856TIP3   OH280982   1.939   4.972  16.327 -0.5586  0.4831  0.1684
19856TIP3    H180983   1.911   4.894  16.279 -0.3898  0.6470 -0.2024
19856TIP3    H280984   1.928   4.949  16.420 -0.6661  0.0805  0.0560
19857TIP3   OH280985   3.424   1.610  11.778 -0.1353  0.1673  0.0025
19857TIP3    H180986   3.400   1.590  11.688  0.0164  1.5782 -0.3774
19857TIP3    H280987   3.514   1.642  11.773  0.8527 -2.2109  1.0266
19858TIP3   OH280988   1.973   6.135   3.634  0.0495  0.1832  0.6651
19858TIP3    H180989   1.903   6.084   3.594  0.4441  0.5056 -0.4976
19858TIP3    H280990   2.037   6.070   3.663  1.1507 -0.0432 -1.9465
19859TIP3   OH280991   0.366   6.728  12.851  0.8025 -0.1053 -0.2148
19859TIP3    H180992   0.454   6.749  12.881  1.2251 -1.3231 -0.5282
19859TIP3    H280993   0.340   6.804  12.800  2.0115 -0.0480 -0.7962
19860TIP3   OH280994   5.795   5.510   3.704 -0.3595 -0.2254  0.0408
19860TIP3    H180995   5.759   5.570   3.638 -0.3030 -0.3907 -0.1395
19860TIP3    H280996   5.845   5.446   3.654  0.0875 -0.0706  0.2808
19861TIP3   OH280997   5.989   1.562   5.604  0.3842  0.0192  0.4032
19861TIP3    H180998   5.962   1.654   5.609  1.3638  0.3118  0.4254
19861TIP3    H280999   6.025   1.543   5.690  0.9698 -0.1331  0.1261
19862TIP3   OH281000   1.543   2.979   4.149 -0.2460  0.6589  0.0374
19862TIP3    H181001   1.618   3.027   4.182  0.9111 -0.9320 -0.1687
19862TIP3    H281002   1.579   2.918   4.085 -1.6655 -0.3540  0.1497
19863TIP3   OH281003   3.652   3.379  11.135 -0.5213  0.1723  0.4102
19863TIP3    H181004   3.641   3.474  11.130  1.4163  0.3932 -0.3214
19863TIP3    H281005   3.739   3.366  11.171 -0.9038 -1.3575  0.8725
19864TIP3   OH281006   0.932   6.731   6.171 -0.2099  0.3930 -0.4385
19864TIP3    H181007   0.969   6.643   6.180  1.9274  1.0810 -1.7994
19864TIP3    H281008   1.006   6.790   6.182 -1.5108  2.0474 -0.0302
19865TIP3   OH281009   4.961   5.726   2.699 -0.6227  0.2943  0.9445
19865TIP3    H181010   4.973   5.757   2.609 -2.2134  0.1886  0.6684
19865TIP3    H281011   5.011   5.788   2.752  1.4310 -0.3946 -0.0778
19866TIP3   OH281012   0.024   2.245   3.629  0.1008  0.1041 -0.3737
19866TIP3    H181013  -0.023   2.240   3.546 -0.9168 -0.7643  0.2213
19866TIP3    H281014  -0.016   2.320   3.674  0.5224  0.4582 -0.5797
19867TIP3   OH281015   0.846   0.073  16.126 -0.1330 -0.5204 -0.2602
19867TIP3    H181016   0.862  -0.008  16.079 -1.8827 -1.0747  0.0358
19867TIP3    H281017   0.754   0.093  16.111 -0.1122  0.6246  0.8756
19868TIP3   OH281018   2.268   5.028   2.411 -0.2141 -0.2211 -0.0117
19868TIP3    H181019   2.182   5.066   2.393 -0.6959 -1.6987 -0.9852
19868TIP3    H281020   2.328   5.080   2.357 -0.4242  0.9597  0.8399
19869TIP3   OH281021   4.880   4.596  16.708  0.2759  0.1206 -0.6111
19869TIP3    H181022   4.822   4.671  16.719 -1.8811 -1.1982 -2.1724
19869TIP3    H281023   4.945   4.625  16.644  0.9240  1.3658  0.5612
19870TIP3   OH281024   4.360   5.837   0.252  0.3622  0.1312  0.4694
19870TIP3    H181025   4.404   5.754   0.234  0.2269  0.0796  0.3758
19870TIP3    H281026   4.425   5.889   0.299 -0.4048 -0.9916  2.9248
19871TIP3   OH281027   1.130   3.029  13.884 -0.0374 -0.1039 -0.1837
19871TIP3    H181028   1.061   3.090  13.858 -2.7886 -2.8964 -0.0020
19871TIP3    H281029   1.110   2.949  13.836  1.6263 -1.8134  1.7881
19872TIP3   OH281030   4.176   4.120  12.472  0.2836 -0.0429 -0.7832
19872TIP3    H181031   4.209   4.210  12.473 -0.9544  0.4854  1.8119
19872TIP3    H281032   4.250   4.067  12.503  0.8256  0.1258 -1.7397
19873TIP3   OH281033   1.198   0.084  15.774  0.0511 -0.1544 -0.1134
19873TIP3    H181034   1.273   0.064  15.831  0.0089  0.0084 -0.0018
19873TIP3    H281035   1.126   0.102  15.835  0.0918  0.3592 -0.2164
19874TIP3   OH281036   1.491   5.653   4.393  0.2102  0.3996 -0.3284
19874TIP3    H181037   1.563   5.697   4.440  0.3871 -0.7748  0.5469
19874TIP3    H281038   1.414   5.706   4.414  0.9124  2.2819 -2.1035
19875TIP3   OH281039   3.816   3.524   5.753 -0.6297  0.8008 -0.1362
19875TIP3    H181040   3.777   3.606   5.723  0.8214  1.5104 -0.1957
19875TIP3    H281041   3.878   3.551   5.821 -0.8160 -0.3521  0.5167
19876TIP3   OH281042   3.141   1.352   4.405 -0.5212  0.1960 -0.2532
19876TIP3    H181043   3.133   1.301   4.485  0.5902  0.0332 -0.2293
19876TIP3    H281044   3.210   1.308   4.355  0.3875  1.6001 -0.2828
19877TIP3   OH281045   5.478   3.021   4.702  0.2725 -0.0441 -0.1285
19877TIP3    H181046   5.516   2.943   4.742 -0.1471 -0.0272  0.3139
19877TIP3    H281047   5.527   3.033   4.621  2.2442  0.8501  1.1288
19878TIP3   OH281048   0.164   0.351   3.601 -0.2714  0.1821 -0.0842
19878TIP3    H181049   0.234   0.343   3.667 -0.2465 -0.0210 -0.1351
19878TIP3    H281050   0.099   0.287   3.628 -1.9517  2.5320  1.8200
19879TIP3   OH281051   1.205   2.271  11.410 -0.3892 -0.1739 -0.4278
19879TIP3    H181052   1.127   2.324  11.426 -0.3609 -0.5976  1.2980
19879TIP3    H281053   1.277   2.325  11.441 -0.1712 -0.4639 -0.4296
19880TIP3   OH281054   5.693   0.972   3.984  0.8306 -0.3563 -0.0190
19880TIP3    H181055   5.746   0.923   3.921 -0.0112  0.7891 -1.6821
19880TIP3    H281056   5.692   1.062   3.952 -2.0278 -0.2877 -0.0716
19881TIP3   OH281057   5.318   0.890   1.843 -0.1256 -0.2391 -0.4950
19881TIP3    H181058   5.241   0.896   1.899  0.3225 -2.9179  0.5392
19881TIP3    H281059   5.295   0.823   1.779  0.2715  1.0938 -2.1049
19882TIP3   OH281060   3.728   6.203  15.124 -0.4265 -0.1823 -0.2244
19882TIP3    H181061   3.744   6.269  15.193  0.6119 -0.2507 -0.3775
19882TIP3    H281062   3.805   6.147  15.127 -0.7143 -0.6287 -0.9622
19883TIP3   OH281063   5.928   6.501   3.899  0.0615  0.1085 -0.2751
19883TIP3    H181064   5.999   6.561   3.919 -0.3542  0.3684  0.4792
19883TIP3    H281065   5.924   6.443   3.975  1.0786 -1.5063 -1.4074
19884TIP3   OH281066   1.334   3.590   3.888 -0.0959  0.4030 -1.2427
19884TIP3    H181067   1.253   3.626   3.923 -0.1126 -0.2876 -0.5347
19884TIP3    H281068   1.324   3.596   3.793 -0.8108  0.6720 -1.1552
19885TIP3   OH281069   3.658   6.543   4.690 -0.3569 -0.1348  0.2344
19885TIP3    H181070   3.708   6.462   4.693 -0.1991 -0.0376  0.2096
19885TIP3    H281071   3.651   6.564   4.597 -0.4207 -0.1346  0.2390
19886TIP3   OH281072   5.677   0.375  12.956 -0.3208 -0.1248  0.1011
19886TIP3    H181073   5.662   0.352  12.865 -0.2985 -1.3035  0.3717
19886TIP3    H281074   5.626   0.454  12.970  1.3798  1.3419 -1.4949
19887TIP3   OH281075   0.463   3.233  14.417  0.1027  0.1661 -0.0241
19887TIP3    H181076   0.548   3.194  14.437 -0.2455 -0.2082  0.8135
19887TIP3    H281077   0.409   3.212  14.494 -0.0781  2.3936  0.5265
19888TIP3   OH281078   1.277   6.682   4.427 -0.2594  0.0315  0.5368
19888TIP3    H181079   1.355   6.706   4.476  0.3333 -0.1591 -0.2930
19888TIP3    H281080   1.205   6.695   4.488  0.4772 -0.3567  1.5073
19889TIP3   OH281081   4.748   6.325  13.889  0.2694 -0.1024  0.3165
19889TIP3    H181082   4.672   6.291  13.842  1.3051 -1.1481 -0.6571
19889TIP3    H281083   4.726   6.416  13.909 -0.2012  0.4120 -2.2608
19890TIP3   OH281084   2.243   0.240   5.401 -0.2406 -0.6119  0.2446
19890TIP3    H181085   2.174   0.194   5.449  1.6669 -0.6905  3.1820
19890TIP3    H281086   2.307   0.171   5.382  0.0455 -0.1536 -0.4658
19891TIP3   OH281087   2.689   2.379   4.831 -0.6239  0.2794 -0.4857
19891TIP3    H181088   2.781   2.404   4.840 -0.9737  1.2914  0.5718
19891TIP3    H281089   2.666   2.404   4.742  0.2419 -0.4109 -0.9161
19892TIP3   OH281090   1.734   0.853  13.061  0.4239  0.0882  0.5532
19892TIP3    H181091   1.677   0.866  12.986  0.5256  0.2144  0.4970
19892TIP3    H281092   1.717   0.764  13.090  0.0644  0.1842  0.6465
19893TIP3   OH281093   5.466   2.209   1.616 -0.4821  0.0604  0.3926
19893TIP3    H181094   5.382   2.249   1.591 -1.0794  0.3430  2.6477
19893TIP3    H281095   5.442   2.125   1.653  0.6406 -1.7940 -2.6800
19894TIP3   OH281096   6.713   1.792  15.600  0.2013 -0.0943 -0.0760
19894TIP3    H181097   6.745   1.747  15.679 -1.2767 -0.2751  0.4451
19894TIP3    H281098   6.703   1.883  15.627  0.1830 -0.0573 -0.2084
19895TIP3   OH281099   1.965   4.807   0.387  0.9122  0.0354 -0.0239
19895TIP3    H181100   1.935   4.808   0.296 -0.0017 -0.1796  0.2655
19895TIP3    H281101   1.940   4.722   0.420  0.8245  0.2888  0.5697
19896TIP3   OH281102   0.184   3.238   5.185 -0.7710 -0.0135 -0.3912
19896TIP3    H181103   0.183   3.252   5.091  1.6727 -1.4333 -0.7407
19896TIP3    H281104   0.241   3.307   5.219 -1.1749  0.1480 -0.0403
19897TIP3   OH281105   5.259   6.336   4.049  0.5252  0.3199 -0.0044
19897TIP3    H181106   5.294   6.264   4.101  2.3533  1.4056  0.3789
19897TIP3    H281107   5.336   6.374   4.006 -0.6476  0.8213 -1.7875
19898TIP3   OH281108   3.872   0.418   0.255 -0.1042 -0.2926  0.6502
19898TIP3    H181109   3.806   0.468   0.303  1.7690  2.5695  0.5407
19898TIP3    H281110   3.855   0.439   0.163  0.0758 -0.7028  0.5223
19899TIP3   OH281111   3.573   6.184  16.392  0.0730 -0.6763  0.2142
19899TIP3    H181112   3.480   6.166  16.377  0.4366 -0.7456 -2.4362
19899TIP3    H281113   3.612   6.184  16.304  2.2426  1.3046  1.0734
19900TIP3   OH281114   2.333   4.804   2.026 -0.7819 -0.0977  0.7795
19900TIP3    H181115   2.271   4.804   2.099 -0.8194 -0.1654  0.7476
19900TIP3    H281116   2.341   4.897   2.002 -0.6490 -0.0590  0.9711
19901TIP3   OH281117   0.225   6.238  13.289  0.5514 -0.0263 -0.0367
19901TIP3    H181118   0.261   6.262  13.204  2.5731 -0.4995  0.6329
19901TIP3    H281119   0.295   6.258  13.352 -0.0684 -1.6744  1.2620
19902TIP3   OH281120   1.204   1.111   0.188  0.1088 -0.4682 -0.3201
19902TIP3    H181121   1.233   1.096   0.277 -0.3223 -1.5398 -0.3458
19902TIP3    H281122   1.284   1.127   0.138  0.4633 -1.1243  0.0297
19903TIP3   OH281123   1.842   0.527  12.062  0.2390 -0.1086  0.7110
19903TIP3    H181124   1.802   0.613  12.072 -1.3857 -0.8379  0.7169
19903TIP3    H281125   1.867   0.501  12.151 -1.2242 -0.5279  1.0257
19904TIP3   OH281126   4.585   6.159   2.590  0.0479  0.3508 -0.0940
19904TIP3    H181127   4.572   6.246   2.552 -0.3987  0.1075 -0.5016
19904TIP3    H281128   4.560   6.169   2.682 -0.5894  0.5048 -0.2799
19905TIP3   OH281129   4.801   4.526  13.395 -0.0400  0.3262 -0.1914
19905TIP3    H181130   4.733   4.555  13.335  0.7352  2.1338 -0.2673
19905TIP3    H281131   4.880   4.521  13.342 -0.1056 -2.1061 -0.1892
19906TIP3   OH281132   2.639   1.949  13.760  0.6069  0.4800 -0.6372
19906TIP3    H181133   2.615   1.869  13.714  1.9118 -0.3264  0.0159
19906TIP3    H281134   2.730   1.965  13.734  0.8096  0.9621  0.3261
19907TIP3   OH281135   0.047   1.759  16.437 -0.1286  0.0011  0.5667
19907TIP3    H181136  -0.016   1.736  16.505  0.8572  3.2741  2.8084
19907TIP3    H281137   0.039   1.854  16.428  2.3922  0.1287 -1.2546
19908TIP3   OH281138   4.193   4.290   3.551  0.6242  0.3929 -0.5569
19908TIP3    H181139   4.244   4.251   3.480 -0.3381 -1.4248 -0.3005
19908TIP3    H281140   4.232   4.253   3.631  0.5397  0.9964 -0.2331
19909TIP3   OH281141   0.085   0.873  16.957 -0.7555 -0.5430 -0.6264
19909TIP3    H181142  -0.005   0.855  16.985 -0.0602 -3.3856  0.0704
19909TIP3    H281143   0.077   0.949  16.899 -3.6123 -0.7640 -0.6518
19910TIP3   OH281144   2.671   0.532   3.098 -0.0141  0.2717 -0.2710
19910TIP3    H181145   2.739   0.506   3.036 -1.5438 -1.2124 -1.4562
19910TIP3    H281146   2.596   0.555   3.042 -0.7944  0.9143  1.0022
19911TIP3   OH281147   4.549   6.681  11.430 -0.1230 -0.3098  0.4096
19911TIP3    H181148   4.589   6.609  11.381 -0.1000  0.1948 -0.3255
19911TIP3    H281149   4.599   6.685  11.511 -0.8955 -1.8989  1.0128
19912TIP3   OH281150   1.234   0.462  13.545  0.0174  0.5867  0.8888
19912TIP3    H181151   1.199   0.413  13.470  1.6870  0.3347  0.2384
19912TIP3    H281152   1.225   0.402  13.619 -1.5005  0.7780  0.9090
19913TIP3   OH281153   3.805   5.829  16.280  0.2312 -0.0589  0.1048
19913TIP3    H181154   3.895   5.805  16.257  0.2532  0.2692 -0.1485
19913TIP3    H281155   3.754   5.749  16.263  0.1972  0.2384 -1.3502
19914TIP3   OH281156   3.358   0.975  14.429  0.0545  0.0324 -0.1987
19914TIP3    H181157   3.368   0.966  14.524  0.6104  0.5704 -0.1991
19914TIP3    H281158   3.367   0.886  14.395  0.0141 -0.1421  0.2434
19915TIP3   OH281159   0.542   0.223  12.094  0.2371 -0.2523  0.0814
19915TIP3    H181160   0.578   0.209  12.181 -1.2109  1.6674  1.0642
19915TIP3    H281161   0.619   0.223  12.036  1.2939 -0.8284  1.4270
19916TIP3   OH281162   6.265   4.157  16.322 -0.3550  0.0993  0.2676
19916TIP3    H181163   6.250   4.245  16.358  0.1363  0.0169  0.6779
19916TIP3    H281164   6.254   4.099  16.398 -1.4224 -0.2719 -0.1433
19917TIP3   OH281165   0.415   6.308  16.056 -0.1121 -0.0880 -0.3608
19917TIP3    H181166   0.341   6.291  15.997 -1.0475  0.4245  0.6344
19917TIP3    H281167   0.488   6.325  15.997 -1.2338  1.4095 -1.4060
19918TIP3   OH281168   4.427   6.474  11.876  0.0553 -0.2570 -0.5922
19918TIP3    H181169   4.490   6.499  11.808  0.5187 -0.7725 -0.3618
19918TIP3    H281170   4.341   6.493  11.838  0.3364  0.1037 -1.0539
19919TIP3   OH281171   5.265   6.172   3.160  0.0466 -0.5081  0.0436
19919TIP3    H181172   5.216   6.101   3.202  1.3302 -1.8749 -0.7011
19919TIP3    H281173   5.257   6.155   3.067 -0.4517  0.9320 -0.2120
19920TIP3   OH281174   1.452   0.480  10.916  0.0931  0.0586  0.9574
19920TIP3    H181175   1.499   0.442  10.990 -2.5969 -0.4818  2.5063
19920TIP3    H281176   1.377   0.422  10.902  0.3497  0.2924 -2.0803
19921TIP3   OH281177   1.735   4.241  13.369 -0.3566  0.3785  0.3064
19921TIP3    H181178   1.777   4.181  13.309 -0.7761 -0.3478  0.7252
19921TIP3    H281179   1.642   4.220  13.364 -0.4370  0.5497  0.9399
19922TIP3   OH281180   2.911   5.973   9.760 -0.2568  0.4503 -0.2061
19922TIP3    H181181   3.003   5.989   9.783 -0.2127  1.4835 -1.0380
19922TIP3    H281182   2.861   6.014   9.832 -0.0725 -0.5053  0.4774
19923TIP3   OH281183   4.020   0.345  16.974  0.2192 -0.4827 -0.5601
19923TIP3    H181184   4.020   0.258  16.935  1.7764  0.0406 -1.8094
19923TIP3    H281185   4.068   0.334  17.056  1.3362 -0.6379 -1.2050
19924TIP3   OH281186   6.233   6.420  11.823 -0.5797  0.2706 -0.4540
19924TIP3    H181187   6.249   6.371  11.903  1.6013 -2.5480 -2.3957
19924TIP3    H281188   6.319   6.455  11.798 -1.0338  0.4317 -1.9176
19925TIP3   OH281189   1.604   5.124   4.316 -0.4653 -0.0049  0.2737
19925TIP3    H181190   1.554   5.206   4.318  0.4814  0.7305 -2.1740
19925TIP3    H281191   1.666   5.132   4.388 -1.1113  0.9285  0.7483
19926TIP3   OH281192   5.287   1.185   5.815  0.0087  0.4124 -0.2479
19926TIP3    H181193   5.370   1.203   5.771  1.1528 -0.8448  1.2706
19926TIP3    H281194   5.252   1.108   5.770  1.6495 -1.4716  1.4848
19927TIP3   OH281195   2.251   4.554  15.072  0.0928 -0.1431 -0.3115
19927TIP3    H181196   2.173   4.605  15.094  0.7646  0.2785  1.1843
19927TIP3    H281197   2.226   4.463  15.088 -0.6149 -0.1841 -1.5052
19928TIP3   OH281198   4.851   5.201  14.790  0.3084  0.1708  0.0788
19928TIP3    H181199   4.886   5.172  14.874  0.9316 -3.5098 -1.2464
19928TIP3    H281200   4.763   5.163  14.786 -0.3079  1.5647 -0.3839
19929TIP3   OH281201   2.994   1.841  11.967 -0.2869  0.2548 -0.1270
19929TIP3    H181202   2.956   1.753  11.972  0.6262 -0.1157  0.4841
19929TIP3    H281203   2.959   1.887  12.043 -0.0376  0.1295  0.0622
19930TIP3   OH281204   3.591   0.304   1.693  0.1984  0.2749  0.1984
19930TIP3    H181205   3.641   0.223   1.692  0.7222  0.5887  0.7348
19930TIP3    H281206   3.615   0.348   1.774 -1.6635  0.0024  0.9578
19931TIP3   OH281207   2.443   3.087   1.768  0.2283 -0.3442 -0.0823
19931TIP3    H181208   2.369   3.123   1.719  0.5832  1.3990  0.5757
19931TIP3    H281209   2.483   3.163   1.810  2.9929 -1.0571 -1.1747
19932TIP3   OH281210   2.772   4.726  16.291  0.1185  0.4014  0.1405
19932TIP3    H181211   2.715   4.800  16.270  1.5478  1.6684  0.5676
19932TIP3    H281212   2.774   4.674  16.210 -0.2636  1.2593 -0.4382
19933TIP3   OH281213   4.081   1.378  16.105 -0.1218  0.4156  0.2872
19933TIP3    H181214   4.174   1.390  16.086  1.0716 -0.3759  4.6446
19933TIP3    H281215   4.055   1.302  16.053  1.8991  0.1293 -0.3899
19934TIP3   OH281216   4.574   0.516  15.213  0.0910 -0.2264 -0.1475
19934TIP3    H181217   4.531   0.468  15.283 -0.0748 -0.7104 -0.5691
19934TIP3    H281218   4.514   0.588  15.192 -0.5310 -0.8910 -0.7249
19935TIP3   OH281219   5.179   4.722   3.499  0.1039 -0.4485  0.2022
19935TIP3    H181220   5.167   4.663   3.425  0.6693 -0.8524  0.4195
19935TIP3    H281221   5.174   4.810   3.461  0.4563 -0.6501 -0.3317
19936TIP3   OH281222   4.638   1.248   1.302  0.1889  0.1584  0.2218
19936TIP3    H181223   4.683   1.187   1.243 -2.4242 -1.5384 -0.1895
19936TIP3    H281224   4.671   1.334   1.278 -1.7396 -0.1861 -4.9566
19937TIP3   OH281225   1.699   1.530  14.764  0.4241 -0.2037  0.4144
19937TIP3    H181226   1.714   1.461  14.700 -1.5654  0.0580 -0.4154
19937TIP3    H281227   1.650   1.597  14.717  0.3783  0.7779  1.7787
19938TIP3   OH281228   0.637   0.634   3.253  0.1297 -0.2778 -0.6336
19938TIP3    H181229   0.664   0.620   3.343  0.3391  0.5800 -0.5493
19938TIP3    H281230   0.563   0.694   3.259 -0.1715 -0.6030 -1.0100
19939TIP3   OH281231   4.447   1.959   5.508 -0.1266  0.1291 -0.1271
19939TIP3    H181232   4.481   1.968   5.597 -0.2185  0.4733 -0.1225
19939TIP3    H281233   4.360   1.921   5.519 -0.1231  0.1377 -0.0707
19940TIP3   OH281234   2.794   3.695   2.850  0.4634  0.5075  0.3632
19940TIP3    H181235   2.798   3.765   2.784  0.9885  0.2930  0.1653
19940TIP3    H281236   2.760   3.739   2.928  0.1908  0.8459  0.0652
19941TIP3   OH281237   5.002   5.196  16.181 -0.6528  0.3802 -0.1427
19941TIP3    H181238   4.971   5.108  16.159 -2.3545  0.7845  0.4888
19941TIP3    H281239   4.999   5.199  16.277  0.9640  0.6086 -0.0666
19942TIP3   OH281240   6.411   6.095  14.283 -0.1998  0.2865  0.4090
19942TIP3    H181241   6.408   6.120  14.375 -1.8455  0.7606  0.2587
19942TIP3    H281242   6.333   6.040  14.270  0.9627 -1.2754 -0.3055
19943TIP3   OH281243   3.389   6.352  10.901  0.3942 -0.0122  0.2759
19943TIP3    H181244   3.337   6.347  10.820  1.2927  0.9402 -0.3920
19943TIP3    H281245   3.328   6.326  10.970 -0.5464 -0.3502 -0.6425
19944TIP3   OH281246   2.120   3.539  14.514  0.3651  0.1783  0.4638
19944TIP3    H181247   2.036   3.499  14.535  1.3623 -1.9870  0.5940
19944TIP3    H281248   2.179   3.510  14.583  1.4036  1.0014 -0.0429
19945TIP3   OH281249   1.580   2.317  14.339  0.2037 -0.4731 -0.3423
19945TIP3    H181250   1.578   2.368  14.259 -0.2991 -3.3273 -2.3080
19945TIP3    H281251   1.511   2.251  14.327  1.5019 -2.2851  1.5107
19946TIP3   OH281252   4.595   0.254  16.697  0.0615 -0.5676  0.4041
19946TIP3    H181253   4.630   0.297  16.618 -0.5586 -0.6026  0.1073
19946TIP3    H281254   4.656   0.280  16.766  0.2037  0.0693  0.0567
19947TIP3   OH281255   1.012   3.850   6.646  0.3376  0.3310 -0.5698
19947TIP3    H181256   1.066   3.904   6.704  0.3103 -0.4999  0.2571
19947TIP3    H281257   0.961   3.913   6.595  0.8068  1.0952 -0.1124
19948TIP3   OH281258   2.716   0.506  14.849  0.2174 -0.0329  0.6655
19948TIP3    H181259   2.668   0.459  14.781  0.8067  0.2338  0.0552
19948TIP3    H281260   2.802   0.524  14.810  0.4209  0.4784  1.3323
19949TIP3   OH281261   4.988   0.958  16.371  0.4212  0.5248 -0.4148
19949TIP3    H181262   4.936   0.967  16.290  0.3126  3.0570 -0.1364
19949TIP3    H281263   5.062   0.902  16.346  0.0234  0.6881 -2.0765
19950TIP3   OH281264   0.400   5.002   5.863  1.0373  0.2111 -0.3411
19950TIP3    H181265   0.396   4.953   5.781 -0.7027 -0.0583 -0.1323
19950TIP3    H281266   0.491   4.995   5.891  1.2031 -1.4534 -1.1866
19951TIP3   OH281267   5.752   4.655   3.435 -0.4715  1.0092 -0.1416
19951TIP3    H181268   5.747   4.588   3.367 -1.6163  1.1173 -0.1885
19951TIP3    H281269   5.845   4.676   3.441  0.2402 -2.1356  1.4402
19952TIP3   OH281270   2.796   6.450  13.803 -0.1974  0.6484 -0.0055
19952TIP3    H181271   2.757   6.414  13.882 -0.5163  1.3593  0.1610
19952TIP3    H281272   2.882   6.407  13.797  0.4439  1.6360  1.5062
19953TIP3   OH281273   5.705   4.622  13.357  0.0268  0.2447  0.0185
19953TIP3    H181274   5.738   4.544  13.401 -1.1091 -0.3409 -0.1299
19953TIP3    H281275   5.767   4.637  13.285  1.6602  0.9653  1.5107
19954TIP3   OH281276   0.725   0.621  11.659 -0.0769  0.8916  0.0369
19954TIP3    H181277   0.638   0.589  11.683 -0.7329  1.4478 -1.4807
19954TIP3    H281278   0.715   0.652  11.569  0.7433  4.3061  0.9581
19955TIP3   OH281279   1.468   2.452   4.995 -0.4436  0.2352  0.2384
19955TIP3    H181280   1.547   2.485   4.952 -0.3781  0.1559  0.2991
19955TIP3    H281281   1.498   2.379   5.048 -0.6428 -0.1172 -0.1350
19956TIP3   OH281282   0.457   6.145  16.858  0.0710  0.3813  0.2266
19956TIP3    H181283   0.454   6.120  16.950  1.5117  1.0319  0.4740
19956TIP3    H281284   0.543   6.116  16.827 -0.6286 -0.3770 -1.0974
19957TIP3   OH281285   2.580   2.849  15.770 -0.0637 -0.2652  0.2010
19957TIP3    H181286   2.658   2.881  15.816 -0.0988  0.2614 -0.1021
19957TIP3    H281287   2.606   2.763  15.735  1.3040  1.0314 -2.2350
19958TIP3   OH281288   0.293   5.884   3.783  0.3941  0.2032 -0.6699
19958TIP3    H181289   0.258   5.960   3.829  0.1827  1.9933 -3.5136
19958TIP3    H281290   0.216   5.839   3.750  0.5600  0.4361 -1.4077
19959TIP3   OH281291   4.194   0.626  15.466 -0.3687  0.1244 -0.3251
19959TIP3    H181292   4.121   0.571  15.439  0.4122 -0.4051 -1.4519
19959TIP3    H281293   4.169   0.714  15.439 -1.7833  0.4625  1.8089
19960TIP3   OH281294   5.966   5.246   0.436 -0.1478  0.2214 -0.3277
19960TIP3    H181295   5.903   5.303   0.480 -1.0105 -1.3639  0.5520
19960TIP3    H281296   5.991   5.182   0.502  3.3092  1.4187 -0.2598
19961TIP3   OH281297   5.440   5.239  15.614  0.5683  0.1737 -0.1331
19961TIP3    H181298   5.382   5.241  15.538  0.9867 -0.7704 -0.4966
19961TIP3    H281299   5.472   5.329  15.623  1.6228  0.0205 -1.9630
19962LIG      S81300   4.176   3.363  14.432 -0.2038 -0.0882  0.1553
19962LIG     N181301   3.824   2.910  14.365  0.1733 -0.4015 -0.2707
19962LIG     N281302   4.020   3.131  14.304  0.3947  0.2299 -0.5232
19962LIG     C181303   3.750   3.025  14.421  0.0165  0.4281  0.9051
19962LIG     C281304   3.851   3.128  14.483 -0.3317  0.8711  0.3105
19962LIG     C381305   3.968   3.190  14.426 -0.3989  0.4561  0.5210
19962LIG     C481306   3.758   2.818  14.277  0.1089  0.3899  0.4091
19962LIG     C581307   3.909   2.840  14.467 -0.1609  0.1596  0.8241
19962LIG     C681308   3.671   3.100  14.317 -0.1003  0.5088 -0.1286
19962LIG     C781309   4.037   3.294  14.503  0.9452 -0.4557  0.0644
19962LIG     C881310   3.810   3.159  14.618 -0.1255  0.0120 -0.0377
19962LIG     C981311   4.163   3.120  14.300  0.1008 -0.1189 -0.7587
19962LIG    C1081312   3.624   2.771  14.328 -0.3888  0.2859 -0.0967
19962LIG    C1181313   3.835   2.799  14.597 -0.1273 -0.5276  1.1480
19962LIG    C1281314   4.003   3.317  14.636  0.2404 -0.0038  0.0286
19962LIG    C1381315   3.886   3.252  14.693 -0.2828 -0.4923  0.4431
19962LIG    C1481316   4.248   3.224  14.358  0.4541  0.4775  0.2901
19962LIG    C1581317   4.228   3.002  14.257 -0.3618  0.2644  0.1656
19962LIG    C1681318   4.387   3.209  14.354  0.0078 -0.1673  0.3181
19962LIG    C1781319   4.366   2.998  14.236 -0.0948 -0.6072  0.0158
19962LIG    C1881320   4.443   3.094  14.296 -0.0957 -0.3352  0.3603
19962LIG     H181321   3.671   2.994  14.492 -1.5503  0.7715 -0.6123
19962LIG     H281322   3.823   2.733  14.249 -0.0613 -0.1067  1.4750
19962LIG     H381323   3.727   2.877  14.188 -0.3183 -0.9538 -0.3585
19962LIG     H481324   4.000   2.894  14.500 -1.0714  0.9316  2.1930
19962LIG     H581325   3.954   2.747  14.428  1.0741  1.2410 -0.4395
19962LIG     H681326   3.617   3.190  14.355  2.2993  1.2053  1.9698
19962LIG     H781327   3.593   3.031  14.279 -0.1900 -0.3222  1.4694
19962LIG     H881328   3.735   3.124  14.230 -1.9516  0.1424 -1.6430
19962LIG     H981329   3.720   3.126  14.667 -1.3366  1.0025 -1.5010
19962LIG    H1081330   3.969   3.046  14.281  1.4641 -0.3774 -0.6910
19962LIG    H1181331   3.549   2.852  14.333  0.9662  1.5953 -0.3480
19962LIG    H1281332   3.636   2.729  14.430 -2.7241  0.9249  0.4947
19962LIG    H1381333   3.586   2.702  14.250  0.7072 -0.9383  0.3983
19962LIG    H1481334   3.784   2.887  14.643  0.5945 -0.0467  1.0335
19962LIG    H1581335   3.907   2.759  14.672  1.1273  2.1976  1.5128
19962LIG    H1681336   3.765   2.714  14.577  0.7397 -1.4223  1.8127
19962LIG    H1781337   4.056   3.392  14.692  1.8685 -0.9166 -0.2097
19962LIG    H1881338   3.863   3.279  14.794  2.0056  1.8535  0.4476
19962LIG    H1981339   4.162   2.927  14.215 -0.5099  0.3473  0.2474
19962LIG    H2081340   4.448   3.294  14.379 -0.5366  0.1757  0.4983
19962LIG    H2181341   4.407   2.902  14.208 -2.2533 -1.4908 -0.2887
19962LIG    H2281342   4.549   3.076  14.296  0.2177  1.1784 -1.2391
   6.79114   6.79114  17.20391
